 Gaussian 16, Revision A.03,
 Gaussian 16:  ES64L-G16RevA.03 25-Dec-2016

 ------------------------------
 #p blyp/Def2SVP td=(nstates=5)
 ------------------------------

 --------------------------------------------------
 step_1201_chromophore_6 TDDFT with blyp functional
 --------------------------------------------------
 Symbolic Z-matrix:
 Charge =  0 Multiplicity = 1

                         Standard orientation:
 ---------------------------------------------------------------------
 Center     Atomic      Atomic             Coordinates (Angstroms)
 Number     Number       Type             X           Y           Z
 ---------------------------------------------------------------------
      1         12           0       -5.221343    1.208732   -0.333127
      2          6           0       -4.365607   -2.207601   -0.248014
      3          6           0       -1.838842    1.953040   -0.226154
      4          6           0       -6.079579    4.400951    0.157359
      5          6           0       -8.713762    0.255105    0.173731
      6          7           0       -3.349536   -0.083662    0.140200
      7          6           0       -3.214749   -1.409064   -0.130660
      8          6           0       -1.684594   -1.934784   -0.139189
      9          6           0       -0.930063   -0.486306    0.000837
     10          6           0       -2.131019    0.567959    0.037299
     11          6           0       -0.041810   -0.325340    1.217344
     12          6           0       -1.293864   -2.765001   -1.357887
     13          6           0       -0.802027   -4.125267   -1.216022
     14          6           0        0.098003   -4.407311    0.021915
     15          8           0       -0.043251   -5.339634    0.796495
     16          8           0        1.101485   -3.472960    0.127916
     17          7           0       -4.069153    2.948999   -0.311680
     18          6           0       -2.704800    3.101945   -0.336447
     19          6           0       -2.423327    4.498883   -0.406298
     20          6           0       -3.642095    5.191101   -0.224930
     21          6           0       -4.693243    4.217784   -0.155072
     22          6           0       -1.066547    4.962084   -0.232585
     23          6           0       -3.825081    6.679974   -0.062774
     24          8           0       -4.957802    7.218132    0.030872
     25          6           0       -2.551116    7.707742   -0.243150
     26          7           0       -7.108880    2.164078    0.012213
     27          6           0       -7.109050    3.522845    0.302729
     28          6           0       -8.503780    4.022015    0.806549
     29          6           0       -9.370230    2.726873    0.509592
     30          6           0       -8.354325    1.654303    0.232917
     31          6           0       -8.540623    4.432071    2.325434
     32          6           0      -10.534207    2.871431   -0.445446
     33          6           0      -10.450856    2.113073   -1.721242
     34          7           0       -6.350861   -0.523507   -0.064431
     35          6           0       -7.716631   -0.805225    0.001088
     36          6           0       -7.911648   -2.320572   -0.124717
     37          6           0       -6.629269   -2.871519   -0.214729
     38          6           0       -5.696273   -1.732757   -0.146698
     39          6           0       -9.187047   -3.049354   -0.219077
     40          6           0       -5.950506   -4.206399   -0.348879
     41          8           0       -6.385433   -5.332844   -0.430957
     42          6           0       -4.490380   -3.713792   -0.463640
     43          6           0       -3.769711   -4.433481    0.726287
     44          8           0       -3.766823   -3.959733    1.857315
     45          8           0       -3.213095   -5.660972    0.466834
     46          6           0       -2.782063   -6.404977    1.717360
     47          6           0        2.164613   -3.730630    1.149589
     48          6           0        3.430018   -3.885882    0.334248
     49          6           0        4.678702   -3.776596    0.843910
     50          6           0        4.928038   -3.809733    2.319914
     51          6           0        5.939672   -3.841961    0.006331
     52          6           0        5.923061   -2.868303   -1.234013
     53          6           0        6.909231   -1.737141   -1.227364
     54          6           0        7.851253   -1.692836   -2.341626
     55          6           0        8.950780   -2.742992   -2.088616
     56          6           0        8.500356   -0.221407   -2.535469
     57          6           0        9.230461    0.385812   -1.298275
     58          6           0       10.546903    1.087921   -1.699857
     59          6           0       11.100990    2.066244   -0.647476
     60          6           0       10.669825    3.533962   -0.955473
     61          6           0       12.648154    1.996444   -0.496853
     62          6           0       13.197367    2.395810    0.871993
     63          6           0       14.543906    1.720450    1.139632
     64          6           0       15.749320    2.714836    1.422675
     65          6           0       15.952754    3.110127    2.883478
     66          6           0       16.977032    2.030979    0.858980
     67          1           0       -0.779477    2.214383   -0.269092
     68          1           0       -6.518667    5.358762    0.444103
     69          1           0       -9.753331   -0.063817    0.268676
     70          1           0       -1.566780   -2.599711    0.716690
     71          1           0       -0.196414   -0.270745   -0.774819
     72          1           0        0.989902   -0.104207    0.942517
     73          1           0       -0.095733   -1.245272    1.800655
     74          1           0       -0.392890    0.493710    1.844814
     75          1           0       -0.580396   -2.287709   -2.030751
     76          1           0       -2.235036   -2.797961   -1.907518
     77          1           0       -0.039218   -4.187769   -1.991987
     78          1           0       -1.557644   -4.905469   -1.307812
     79          1           0       -0.940369    5.489509    0.712507
     80          1           0       -0.720164    5.676798   -0.979103
     81          1           0       -0.335261    4.160245   -0.330806
     82          1           0       -2.102912    7.679204   -1.236671
     83          1           0       -1.891894    7.493671    0.597433
     84          1           0       -2.771932    8.740975    0.025057
     85          1           0       -8.879723    4.864165    0.224564
     86          1           0       -9.858609    2.387179    1.423636
     87          1           0       -7.565049    4.791676    2.652729
     88          1           0       -8.767292    3.617185    3.013580
     89          1           0       -9.262699    5.232124    2.486008
     90          1           0      -10.704074    3.940999   -0.567697
     91          1           0      -11.348414    2.397677    0.103740
     92          1           0       -9.428450    2.052358   -2.093991
     93          1           0      -11.007574    2.671291   -2.474669
     94          1           0      -10.853206    1.104252   -1.631653
     95          1           0       -9.805513   -2.303676   -0.718377
     96          1           0       -9.614804   -3.338645    0.741502
     97          1           0       -8.885586   -3.936398   -0.776340
     98          1           0       -4.095200   -4.119035   -1.395649
     99          1           0       -3.588719   -6.923799    2.234502
    100          1           0       -2.215923   -5.829934    2.450217
    101          1           0       -2.073236   -7.180804    1.425940
    102          1           0        2.059302   -4.623480    1.765869
    103          1           0        2.336525   -2.852022    1.771910
    104          1           0        3.349804   -4.098399   -0.731782
    105          1           0        4.029526   -4.264404    2.738918
    106          1           0        5.037381   -2.819305    2.760049
    107          1           0        5.806022   -4.393784    2.595879
    108          1           0        5.877571   -4.819531   -0.471431
    109          1           0        6.893245   -3.725118    0.520705
    110          1           0        4.953279   -2.369710   -1.214967
    111          1           0        5.882402   -3.445501   -2.156856
    112          1           0        7.558428   -1.728038   -0.351386
    113          1           0        6.352209   -0.806330   -1.125982
    114          1           0        7.296625   -1.967076   -3.238689
    115          1           0        9.878774   -2.196125   -1.920754
    116          1           0        9.088360   -3.399345   -2.948162
    117          1           0        8.758391   -3.324998   -1.186910
    118          1           0        7.667458    0.466461   -2.685119
    119          1           0        9.149849   -0.367090   -3.398466
    120          1           0        9.529388   -0.381271   -0.584213
    121          1           0        8.595309    1.168882   -0.882591
    122          1           0       10.347241    1.497536   -2.690037
    123          1           0       11.283180    0.303490   -1.879306
    124          1           0       10.602076    1.947110    0.314568
    125          1           0       11.470528    4.231962   -0.714697
    126          1           0        9.851135    3.820436   -0.295255
    127          1           0       10.361092    3.617680   -1.997798
    128          1           0       13.076621    2.551396   -1.332435
    129          1           0       12.961601    0.963447   -0.648383
    130          1           0       12.481195    2.229570    1.677144
    131          1           0       13.367029    3.448139    0.640104
    132          1           0       14.842521    0.938867    0.440862
    133          1           0       14.254272    1.253630    2.081360
    134          1           0       15.624671    3.678604    0.930798
    135          1           0       15.085424    2.692961    3.393860
    136          1           0       15.945472    4.178163    3.103592
    137          1           0       16.814652    2.636958    3.354399
    138          1           0       17.701377    2.787807    0.561189
    139          1           0       16.812577    1.300131    0.067611
    140          1           0       17.433959    1.441826    1.654712
 ---------------------------------------------------------------------

 SCF Done:  E(RB-LYP) =  -3007.33729660     A.U. after   21 cycles

 Excitation energies and oscillator strengths:

 Excited State   1:      Singlet-A      1.7081 eV  725.84 nm  f=0.1091  <S**2>=0.000
     244 -> 247        0.54370
     245 -> 248       -0.10639
     246 -> 247       -0.43589
 This state for optimization and/or second-order correction.
 Total Energy, E(TD-HF/TD-DFT) =  -3007.27452339
 Copying the excited state density for this state as the 1-particle RhoCI density.

 Excited State   2:      Singlet-A      1.7616 eV  703.83 nm  f=0.1965  <S**2>=0.000
     244 -> 247        0.43744
     245 -> 248        0.14881
     246 -> 247        0.53747
     246 <- 247       -0.12209

 Excited State   3:      Singlet-A      1.9689 eV  629.72 nm  f=0.0696  <S**2>=0.000
     244 -> 247        0.10593
     245 -> 247        0.63988
     246 -> 248       -0.23947

 Excited State   4:      Singlet-A      2.1701 eV  571.32 nm  f=0.0000  <S**2>=0.000
     243 -> 247        0.70708

 Excited State   5:      Singlet-A      2.3313 eV  531.82 nm  f=0.0013  <S**2>=0.000
     241 -> 247        0.34334
     242 -> 247        0.61687

 The electronic state is 1-A.
 Alpha  occ. eigenvalues --  -46.27999 -18.83036 -18.82153 -18.77497 -18.77367
 Alpha  occ. eigenvalues --  -18.76149 -18.75316 -14.03659 -14.03136 -14.01841
 Alpha  occ. eigenvalues --  -14.01097 -10.04680 -10.03820 -10.01145 -10.00174
 Alpha  occ. eigenvalues --   -9.98861  -9.97257  -9.97205  -9.96958  -9.96950
 Alpha  occ. eigenvalues --   -9.96557  -9.95997  -9.95729  -9.95626  -9.95354
 Alpha  occ. eigenvalues --   -9.95159  -9.94762  -9.94223  -9.94100  -9.94025
 Alpha  occ. eigenvalues --   -9.93984  -9.93806  -9.93638  -9.93415  -9.92916
 Alpha  occ. eigenvalues --   -9.92820  -9.92790  -9.92773  -9.92438  -9.92437
 Alpha  occ. eigenvalues --   -9.92407  -9.92257  -9.92159  -9.92131  -9.92061
 Alpha  occ. eigenvalues --   -9.91910  -9.91905  -9.91867  -9.91781  -9.91700
 Alpha  occ. eigenvalues --   -9.91672  -9.91614  -9.91599  -9.91501  -9.91491
 Alpha  occ. eigenvalues --   -9.91253  -9.91243  -9.91051  -9.91035  -9.90959
 Alpha  occ. eigenvalues --   -9.90915  -9.90835  -9.90749  -9.90690  -9.90387
 Alpha  occ. eigenvalues --   -9.90361  -2.92469  -1.72886  -1.72388  -1.72154
 Alpha  occ. eigenvalues --   -0.98021  -0.96795  -0.93214  -0.90232  -0.89176
 Alpha  occ. eigenvalues --   -0.88537  -0.85534  -0.84953  -0.84444  -0.83855
 Alpha  occ. eigenvalues --   -0.75308  -0.74371  -0.73744  -0.73100  -0.72728
 Alpha  occ. eigenvalues --   -0.72602  -0.71394  -0.71264  -0.70747  -0.70304
 Alpha  occ. eigenvalues --   -0.69974  -0.68866  -0.68430  -0.67312  -0.66943
 Alpha  occ. eigenvalues --   -0.66528  -0.65608  -0.65050  -0.64353  -0.64028
 Alpha  occ. eigenvalues --   -0.63029  -0.62418  -0.62017  -0.61559  -0.60852
 Alpha  occ. eigenvalues --   -0.60726  -0.60268  -0.59516  -0.59410  -0.58877
 Alpha  occ. eigenvalues --   -0.58113  -0.57293  -0.56132  -0.55237  -0.54836
 Alpha  occ. eigenvalues --   -0.54087  -0.53731  -0.52714  -0.52507  -0.51526
 Alpha  occ. eigenvalues --   -0.51120  -0.50744  -0.50432  -0.50014  -0.49990
 Alpha  occ. eigenvalues --   -0.49521  -0.49301  -0.47947  -0.47649  -0.46301
 Alpha  occ. eigenvalues --   -0.46272  -0.46004  -0.45515  -0.45072  -0.44365
 Alpha  occ. eigenvalues --   -0.43454  -0.43142  -0.43021  -0.42616  -0.42415
 Alpha  occ. eigenvalues --   -0.42338  -0.42103  -0.41595  -0.41369  -0.41148
 Alpha  occ. eigenvalues --   -0.40896  -0.40785  -0.40638  -0.40505  -0.40046
 Alpha  occ. eigenvalues --   -0.39766  -0.39573  -0.39503  -0.39356  -0.39156
 Alpha  occ. eigenvalues --   -0.38944  -0.38631  -0.38554  -0.38470  -0.37982
 Alpha  occ. eigenvalues --   -0.37920  -0.37893  -0.37520  -0.37285  -0.37217
 Alpha  occ. eigenvalues --   -0.37072  -0.36981  -0.36877  -0.36732  -0.36647
 Alpha  occ. eigenvalues --   -0.36540  -0.36099  -0.35877  -0.35698  -0.35494
 Alpha  occ. eigenvalues --   -0.35417  -0.34839  -0.34755  -0.34678  -0.34469
 Alpha  occ. eigenvalues --   -0.34386  -0.34303  -0.33999  -0.33859  -0.33764
 Alpha  occ. eigenvalues --   -0.33638  -0.33490  -0.33406  -0.33308  -0.33073
 Alpha  occ. eigenvalues --   -0.32986  -0.32860  -0.32808  -0.32740  -0.32362
 Alpha  occ. eigenvalues --   -0.32253  -0.32229  -0.31869  -0.31558  -0.31524
 Alpha  occ. eigenvalues --   -0.31322  -0.31043  -0.30853  -0.30809  -0.30525
 Alpha  occ. eigenvalues --   -0.30145  -0.30127  -0.29788  -0.29776  -0.29604
 Alpha  occ. eigenvalues --   -0.29551  -0.29467  -0.29272  -0.29153  -0.28980
 Alpha  occ. eigenvalues --   -0.28663  -0.28281  -0.28084  -0.27996  -0.27837
 Alpha  occ. eigenvalues --   -0.27299  -0.26906  -0.26833  -0.26749  -0.26203
 Alpha  occ. eigenvalues --   -0.26187  -0.25896  -0.25753  -0.25406  -0.25339
 Alpha  occ. eigenvalues --   -0.25009  -0.24994  -0.24794  -0.23834  -0.23637
 Alpha  occ. eigenvalues --   -0.23104  -0.22206  -0.22029  -0.21401  -0.21042
 Alpha  occ. eigenvalues --   -0.20141  -0.20065  -0.19614  -0.17936  -0.17293
 Alpha  occ. eigenvalues --   -0.15716
 Alpha virt. eigenvalues --   -0.11639  -0.07095  -0.06812  -0.05187  -0.03220
 Alpha virt. eigenvalues --   -0.02862  -0.02365  -0.02217  -0.01862   0.00243
 Alpha virt. eigenvalues --    0.01054   0.01405   0.02405   0.02556   0.02699

 Mulliken charges:
               1
     1  Mg   0.691816
     2  C    0.031952
     3  C   -0.029459
     4  C    0.009338
     5  C   -0.062100
     6  N   -0.196002
     7  C   -0.100641
     8  C    0.031324
     9  C   -0.043970
    10  C    0.060305
    11  C    0.118014
    12  C    0.118600
    13  C    0.177419
    14  C    0.034524
    15  O   -0.174759
    16  O   -0.292092
    17  N   -0.332222
    18  C    0.093772
    19  C   -0.103211
    20  C    0.068196
    21  C    0.138721
    22  C    0.174852
    23  C   -0.061176
    24  O   -0.192377
    25  C    0.096151
    26  N   -0.233204
    27  C   -0.020193
    28  C    0.004827
    29  C    0.048072
    30  C    0.014182
    31  C    0.117497
    32  C    0.099596
    33  C    0.090411
    34  N   -0.270666
    35  C    0.086974
    36  C   -0.198296
    37  C    0.002991
    38  C    0.147642
    39  C    0.162826
    40  C    0.023111
    41  O   -0.098990
    42  C    0.030337
    43  C    0.098456
    44  O   -0.196575
    45  O   -0.269542
    46  C    0.225398
    47  C    0.319186
    48  C   -0.118794
    49  C   -0.171485
    50  C    0.137407
    51  C    0.164227
    52  C    0.080532
    53  C    0.104457
    54  C   -0.087050
    55  C    0.109345
    56  C    0.105438
    57  C    0.035414
    58  C    0.099218
    59  C   -0.052513
    60  C    0.093934
    61  C    0.049820
    62  C    0.088993
    63  C    0.106794
    64  C   -0.090350
    65  C    0.117364
    66  C    0.100507
    67  H   -0.066662
    68  H   -0.045081
    69  H   -0.056160
    70  H    0.023647
    71  H   -0.021476
    72  H   -0.013177
    73  H   -0.009805
    74  H   -0.010315
    75  H   -0.026347
    76  H   -0.030246
    77  H   -0.015276
    78  H    0.012512
    79  H    0.005625
    80  H   -0.021474
    81  H   -0.025719
    82  H    0.027151
    83  H   -0.014289
    84  H   -0.021056
    85  H   -0.014522
    86  H   -0.038920
    87  H   -0.007020
    88  H   -0.008005
    89  H   -0.004462
    90  H   -0.021827
    91  H   -0.033716
    92  H    0.002186
    93  H   -0.015943
    94  H   -0.012734
    95  H    0.000101
    96  H    0.015864
    97  H    0.018760
    98  H    0.000355
    99  H    0.014455
   100  H    0.022798
   101  H    0.009717
   102  H    0.032548
   103  H    0.010994
   104  H   -0.037972
   105  H   -0.021743
   106  H    0.000386
   107  H    0.000599
   108  H   -0.019645
   109  H   -0.025674
   110  H   -0.034774
   111  H   -0.036762
   112  H   -0.044205
   113  H   -0.054234
   114  H   -0.045381
   115  H   -0.019431
   116  H   -0.013713
   117  H   -0.017513
   118  H   -0.031670
   119  H   -0.020741
   120  H   -0.012285
   121  H   -0.027134
   122  H   -0.033510
   123  H   -0.043743
   124  H   -0.040485
   125  H   -0.020919
   126  H   -0.021939
   127  H   -0.015242
   128  H   -0.027157
   129  H   -0.041852
   130  H   -0.023999
   131  H   -0.025532
   132  H   -0.022797
   133  H   -0.038833
   134  H   -0.030414
   135  H   -0.033870
   136  H   -0.012128
   137  H   -0.017580
   138  H   -0.019047
   139  H   -0.018682
   140  H   -0.027130
 Sum of Mulliken charges =  -0.00000

 Dipole moment (field-independent basis, Debye):
    X=              3.4485    Y=              0.5982    Z=             -1.0271  Tot=              3.6476
 Quadrupole moment (field-independent basis, Debye-Ang):
   XX=           -378.9210   YY=           -444.0636   ZZ=           -403.2956
   XY=            -10.7964   XZ=              6.7122   YZ=              3.1493

 Normal termination of Gaussian 16 at Wed May  4 02:18:15 2022.
