 Gaussian 16, Revision A.03,
 Gaussian 16:  ES64L-G16RevA.03 25-Dec-2016

 -----------------------------------
 #p cam-b3lyp/Def2SVP td=(nstates=5)
 -----------------------------------

 -------------------------------------------------------
 step_1201_chromophore_6 TDDFT with cam-b3lyp functional
 -------------------------------------------------------
 Symbolic Z-matrix:
 Charge =  0 Multiplicity = 1

                         Standard orientation:
 ---------------------------------------------------------------------
 Center     Atomic      Atomic             Coordinates (Angstroms)
 Number     Number       Type             X           Y           Z
 ---------------------------------------------------------------------
      1         12           0       -5.221343    1.208732   -0.333127
      2          6           0       -4.365607   -2.207601   -0.248014
      3          6           0       -1.838842    1.953040   -0.226154
      4          6           0       -6.079579    4.400951    0.157359
      5          6           0       -8.713762    0.255105    0.173731
      6          7           0       -3.349536   -0.083662    0.140200
      7          6           0       -3.214749   -1.409064   -0.130660
      8          6           0       -1.684594   -1.934784   -0.139189
      9          6           0       -0.930063   -0.486306    0.000837
     10          6           0       -2.131019    0.567959    0.037299
     11          6           0       -0.041810   -0.325340    1.217344
     12          6           0       -1.293864   -2.765001   -1.357887
     13          6           0       -0.802027   -4.125267   -1.216022
     14          6           0        0.098003   -4.407311    0.021915
     15          8           0       -0.043251   -5.339634    0.796495
     16          8           0        1.101485   -3.472960    0.127916
     17          7           0       -4.069153    2.948999   -0.311680
     18          6           0       -2.704800    3.101945   -0.336447
     19          6           0       -2.423327    4.498883   -0.406298
     20          6           0       -3.642095    5.191101   -0.224930
     21          6           0       -4.693243    4.217784   -0.155072
     22          6           0       -1.066547    4.962084   -0.232585
     23          6           0       -3.825081    6.679974   -0.062774
     24          8           0       -4.957802    7.218132    0.030872
     25          6           0       -2.551116    7.707742   -0.243150
     26          7           0       -7.108880    2.164078    0.012213
     27          6           0       -7.109050    3.522845    0.302729
     28          6           0       -8.503780    4.022015    0.806549
     29          6           0       -9.370230    2.726873    0.509592
     30          6           0       -8.354325    1.654303    0.232917
     31          6           0       -8.540623    4.432071    2.325434
     32          6           0      -10.534207    2.871431   -0.445446
     33          6           0      -10.450856    2.113073   -1.721242
     34          7           0       -6.350861   -0.523507   -0.064431
     35          6           0       -7.716631   -0.805225    0.001088
     36          6           0       -7.911648   -2.320572   -0.124717
     37          6           0       -6.629269   -2.871519   -0.214729
     38          6           0       -5.696273   -1.732757   -0.146698
     39          6           0       -9.187047   -3.049354   -0.219077
     40          6           0       -5.950506   -4.206399   -0.348879
     41          8           0       -6.385433   -5.332844   -0.430957
     42          6           0       -4.490380   -3.713792   -0.463640
     43          6           0       -3.769711   -4.433481    0.726287
     44          8           0       -3.766823   -3.959733    1.857315
     45          8           0       -3.213095   -5.660972    0.466834
     46          6           0       -2.782063   -6.404977    1.717360
     47          6           0        2.164613   -3.730630    1.149589
     48          6           0        3.430018   -3.885882    0.334248
     49          6           0        4.678702   -3.776596    0.843910
     50          6           0        4.928038   -3.809733    2.319914
     51          6           0        5.939672   -3.841961    0.006331
     52          6           0        5.923061   -2.868303   -1.234013
     53          6           0        6.909231   -1.737141   -1.227364
     54          6           0        7.851253   -1.692836   -2.341626
     55          6           0        8.950780   -2.742992   -2.088616
     56          6           0        8.500356   -0.221407   -2.535469
     57          6           0        9.230461    0.385812   -1.298275
     58          6           0       10.546903    1.087921   -1.699857
     59          6           0       11.100990    2.066244   -0.647476
     60          6           0       10.669825    3.533962   -0.955473
     61          6           0       12.648154    1.996444   -0.496853
     62          6           0       13.197367    2.395810    0.871993
     63          6           0       14.543906    1.720450    1.139632
     64          6           0       15.749320    2.714836    1.422675
     65          6           0       15.952754    3.110127    2.883478
     66          6           0       16.977032    2.030979    0.858980
     67          1           0       -0.779477    2.214383   -0.269092
     68          1           0       -6.518667    5.358762    0.444103
     69          1           0       -9.753331   -0.063817    0.268676
     70          1           0       -1.566780   -2.599711    0.716690
     71          1           0       -0.196414   -0.270745   -0.774819
     72          1           0        0.989902   -0.104207    0.942517
     73          1           0       -0.095733   -1.245272    1.800655
     74          1           0       -0.392890    0.493710    1.844814
     75          1           0       -0.580396   -2.287709   -2.030751
     76          1           0       -2.235036   -2.797961   -1.907518
     77          1           0       -0.039218   -4.187769   -1.991987
     78          1           0       -1.557644   -4.905469   -1.307812
     79          1           0       -0.940369    5.489509    0.712507
     80          1           0       -0.720164    5.676798   -0.979103
     81          1           0       -0.335261    4.160245   -0.330806
     82          1           0       -2.102912    7.679204   -1.236671
     83          1           0       -1.891894    7.493671    0.597433
     84          1           0       -2.771932    8.740975    0.025057
     85          1           0       -8.879723    4.864165    0.224564
     86          1           0       -9.858609    2.387179    1.423636
     87          1           0       -7.565049    4.791676    2.652729
     88          1           0       -8.767292    3.617185    3.013580
     89          1           0       -9.262699    5.232124    2.486008
     90          1           0      -10.704074    3.940999   -0.567697
     91          1           0      -11.348414    2.397677    0.103740
     92          1           0       -9.428450    2.052358   -2.093991
     93          1           0      -11.007574    2.671291   -2.474669
     94          1           0      -10.853206    1.104252   -1.631653
     95          1           0       -9.805513   -2.303676   -0.718377
     96          1           0       -9.614804   -3.338645    0.741502
     97          1           0       -8.885586   -3.936398   -0.776340
     98          1           0       -4.095200   -4.119035   -1.395649
     99          1           0       -3.588719   -6.923799    2.234502
    100          1           0       -2.215923   -5.829934    2.450217
    101          1           0       -2.073236   -7.180804    1.425940
    102          1           0        2.059302   -4.623480    1.765869
    103          1           0        2.336525   -2.852022    1.771910
    104          1           0        3.349804   -4.098399   -0.731782
    105          1           0        4.029526   -4.264404    2.738918
    106          1           0        5.037381   -2.819305    2.760049
    107          1           0        5.806022   -4.393784    2.595879
    108          1           0        5.877571   -4.819531   -0.471431
    109          1           0        6.893245   -3.725118    0.520705
    110          1           0        4.953279   -2.369710   -1.214967
    111          1           0        5.882402   -3.445501   -2.156856
    112          1           0        7.558428   -1.728038   -0.351386
    113          1           0        6.352209   -0.806330   -1.125982
    114          1           0        7.296625   -1.967076   -3.238689
    115          1           0        9.878774   -2.196125   -1.920754
    116          1           0        9.088360   -3.399345   -2.948162
    117          1           0        8.758391   -3.324998   -1.186910
    118          1           0        7.667458    0.466461   -2.685119
    119          1           0        9.149849   -0.367090   -3.398466
    120          1           0        9.529388   -0.381271   -0.584213
    121          1           0        8.595309    1.168882   -0.882591
    122          1           0       10.347241    1.497536   -2.690037
    123          1           0       11.283180    0.303490   -1.879306
    124          1           0       10.602076    1.947110    0.314568
    125          1           0       11.470528    4.231962   -0.714697
    126          1           0        9.851135    3.820436   -0.295255
    127          1           0       10.361092    3.617680   -1.997798
    128          1           0       13.076621    2.551396   -1.332435
    129          1           0       12.961601    0.963447   -0.648383
    130          1           0       12.481195    2.229570    1.677144
    131          1           0       13.367029    3.448139    0.640104
    132          1           0       14.842521    0.938867    0.440862
    133          1           0       14.254272    1.253630    2.081360
    134          1           0       15.624671    3.678604    0.930798
    135          1           0       15.085424    2.692961    3.393860
    136          1           0       15.945472    4.178163    3.103592
    137          1           0       16.814652    2.636958    3.354399
    138          1           0       17.701377    2.787807    0.561189
    139          1           0       16.812577    1.300131    0.067611
    140          1           0       17.433959    1.441826    1.654712
 ---------------------------------------------------------------------

 SCF Done:  E(RCAM-B3LYP) =  -3007.11957968     A.U. after   17 cycles

 Excitation energies and oscillator strengths:

 Excited State   1:      Singlet-A      1.6877 eV  734.64 nm  f=0.3704  <S**2>=0.000
     245 -> 248       -0.17192
     246 -> 247        0.68756
     245 <- 248       -0.10552
 This state for optimization and/or second-order correction.
 Total Energy, E(TD-HF/TD-DFT) =  -3007.05755803
 Copying the excited state density for this state as the 1-particle RhoCI density.

 Excited State   2:      Singlet-A      2.2138 eV  560.04 nm  f=0.1023  <S**2>=0.000
     245 -> 247        0.63372
     246 -> 248        0.30239

 Excited State   3:      Singlet-A      3.3529 eV  369.78 nm  f=0.0761  <S**2>=0.000
     241 -> 247       -0.10317
     244 -> 247        0.58902
     245 -> 247        0.12854
     246 -> 248       -0.32092

 Excited State   4:      Singlet-A      3.4546 eV  358.89 nm  f=0.4371  <S**2>=0.000
     241 -> 247       -0.33966
     242 -> 247        0.11835
     244 -> 247        0.25855
     245 -> 247       -0.21895
     246 -> 248        0.47367

 Excited State   5:      Singlet-A      3.4820 eV  356.07 nm  f=0.0383  <S**2>=0.000
     242 -> 247        0.47053
     242 -> 248       -0.17495
     242 -> 249        0.24818
     242 -> 250        0.33759
     246 -> 248       -0.15253

 The electronic state is 1-A.
 Alpha  occ. eigenvalues --  -46.89515 -19.25998 -19.25251 -19.21333 -19.20425
 Alpha  occ. eigenvalues --  -19.19445 -19.18055 -14.42511 -14.41926 -14.40586
 Alpha  occ. eigenvalues --  -14.39155 -10.40078 -10.39509 -10.37061 -10.35094
 Alpha  occ. eigenvalues --  -10.33014 -10.32264 -10.32112 -10.31824 -10.31321
 Alpha  occ. eigenvalues --  -10.30714 -10.30663 -10.29917 -10.29745 -10.29694
 Alpha  occ. eigenvalues --  -10.29498 -10.29103 -10.28829 -10.28531 -10.28131
 Alpha  occ. eigenvalues --  -10.27969 -10.27798 -10.27551 -10.27494 -10.26986
 Alpha  occ. eigenvalues --  -10.26811 -10.26679 -10.26624 -10.26595 -10.26531
 Alpha  occ. eigenvalues --  -10.26090 -10.26011 -10.25998 -10.25858 -10.25808
 Alpha  occ. eigenvalues --  -10.25681 -10.25609 -10.25565 -10.25559 -10.25489
 Alpha  occ. eigenvalues --  -10.25435 -10.25366 -10.25323 -10.25200 -10.24994
 Alpha  occ. eigenvalues --  -10.24952 -10.24871 -10.24702 -10.24675 -10.24608
 Alpha  occ. eigenvalues --  -10.24562 -10.24501 -10.24300 -10.24285 -10.23958
 Alpha  occ. eigenvalues --  -10.23945  -3.17882  -1.92779  -1.92360  -1.92158
 Alpha  occ. eigenvalues --   -1.16531  -1.15502  -1.12211  -1.08145  -1.07032
 Alpha  occ. eigenvalues --   -1.06584  -1.03353  -1.02580  -1.01945  -1.01021
 Alpha  occ. eigenvalues --   -0.92782  -0.91340  -0.90678  -0.89934  -0.89424
 Alpha  occ. eigenvalues --   -0.89363  -0.87925  -0.87877  -0.87584  -0.86478
 Alpha  occ. eigenvalues --   -0.86437  -0.85120  -0.84681  -0.83380  -0.83152
 Alpha  occ. eigenvalues --   -0.82671  -0.81507  -0.81008  -0.80145  -0.79863
 Alpha  occ. eigenvalues --   -0.78782  -0.78234  -0.77481  -0.77028  -0.76307
 Alpha  occ. eigenvalues --   -0.76260  -0.75616  -0.74720  -0.74594  -0.74104
 Alpha  occ. eigenvalues --   -0.73136  -0.72387  -0.70870  -0.70088  -0.69510
 Alpha  occ. eigenvalues --   -0.68720  -0.68465  -0.67130  -0.66734  -0.65669
 Alpha  occ. eigenvalues --   -0.65389  -0.64653  -0.64445  -0.63984  -0.63797
 Alpha  occ. eigenvalues --   -0.63484  -0.63277  -0.61734  -0.61481  -0.59913
 Alpha  occ. eigenvalues --   -0.59792  -0.59242  -0.59144  -0.58565  -0.58137
 Alpha  occ. eigenvalues --   -0.56614  -0.56466  -0.56346  -0.55677  -0.55521
 Alpha  occ. eigenvalues --   -0.55246  -0.54992  -0.54716  -0.54248  -0.54148
 Alpha  occ. eigenvalues --   -0.53779  -0.53425  -0.53230  -0.53148  -0.53027
 Alpha  occ. eigenvalues --   -0.52863  -0.52677  -0.52173  -0.52000  -0.51818
 Alpha  occ. eigenvalues --   -0.51551  -0.51420  -0.51152  -0.50975  -0.50867
 Alpha  occ. eigenvalues --   -0.50508  -0.50265  -0.50170  -0.49925  -0.49434
 Alpha  occ. eigenvalues --   -0.49331  -0.49170  -0.49100  -0.48944  -0.48650
 Alpha  occ. eigenvalues --   -0.48594  -0.48165  -0.48080  -0.47810  -0.47590
 Alpha  occ. eigenvalues --   -0.47378  -0.46952  -0.46856  -0.46701  -0.46460
 Alpha  occ. eigenvalues --   -0.46341  -0.46092  -0.46002  -0.45627  -0.45598
 Alpha  occ. eigenvalues --   -0.45373  -0.45221  -0.45118  -0.45083  -0.44966
 Alpha  occ. eigenvalues --   -0.44815  -0.44575  -0.44431  -0.44400  -0.44252
 Alpha  occ. eigenvalues --   -0.43898  -0.43839  -0.43543  -0.43274  -0.42981
 Alpha  occ. eigenvalues --   -0.42734  -0.42662  -0.42194  -0.42110  -0.41865
 Alpha  occ. eigenvalues --   -0.41652  -0.41577  -0.41354  -0.41030  -0.40910
 Alpha  occ. eigenvalues --   -0.40856  -0.40735  -0.40494  -0.40381  -0.40033
 Alpha  occ. eigenvalues --   -0.39866  -0.39254  -0.39078  -0.39014  -0.38912
 Alpha  occ. eigenvalues --   -0.38175  -0.37752  -0.37591  -0.37500  -0.37341
 Alpha  occ. eigenvalues --   -0.37297  -0.36702  -0.36547  -0.36323  -0.36144
 Alpha  occ. eigenvalues --   -0.35937  -0.35877  -0.35507  -0.34279  -0.34176
 Alpha  occ. eigenvalues --   -0.34169  -0.33879  -0.32670  -0.32361  -0.31245
 Alpha  occ. eigenvalues --   -0.30735  -0.29638  -0.29289  -0.28845  -0.24097
 Alpha  occ. eigenvalues --   -0.20967
 Alpha virt. eigenvalues --   -0.08645  -0.01810  -0.00432   0.01811   0.02199
 Alpha virt. eigenvalues --    0.04349   0.05034   0.05203   0.05723   0.06859
 Alpha virt. eigenvalues --    0.07849   0.08314   0.08612   0.08916   0.09242

 Mulliken charges:
               1
     1  Mg   0.820127
     2  C   -0.006866
     3  C   -0.038465
     4  C   -0.008537
     5  C   -0.075014
     6  N   -0.263940
     7  C   -0.043795
     8  C   -0.021197
     9  C   -0.087240
    10  C    0.069773
    11  C    0.063423
    12  C    0.067934
    13  C    0.101280
    14  C    0.114940
    15  O   -0.217744
    16  O   -0.354945
    17  N   -0.416362
    18  C    0.094903
    19  C   -0.104926
    20  C   -0.004919
    21  C    0.156594
    22  C    0.107053
    23  C    0.010117
    24  O   -0.235950
    25  C    0.026563
    26  N   -0.304069
    27  C   -0.005592
    28  C   -0.049141
    29  C   -0.009302
    30  C    0.038111
    31  C    0.062101
    32  C    0.042694
    33  C    0.025183
    34  N   -0.358490
    35  C    0.101147
    36  C   -0.186437
    37  C   -0.073947
    38  C    0.189807
    39  C    0.110956
    40  C    0.123863
    41  O   -0.132695
    42  C   -0.040841
    43  C    0.181100
    44  O   -0.231418
    45  O   -0.333125
    46  C    0.186603
    47  C    0.282619
    48  C   -0.136348
    49  C   -0.189246
    50  C    0.071739
    51  C    0.103440
    52  C    0.019137
    53  C    0.050957
    54  C   -0.139279
    55  C    0.049877
    56  C    0.053357
    57  C   -0.019753
    58  C    0.051328
    59  C   -0.111860
    60  C    0.039536
    61  C   -0.000580
    62  C    0.037856
    63  C    0.047114
    64  C   -0.148053
    65  C    0.056456
    66  C    0.040020
    67  H   -0.034261
    68  H   -0.006455
    69  H   -0.019935
    70  H    0.053082
    71  H    0.012549
    72  H    0.009697
    73  H    0.010826
    74  H    0.017342
    75  H    0.008109
    76  H    0.001362
    77  H    0.019655
    78  H    0.044361
    79  H    0.028276
    80  H    0.003322
    81  H    0.000117
    82  H    0.052192
    83  H    0.012162
    84  H    0.012409
    85  H    0.019385
    86  H   -0.001249
    87  H    0.018849
    88  H    0.014685
    89  H    0.018941
    90  H    0.008120
    91  H   -0.003891
    92  H    0.025553
    93  H    0.010954
    94  H    0.009001
    95  H    0.023606
    96  H    0.045531
    97  H    0.045691
    98  H    0.041545
    99  H    0.037018
   100  H    0.047916
   101  H    0.034716
   102  H    0.063948
   103  H    0.037308
   104  H   -0.004354
   105  H    0.001224
   106  H    0.026289
   107  H    0.026288
   108  H    0.012510
   109  H    0.002770
   110  H   -0.001850
   111  H   -0.006873
   112  H   -0.017379
   113  H   -0.022291
   114  H   -0.012682
   115  H    0.002880
   116  H    0.011727
   117  H    0.004603
   118  H   -0.002316
   119  H    0.007850
   120  H    0.012504
   121  H    0.000051
   122  H   -0.005265
   123  H   -0.015973
   124  H   -0.008218
   125  H    0.002946
   126  H    0.001970
   127  H    0.008218
   128  H    0.000656
   129  H   -0.014264
   130  H    0.004345
   131  H    0.000042
   132  H    0.005275
   133  H   -0.009302
   134  H    0.000171
   135  H   -0.009829
   136  H    0.012752
   137  H    0.006829
   138  H    0.006354
   139  H    0.005809
   140  H   -0.003544
 Sum of Mulliken charges =  -0.00000

 Dipole moment (field-independent basis, Debye):
    X=              3.2389    Y=             -0.3096    Z=             -1.1291  Tot=              3.4440
 Quadrupole moment (field-independent basis, Debye-Ang):
   XX=           -372.5550   YY=           -442.9610   ZZ=           -402.9931
   XY=             -5.6404   XZ=              7.0431   YZ=              3.7000

 Normal termination of Gaussian 16 at Wed May  4 01:12:28 2022.
