 Gaussian 16, Revision A.03,
 Gaussian 16:  ES64L-G16RevA.03 25-Dec-2016

 ---------------------------------
 #p PBE1PBE/Def2SVP td=(nstates=5)
 ---------------------------------

 -----------------------------------------------------
 step_1201_chromophore_6 TDDFT with PBE1PBE functional
 -----------------------------------------------------
 Symbolic Z-matrix:
 Charge =  0 Multiplicity = 1

                         Standard orientation:
 ---------------------------------------------------------------------
 Center     Atomic      Atomic             Coordinates (Angstroms)
 Number     Number       Type             X           Y           Z
 ---------------------------------------------------------------------
      1         12           0       -5.221343    1.208732   -0.333127
      2          6           0       -4.365607   -2.207601   -0.248014
      3          6           0       -1.838842    1.953040   -0.226154
      4          6           0       -6.079579    4.400951    0.157359
      5          6           0       -8.713762    0.255105    0.173731
      6          7           0       -3.349536   -0.083662    0.140200
      7          6           0       -3.214749   -1.409064   -0.130660
      8          6           0       -1.684594   -1.934784   -0.139189
      9          6           0       -0.930063   -0.486306    0.000837
     10          6           0       -2.131019    0.567959    0.037299
     11          6           0       -0.041810   -0.325340    1.217344
     12          6           0       -1.293864   -2.765001   -1.357887
     13          6           0       -0.802027   -4.125267   -1.216022
     14          6           0        0.098003   -4.407311    0.021915
     15          8           0       -0.043251   -5.339634    0.796495
     16          8           0        1.101485   -3.472960    0.127916
     17          7           0       -4.069153    2.948999   -0.311680
     18          6           0       -2.704800    3.101945   -0.336447
     19          6           0       -2.423327    4.498883   -0.406298
     20          6           0       -3.642095    5.191101   -0.224930
     21          6           0       -4.693243    4.217784   -0.155072
     22          6           0       -1.066547    4.962084   -0.232585
     23          6           0       -3.825081    6.679974   -0.062774
     24          8           0       -4.957802    7.218132    0.030872
     25          6           0       -2.551116    7.707742   -0.243150
     26          7           0       -7.108880    2.164078    0.012213
     27          6           0       -7.109050    3.522845    0.302729
     28          6           0       -8.503780    4.022015    0.806549
     29          6           0       -9.370230    2.726873    0.509592
     30          6           0       -8.354325    1.654303    0.232917
     31          6           0       -8.540623    4.432071    2.325434
     32          6           0      -10.534207    2.871431   -0.445446
     33          6           0      -10.450856    2.113073   -1.721242
     34          7           0       -6.350861   -0.523507   -0.064431
     35          6           0       -7.716631   -0.805225    0.001088
     36          6           0       -7.911648   -2.320572   -0.124717
     37          6           0       -6.629269   -2.871519   -0.214729
     38          6           0       -5.696273   -1.732757   -0.146698
     39          6           0       -9.187047   -3.049354   -0.219077
     40          6           0       -5.950506   -4.206399   -0.348879
     41          8           0       -6.385433   -5.332844   -0.430957
     42          6           0       -4.490380   -3.713792   -0.463640
     43          6           0       -3.769711   -4.433481    0.726287
     44          8           0       -3.766823   -3.959733    1.857315
     45          8           0       -3.213095   -5.660972    0.466834
     46          6           0       -2.782063   -6.404977    1.717360
     47          6           0        2.164613   -3.730630    1.149589
     48          6           0        3.430018   -3.885882    0.334248
     49          6           0        4.678702   -3.776596    0.843910
     50          6           0        4.928038   -3.809733    2.319914
     51          6           0        5.939672   -3.841961    0.006331
     52          6           0        5.923061   -2.868303   -1.234013
     53          6           0        6.909231   -1.737141   -1.227364
     54          6           0        7.851253   -1.692836   -2.341626
     55          6           0        8.950780   -2.742992   -2.088616
     56          6           0        8.500356   -0.221407   -2.535469
     57          6           0        9.230461    0.385812   -1.298275
     58          6           0       10.546903    1.087921   -1.699857
     59          6           0       11.100990    2.066244   -0.647476
     60          6           0       10.669825    3.533962   -0.955473
     61          6           0       12.648154    1.996444   -0.496853
     62          6           0       13.197367    2.395810    0.871993
     63          6           0       14.543906    1.720450    1.139632
     64          6           0       15.749320    2.714836    1.422675
     65          6           0       15.952754    3.110127    2.883478
     66          6           0       16.977032    2.030979    0.858980
     67          1           0       -0.779477    2.214383   -0.269092
     68          1           0       -6.518667    5.358762    0.444103
     69          1           0       -9.753331   -0.063817    0.268676
     70          1           0       -1.566780   -2.599711    0.716690
     71          1           0       -0.196414   -0.270745   -0.774819
     72          1           0        0.989902   -0.104207    0.942517
     73          1           0       -0.095733   -1.245272    1.800655
     74          1           0       -0.392890    0.493710    1.844814
     75          1           0       -0.580396   -2.287709   -2.030751
     76          1           0       -2.235036   -2.797961   -1.907518
     77          1           0       -0.039218   -4.187769   -1.991987
     78          1           0       -1.557644   -4.905469   -1.307812
     79          1           0       -0.940369    5.489509    0.712507
     80          1           0       -0.720164    5.676798   -0.979103
     81          1           0       -0.335261    4.160245   -0.330806
     82          1           0       -2.102912    7.679204   -1.236671
     83          1           0       -1.891894    7.493671    0.597433
     84          1           0       -2.771932    8.740975    0.025057
     85          1           0       -8.879723    4.864165    0.224564
     86          1           0       -9.858609    2.387179    1.423636
     87          1           0       -7.565049    4.791676    2.652729
     88          1           0       -8.767292    3.617185    3.013580
     89          1           0       -9.262699    5.232124    2.486008
     90          1           0      -10.704074    3.940999   -0.567697
     91          1           0      -11.348414    2.397677    0.103740
     92          1           0       -9.428450    2.052358   -2.093991
     93          1           0      -11.007574    2.671291   -2.474669
     94          1           0      -10.853206    1.104252   -1.631653
     95          1           0       -9.805513   -2.303676   -0.718377
     96          1           0       -9.614804   -3.338645    0.741502
     97          1           0       -8.885586   -3.936398   -0.776340
     98          1           0       -4.095200   -4.119035   -1.395649
     99          1           0       -3.588719   -6.923799    2.234502
    100          1           0       -2.215923   -5.829934    2.450217
    101          1           0       -2.073236   -7.180804    1.425940
    102          1           0        2.059302   -4.623480    1.765869
    103          1           0        2.336525   -2.852022    1.771910
    104          1           0        3.349804   -4.098399   -0.731782
    105          1           0        4.029526   -4.264404    2.738918
    106          1           0        5.037381   -2.819305    2.760049
    107          1           0        5.806022   -4.393784    2.595879
    108          1           0        5.877571   -4.819531   -0.471431
    109          1           0        6.893245   -3.725118    0.520705
    110          1           0        4.953279   -2.369710   -1.214967
    111          1           0        5.882402   -3.445501   -2.156856
    112          1           0        7.558428   -1.728038   -0.351386
    113          1           0        6.352209   -0.806330   -1.125982
    114          1           0        7.296625   -1.967076   -3.238689
    115          1           0        9.878774   -2.196125   -1.920754
    116          1           0        9.088360   -3.399345   -2.948162
    117          1           0        8.758391   -3.324998   -1.186910
    118          1           0        7.667458    0.466461   -2.685119
    119          1           0        9.149849   -0.367090   -3.398466
    120          1           0        9.529388   -0.381271   -0.584213
    121          1           0        8.595309    1.168882   -0.882591
    122          1           0       10.347241    1.497536   -2.690037
    123          1           0       11.283180    0.303490   -1.879306
    124          1           0       10.602076    1.947110    0.314568
    125          1           0       11.470528    4.231962   -0.714697
    126          1           0        9.851135    3.820436   -0.295255
    127          1           0       10.361092    3.617680   -1.997798
    128          1           0       13.076621    2.551396   -1.332435
    129          1           0       12.961601    0.963447   -0.648383
    130          1           0       12.481195    2.229570    1.677144
    131          1           0       13.367029    3.448139    0.640104
    132          1           0       14.842521    0.938867    0.440862
    133          1           0       14.254272    1.253630    2.081360
    134          1           0       15.624671    3.678604    0.930798
    135          1           0       15.085424    2.692961    3.393860
    136          1           0       15.945472    4.178163    3.103592
    137          1           0       16.814652    2.636958    3.354399
    138          1           0       17.701377    2.787807    0.561189
    139          1           0       16.812577    1.300131    0.067611
    140          1           0       17.433959    1.441826    1.654712
 ---------------------------------------------------------------------

 SCF Done:  E(RPBE1PBE) =  -3005.30759209     A.U. after   16 cycles

 Excitation energies and oscillator strengths:

 Excited State   1:      Singlet-A      1.7997 eV  688.90 nm  f=0.3605  <S**2>=0.000
     245 -> 248        0.16982
     246 -> 247        0.69423
     246 <- 247       -0.10902
 This state for optimization and/or second-order correction.
 Total Energy, E(TD-HF/TD-DFT) =  -3005.24145308
 Copying the excited state density for this state as the 1-particle RhoCI density.

 Excited State   2:      Singlet-A      2.1990 eV  563.82 nm  f=0.0979  <S**2>=0.000
     245 -> 247        0.64722
     246 -> 248       -0.27291

 Excited State   3:      Singlet-A      2.8887 eV  429.21 nm  f=0.0000  <S**2>=0.000
     242 -> 247        0.13380
     243 -> 247        0.65587
     243 -> 249        0.11993
     243 -> 250        0.11181

 Excited State   4:      Singlet-A      2.9843 eV  415.45 nm  f=0.0011  <S**2>=0.000
     242 -> 247        0.66574
     243 -> 247       -0.14108
     246 -> 248        0.15108

 Excited State   5:      Singlet-A      3.2305 eV  383.80 nm  f=0.1856  <S**2>=0.000
     239 -> 247        0.13131
     241 -> 247        0.40067
     245 -> 247        0.16500
     246 -> 248        0.45272
     246 -> 249       -0.21831
     246 -> 250        0.10361

 The electronic state is 1-A.
 Alpha  occ. eigenvalues --  -46.92943 -19.26641 -19.25749 -19.21183 -19.20625
 Alpha  occ. eigenvalues --  -19.19521 -19.18613 -14.42029 -14.41476 -14.40093
 Alpha  occ. eigenvalues --  -14.39093 -10.37071 -10.36413 -10.33893 -10.32596
 Alpha  occ. eigenvalues --  -10.30422 -10.29736 -10.29416 -10.29383 -10.29293
 Alpha  occ. eigenvalues --  -10.27994 -10.27897 -10.27866 -10.27712 -10.27355
 Alpha  occ. eigenvalues --  -10.27044 -10.26837 -10.26712 -10.26254 -10.25854
 Alpha  occ. eigenvalues --  -10.25734 -10.25712 -10.25394 -10.24900 -10.24718
 Alpha  occ. eigenvalues --  -10.24622 -10.24452 -10.24288 -10.24185 -10.23988
 Alpha  occ. eigenvalues --  -10.23711 -10.23566 -10.23465 -10.23458 -10.23388
 Alpha  occ. eigenvalues --  -10.23325 -10.23254 -10.23235 -10.23218 -10.23158
 Alpha  occ. eigenvalues --  -10.23143 -10.23018 -10.22981 -10.22761 -10.22528
 Alpha  occ. eigenvalues --  -10.22521 -10.22322 -10.22229 -10.22204 -10.22191
 Alpha  occ. eigenvalues --  -10.22082 -10.21964 -10.21706 -10.21697 -10.21492
 Alpha  occ. eigenvalues --  -10.21348  -3.14895  -1.87730  -1.87291  -1.87093
 Alpha  occ. eigenvalues --   -1.11273  -1.10092  -1.06637  -1.02951  -1.02057
 Alpha  occ. eigenvalues --   -1.01248  -0.97819  -0.97148  -0.96570  -0.95909
 Alpha  occ. eigenvalues --   -0.86896  -0.85463  -0.84795  -0.84054  -0.83671
 Alpha  occ. eigenvalues --   -0.83496  -0.82269  -0.82007  -0.81768  -0.81056
 Alpha  occ. eigenvalues --   -0.80751  -0.79431  -0.78898  -0.77636  -0.77352
 Alpha  occ. eigenvalues --   -0.76941  -0.75756  -0.75299  -0.74336  -0.74086
 Alpha  occ. eigenvalues --   -0.73136  -0.72414  -0.71896  -0.71301  -0.70488
 Alpha  occ. eigenvalues --   -0.70401  -0.69725  -0.69070  -0.68847  -0.68300
 Alpha  occ. eigenvalues --   -0.67452  -0.66745  -0.65376  -0.64360  -0.63817
 Alpha  occ. eigenvalues --   -0.62969  -0.62865  -0.61434  -0.61250  -0.60136
 Alpha  occ. eigenvalues --   -0.59591  -0.59121  -0.58965  -0.58561  -0.58251
 Alpha  occ. eigenvalues --   -0.57669  -0.57431  -0.55983  -0.55938  -0.54448
 Alpha  occ. eigenvalues --   -0.54139  -0.53988  -0.53650  -0.53081  -0.52391
 Alpha  occ. eigenvalues --   -0.51315  -0.50899  -0.50759  -0.50205  -0.50063
 Alpha  occ. eigenvalues --   -0.49567  -0.49509  -0.49231  -0.48713  -0.48691
 Alpha  occ. eigenvalues --   -0.48289  -0.47881  -0.47748  -0.47619  -0.47546
 Alpha  occ. eigenvalues --   -0.47413  -0.47145  -0.46714  -0.46508  -0.46315
 Alpha  occ. eigenvalues --   -0.46187  -0.45932  -0.45752  -0.45448  -0.45173
 Alpha  occ. eigenvalues --   -0.45129  -0.44840  -0.44722  -0.44496  -0.44021
 Alpha  occ. eigenvalues --   -0.43929  -0.43796  -0.43732  -0.43548  -0.43408
 Alpha  occ. eigenvalues --   -0.43143  -0.42835  -0.42730  -0.42560  -0.42275
 Alpha  occ. eigenvalues --   -0.41958  -0.41545  -0.41464  -0.41428  -0.41195
 Alpha  occ. eigenvalues --   -0.41023  -0.41000  -0.40705  -0.40454  -0.40206
 Alpha  occ. eigenvalues --   -0.40108  -0.39918  -0.39780  -0.39721  -0.39656
 Alpha  occ. eigenvalues --   -0.39478  -0.39275  -0.39098  -0.39077  -0.38922
 Alpha  occ. eigenvalues --   -0.38649  -0.38571  -0.38268  -0.38065  -0.37842
 Alpha  occ. eigenvalues --   -0.37576  -0.37458  -0.37093  -0.36872  -0.36784
 Alpha  occ. eigenvalues --   -0.36461  -0.36270  -0.36124  -0.35882  -0.35813
 Alpha  occ. eigenvalues --   -0.35679  -0.35627  -0.35416  -0.35147  -0.34830
 Alpha  occ. eigenvalues --   -0.34737  -0.34194  -0.33969  -0.33855  -0.33737
 Alpha  occ. eigenvalues --   -0.32968  -0.32569  -0.32502  -0.32386  -0.32362
 Alpha  occ. eigenvalues --   -0.32226  -0.31572  -0.31441  -0.31321  -0.30974
 Alpha  occ. eigenvalues --   -0.30958  -0.30781  -0.30445  -0.29369  -0.29226
 Alpha  occ. eigenvalues --   -0.29005  -0.28664  -0.28197  -0.27054  -0.26817
 Alpha  occ. eigenvalues --   -0.26167  -0.24915  -0.24646  -0.24559  -0.20979
 Alpha  occ. eigenvalues --   -0.18594
 Alpha virt. eigenvalues --   -0.11182  -0.05378  -0.04573  -0.02643  -0.00566
 Alpha virt. eigenvalues --   -0.00134   0.00589   0.00785   0.01181   0.03361
 Alpha virt. eigenvalues --    0.03806   0.04520   0.05132   0.05478   0.05647

 Mulliken charges:
               1
     1  Mg   0.963906
     2  C   -0.015537
     3  C   -0.038348
     4  C   -0.006436
     5  C   -0.060857
     6  N   -0.361295
     7  C    0.026483
     8  C   -0.087090
     9  C   -0.158387
    10  C    0.100344
    11  C    0.009362
    12  C    0.024411
    13  C    0.016483
    14  C    0.183405
    15  O   -0.253273
    16  O   -0.381876
    17  N   -0.527581
    18  C    0.130967
    19  C   -0.134506
    20  C   -0.059375
    21  C    0.195001
    22  C    0.043901
    23  C    0.063742
    24  O   -0.266846
    25  C   -0.047916
    26  N   -0.406110
    27  C    0.027969
    28  C   -0.133114
    29  C   -0.067895
    30  C    0.065699
    31  C    0.006867
    32  C   -0.021269
    33  C   -0.050322
    34  N   -0.476339
    35  C    0.118274
    36  C   -0.206980
    37  C   -0.109604
    38  C    0.223167
    39  C    0.052528
    40  C    0.211148
    41  O   -0.183174
    42  C   -0.145425
    43  C    0.268261
    44  O   -0.262043
    45  O   -0.365555
    46  C    0.130653
    47  C    0.235076
    48  C   -0.146638
    49  C   -0.230207
    50  C    0.005308
    51  C    0.041386
    52  C   -0.040542
    53  C   -0.002114
    54  C   -0.224492
    55  C   -0.011675
    56  C   -0.005095
    57  C   -0.086153
    58  C   -0.000364
    59  C   -0.195696
    60  C   -0.016251
    61  C   -0.059005
    62  C   -0.023693
    63  C   -0.010631
    64  C   -0.239209
    65  C   -0.001276
    66  C   -0.021793
    67  H   -0.001485
    68  H    0.025828
    69  H    0.010541
    70  H    0.092022
    71  H    0.047606
    72  H    0.036430
    73  H    0.040621
    74  H    0.044997
    75  H    0.037612
    76  H    0.037401
    77  H    0.054612
    78  H    0.076432
    79  H    0.058481
    80  H    0.034531
    81  H    0.030642
    82  H    0.077844
    83  H    0.039415
    84  H    0.041175
    85  H    0.054731
    86  H    0.037302
    87  H    0.046165
    88  H    0.042580
    89  H    0.047122
    90  H    0.038894
    91  H    0.029623
    92  H    0.056406
    93  H    0.039822
    94  H    0.036819
    95  H    0.049707
    96  H    0.071372
    97  H    0.072550
    98  H    0.076605
    99  H    0.059599
   100  H    0.068704
   101  H    0.055780
   102  H    0.089102
   103  H    0.063845
   104  H    0.025871
   105  H    0.029752
   106  H    0.054154
   107  H    0.053250
   108  H    0.047649
   109  H    0.031740
   110  H    0.032284
   111  H    0.023591
   112  H    0.015700
   113  H    0.010805
   114  H    0.025434
   115  H    0.032426
   116  H    0.039609
   117  H    0.033874
   118  H    0.031546
   119  H    0.040019
   120  H    0.044579
   121  H    0.033740
   122  H    0.026718
   123  H    0.017350
   124  H    0.029062
   125  H    0.030883
   126  H    0.029069
   127  H    0.035146
   128  H    0.033701
   129  H    0.019763
   130  H    0.034481
   131  H    0.033530
   132  H    0.034656
   133  H    0.024569
   134  H    0.037452
   135  H    0.018329
   136  H    0.039801
   137  H    0.033132
   138  H    0.034792
   139  H    0.033047
   140  H    0.024704
 Sum of Mulliken charges =  -0.00000

 Dipole moment (field-independent basis, Debye):
    X=              3.5887    Y=              0.4952    Z=             -1.0605  Tot=              3.7747
 Quadrupole moment (field-independent basis, Debye-Ang):
   XX=           -370.7371   YY=           -438.7919   ZZ=           -400.4915
   XY=             -9.5605   XZ=              6.6089   YZ=              3.9581

 Normal termination of Gaussian 16 at Wed May  4 01:35:29 2022.
