 Gaussian 16, Revision A.03,
 Gaussian 16:  ES64L-G16RevA.03 25-Dec-2016

 --------------------------------
 #p wB97XD/Def2SVP td=(nstates=5)
 --------------------------------

 ----------------------------------------------------
 step_1201_chromophore_6 TDDFT with wB97XD functional
 ----------------------------------------------------
 Symbolic Z-matrix:
 Charge =  0 Multiplicity = 1

                         Standard orientation:
 ---------------------------------------------------------------------
 Center     Atomic      Atomic             Coordinates (Angstroms)
 Number     Number       Type             X           Y           Z
 ---------------------------------------------------------------------
      1         12           0       -5.221343    1.208732   -0.333127
      2          6           0       -4.365607   -2.207601   -0.248014
      3          6           0       -1.838842    1.953040   -0.226154
      4          6           0       -6.079579    4.400951    0.157359
      5          6           0       -8.713762    0.255105    0.173731
      6          7           0       -3.349536   -0.083662    0.140200
      7          6           0       -3.214749   -1.409064   -0.130660
      8          6           0       -1.684594   -1.934784   -0.139189
      9          6           0       -0.930063   -0.486306    0.000837
     10          6           0       -2.131019    0.567959    0.037299
     11          6           0       -0.041810   -0.325340    1.217344
     12          6           0       -1.293864   -2.765001   -1.357887
     13          6           0       -0.802027   -4.125267   -1.216022
     14          6           0        0.098003   -4.407311    0.021915
     15          8           0       -0.043251   -5.339634    0.796495
     16          8           0        1.101485   -3.472960    0.127916
     17          7           0       -4.069153    2.948999   -0.311680
     18          6           0       -2.704800    3.101945   -0.336447
     19          6           0       -2.423327    4.498883   -0.406298
     20          6           0       -3.642095    5.191101   -0.224930
     21          6           0       -4.693243    4.217784   -0.155072
     22          6           0       -1.066547    4.962084   -0.232585
     23          6           0       -3.825081    6.679974   -0.062774
     24          8           0       -4.957802    7.218132    0.030872
     25          6           0       -2.551116    7.707742   -0.243150
     26          7           0       -7.108880    2.164078    0.012213
     27          6           0       -7.109050    3.522845    0.302729
     28          6           0       -8.503780    4.022015    0.806549
     29          6           0       -9.370230    2.726873    0.509592
     30          6           0       -8.354325    1.654303    0.232917
     31          6           0       -8.540623    4.432071    2.325434
     32          6           0      -10.534207    2.871431   -0.445446
     33          6           0      -10.450856    2.113073   -1.721242
     34          7           0       -6.350861   -0.523507   -0.064431
     35          6           0       -7.716631   -0.805225    0.001088
     36          6           0       -7.911648   -2.320572   -0.124717
     37          6           0       -6.629269   -2.871519   -0.214729
     38          6           0       -5.696273   -1.732757   -0.146698
     39          6           0       -9.187047   -3.049354   -0.219077
     40          6           0       -5.950506   -4.206399   -0.348879
     41          8           0       -6.385433   -5.332844   -0.430957
     42          6           0       -4.490380   -3.713792   -0.463640
     43          6           0       -3.769711   -4.433481    0.726287
     44          8           0       -3.766823   -3.959733    1.857315
     45          8           0       -3.213095   -5.660972    0.466834
     46          6           0       -2.782063   -6.404977    1.717360
     47          6           0        2.164613   -3.730630    1.149589
     48          6           0        3.430018   -3.885882    0.334248
     49          6           0        4.678702   -3.776596    0.843910
     50          6           0        4.928038   -3.809733    2.319914
     51          6           0        5.939672   -3.841961    0.006331
     52          6           0        5.923061   -2.868303   -1.234013
     53          6           0        6.909231   -1.737141   -1.227364
     54          6           0        7.851253   -1.692836   -2.341626
     55          6           0        8.950780   -2.742992   -2.088616
     56          6           0        8.500356   -0.221407   -2.535469
     57          6           0        9.230461    0.385812   -1.298275
     58          6           0       10.546903    1.087921   -1.699857
     59          6           0       11.100990    2.066244   -0.647476
     60          6           0       10.669825    3.533962   -0.955473
     61          6           0       12.648154    1.996444   -0.496853
     62          6           0       13.197367    2.395810    0.871993
     63          6           0       14.543906    1.720450    1.139632
     64          6           0       15.749320    2.714836    1.422675
     65          6           0       15.952754    3.110127    2.883478
     66          6           0       16.977032    2.030979    0.858980
     67          1           0       -0.779477    2.214383   -0.269092
     68          1           0       -6.518667    5.358762    0.444103
     69          1           0       -9.753331   -0.063817    0.268676
     70          1           0       -1.566780   -2.599711    0.716690
     71          1           0       -0.196414   -0.270745   -0.774819
     72          1           0        0.989902   -0.104207    0.942517
     73          1           0       -0.095733   -1.245272    1.800655
     74          1           0       -0.392890    0.493710    1.844814
     75          1           0       -0.580396   -2.287709   -2.030751
     76          1           0       -2.235036   -2.797961   -1.907518
     77          1           0       -0.039218   -4.187769   -1.991987
     78          1           0       -1.557644   -4.905469   -1.307812
     79          1           0       -0.940369    5.489509    0.712507
     80          1           0       -0.720164    5.676798   -0.979103
     81          1           0       -0.335261    4.160245   -0.330806
     82          1           0       -2.102912    7.679204   -1.236671
     83          1           0       -1.891894    7.493671    0.597433
     84          1           0       -2.771932    8.740975    0.025057
     85          1           0       -8.879723    4.864165    0.224564
     86          1           0       -9.858609    2.387179    1.423636
     87          1           0       -7.565049    4.791676    2.652729
     88          1           0       -8.767292    3.617185    3.013580
     89          1           0       -9.262699    5.232124    2.486008
     90          1           0      -10.704074    3.940999   -0.567697
     91          1           0      -11.348414    2.397677    0.103740
     92          1           0       -9.428450    2.052358   -2.093991
     93          1           0      -11.007574    2.671291   -2.474669
     94          1           0      -10.853206    1.104252   -1.631653
     95          1           0       -9.805513   -2.303676   -0.718377
     96          1           0       -9.614804   -3.338645    0.741502
     97          1           0       -8.885586   -3.936398   -0.776340
     98          1           0       -4.095200   -4.119035   -1.395649
     99          1           0       -3.588719   -6.923799    2.234502
    100          1           0       -2.215923   -5.829934    2.450217
    101          1           0       -2.073236   -7.180804    1.425940
    102          1           0        2.059302   -4.623480    1.765869
    103          1           0        2.336525   -2.852022    1.771910
    104          1           0        3.349804   -4.098399   -0.731782
    105          1           0        4.029526   -4.264404    2.738918
    106          1           0        5.037381   -2.819305    2.760049
    107          1           0        5.806022   -4.393784    2.595879
    108          1           0        5.877571   -4.819531   -0.471431
    109          1           0        6.893245   -3.725118    0.520705
    110          1           0        4.953279   -2.369710   -1.214967
    111          1           0        5.882402   -3.445501   -2.156856
    112          1           0        7.558428   -1.728038   -0.351386
    113          1           0        6.352209   -0.806330   -1.125982
    114          1           0        7.296625   -1.967076   -3.238689
    115          1           0        9.878774   -2.196125   -1.920754
    116          1           0        9.088360   -3.399345   -2.948162
    117          1           0        8.758391   -3.324998   -1.186910
    118          1           0        7.667458    0.466461   -2.685119
    119          1           0        9.149849   -0.367090   -3.398466
    120          1           0        9.529388   -0.381271   -0.584213
    121          1           0        8.595309    1.168882   -0.882591
    122          1           0       10.347241    1.497536   -2.690037
    123          1           0       11.283180    0.303490   -1.879306
    124          1           0       10.602076    1.947110    0.314568
    125          1           0       11.470528    4.231962   -0.714697
    126          1           0        9.851135    3.820436   -0.295255
    127          1           0       10.361092    3.617680   -1.997798
    128          1           0       13.076621    2.551396   -1.332435
    129          1           0       12.961601    0.963447   -0.648383
    130          1           0       12.481195    2.229570    1.677144
    131          1           0       13.367029    3.448139    0.640104
    132          1           0       14.842521    0.938867    0.440862
    133          1           0       14.254272    1.253630    2.081360
    134          1           0       15.624671    3.678604    0.930798
    135          1           0       15.085424    2.692961    3.393860
    136          1           0       15.945472    4.178163    3.103592
    137          1           0       16.814652    2.636958    3.354399
    138          1           0       17.701377    2.787807    0.561189
    139          1           0       16.812577    1.300131    0.067611
    140          1           0       17.433959    1.441826    1.654712
 ---------------------------------------------------------------------

 SCF Done:  E(RwB97XD) =  -3007.81908914     A.U. after   19 cycles

 Excitation energies and oscillator strengths:

 Excited State   1:      Singlet-A      1.6553 eV  749.03 nm  f=0.3701  <S**2>=0.000
     245 -> 248       -0.17460
     246 -> 247        0.68547
     245 <- 248       -0.11262
 This state for optimization and/or second-order correction.
 Total Energy, E(TD-HF/TD-DFT) =  -3007.75825931
 Copying the excited state density for this state as the 1-particle RhoCI density.

 Excited State   2:      Singlet-A      2.1648 eV  572.74 nm  f=0.1005  <S**2>=0.000
     245 -> 247        0.63169
     246 -> 248        0.30414

 Excited State   3:      Singlet-A      3.4035 eV  364.29 nm  f=0.1676  <S**2>=0.000
     244 -> 247        0.52083
     244 -> 249        0.10109
     245 -> 247        0.17345
     246 -> 248       -0.40336

 Excited State   4:      Singlet-A      3.4617 eV  358.16 nm  f=0.3438  <S**2>=0.000
     240 -> 247       -0.10681
     241 -> 247       -0.40801
     244 -> 247        0.30182
     245 -> 247       -0.18247
     246 -> 248        0.41178

 Excited State   5:      Singlet-A      3.5232 eV  351.91 nm  f=0.0131  <S**2>=0.000
     242 -> 247        0.44552
     242 -> 248       -0.18028
     242 -> 249        0.26555
     242 -> 250        0.38103

 The electronic state is 1-A.
 Alpha  occ. eigenvalues --  -46.95853 -19.31234 -19.30504 -19.26472 -19.25353
 Alpha  occ. eigenvalues --  -19.24424 -19.22993 -14.47106 -14.46521 -14.45257
 Alpha  occ. eigenvalues --  -14.43701 -10.43913 -10.43432 -10.41187 -10.39015
 Alpha  occ. eigenvalues --  -10.36940 -10.36400 -10.36339 -10.35930 -10.35312
 Alpha  occ. eigenvalues --  -10.34841 -10.34541 -10.34054 -10.33775 -10.33668
 Alpha  occ. eigenvalues --  -10.33647 -10.33216 -10.32713 -10.32709 -10.32261
 Alpha  occ. eigenvalues --  -10.32002 -10.31841 -10.31589 -10.31432 -10.30981
 Alpha  occ. eigenvalues --  -10.30828 -10.30786 -10.30727 -10.30565 -10.30479
 Alpha  occ. eigenvalues --  -10.29959 -10.29942 -10.29919 -10.29778 -10.29622
 Alpha  occ. eigenvalues --  -10.29607 -10.29595 -10.29508 -10.29421 -10.29398
 Alpha  occ. eigenvalues --  -10.29321 -10.29311 -10.29286 -10.29134 -10.28900
 Alpha  occ. eigenvalues --  -10.28801 -10.28709 -10.28643 -10.28581 -10.28549
 Alpha  occ. eigenvalues --  -10.28427 -10.28385 -10.28107 -10.28100 -10.27860
 Alpha  occ. eigenvalues --  -10.27759  -3.21688  -1.95268  -1.94830  -1.94628
 Alpha  occ. eigenvalues --   -1.18706  -1.17696  -1.14550  -1.10345  -1.09149
 Alpha  occ. eigenvalues --   -1.08819  -1.05404  -1.04587  -1.03994  -1.02978
 Alpha  occ. eigenvalues --   -0.94840  -0.93155  -0.92513  -0.91719  -0.91290
 Alpha  occ. eigenvalues --   -0.91148  -0.89919  -0.89649  -0.89505  -0.88358
 Alpha  occ. eigenvalues --   -0.88303  -0.86990  -0.86509  -0.85252  -0.85095
 Alpha  occ. eigenvalues --   -0.84593  -0.83382  -0.82945  -0.81992  -0.81838
 Alpha  occ. eigenvalues --   -0.80687  -0.80149  -0.79356  -0.78933  -0.78257
 Alpha  occ. eigenvalues --   -0.78088  -0.77399  -0.76573  -0.76501  -0.75945
 Alpha  occ. eigenvalues --   -0.75063  -0.74397  -0.72851  -0.72019  -0.71462
 Alpha  occ. eigenvalues --   -0.70592  -0.70495  -0.68992  -0.68665  -0.67628
 Alpha  occ. eigenvalues --   -0.67235  -0.66602  -0.66463  -0.66006  -0.65777
 Alpha  occ. eigenvalues --   -0.65301  -0.65089  -0.63588  -0.63549  -0.61934
 Alpha  occ. eigenvalues --   -0.61688  -0.61249  -0.61064  -0.60567  -0.60140
 Alpha  occ. eigenvalues --   -0.58590  -0.58416  -0.58290  -0.57611  -0.57475
 Alpha  occ. eigenvalues --   -0.57081  -0.56908  -0.56715  -0.56199  -0.56071
 Alpha  occ. eigenvalues --   -0.55719  -0.55285  -0.55125  -0.55028  -0.54980
 Alpha  occ. eigenvalues --   -0.54813  -0.54644  -0.54098  -0.53886  -0.53826
 Alpha  occ. eigenvalues --   -0.53402  -0.53301  -0.53071  -0.52954  -0.52765
 Alpha  occ. eigenvalues --   -0.52430  -0.52173  -0.52066  -0.51840  -0.51366
 Alpha  occ. eigenvalues --   -0.51254  -0.51048  -0.51019  -0.50838  -0.50514
 Alpha  occ. eigenvalues --   -0.50452  -0.50117  -0.49973  -0.49726  -0.49493
 Alpha  occ. eigenvalues --   -0.49252  -0.48960  -0.48816  -0.48582  -0.48355
 Alpha  occ. eigenvalues --   -0.48261  -0.48020  -0.47917  -0.47553  -0.47476
 Alpha  occ. eigenvalues --   -0.47321  -0.47085  -0.47069  -0.46920  -0.46825
 Alpha  occ. eigenvalues --   -0.46715  -0.46529  -0.46365  -0.46259  -0.46102
 Alpha  occ. eigenvalues --   -0.45840  -0.45744  -0.45478  -0.45225  -0.44925
 Alpha  occ. eigenvalues --   -0.44603  -0.44507  -0.44113  -0.43980  -0.43747
 Alpha  occ. eigenvalues --   -0.43602  -0.43531  -0.43224  -0.42919  -0.42812
 Alpha  occ. eigenvalues --   -0.42765  -0.42624  -0.42388  -0.42231  -0.41883
 Alpha  occ. eigenvalues --   -0.41747  -0.41162  -0.40991  -0.40895  -0.40782
 Alpha  occ. eigenvalues --   -0.40025  -0.39623  -0.39431  -0.39401  -0.39286
 Alpha  occ. eigenvalues --   -0.39199  -0.38581  -0.38560  -0.38498  -0.37989
 Alpha  occ. eigenvalues --   -0.37817  -0.37777  -0.37359  -0.36204  -0.36152
 Alpha  occ. eigenvalues --   -0.36016  -0.35857  -0.34904  -0.34438  -0.33504
 Alpha  occ. eigenvalues --   -0.32979  -0.31490  -0.31327  -0.30907  -0.26042
 Alpha  occ. eigenvalues --   -0.22784
 Alpha virt. eigenvalues --   -0.06973   0.00130   0.01581   0.03965   0.05346
 Alpha virt. eigenvalues --    0.06594   0.07279   0.07388   0.07992   0.09912
 Alpha virt. eigenvalues --    0.10275   0.11451   0.11636   0.12261   0.12405

 Mulliken charges:
               1
     1  Mg   0.955835
     2  C   -0.019238
     3  C   -0.049023
     4  C   -0.018627
     5  C   -0.087039
     6  N   -0.329563
     7  C    0.003602
     8  C   -0.067561
     9  C   -0.132077
    10  C    0.086849
    11  C    0.018930
    12  C    0.033579
    13  C    0.037835
    14  C    0.168415
    15  O   -0.248596
    16  O   -0.380353
    17  N   -0.497451
    18  C    0.113492
    19  C   -0.123561
    20  C   -0.051164
    21  C    0.178765
    22  C    0.057664
    23  C    0.053153
    24  O   -0.265179
    25  C   -0.031339
    26  N   -0.374149
    27  C    0.013174
    28  C   -0.103139
    29  C   -0.051457
    30  C    0.063293
    31  C    0.015997
    32  C   -0.008705
    33  C   -0.030600
    34  N   -0.445372
    35  C    0.117998
    36  C   -0.198252
    37  C   -0.109177
    38  C    0.216070
    39  C    0.065895
    40  C    0.195635
    41  O   -0.169396
    42  C   -0.109282
    43  C    0.243993
    44  O   -0.256879
    45  O   -0.361719
    46  C    0.141913
    47  C    0.249972
    48  C   -0.156986
    49  C   -0.213811
    50  C    0.020134
    51  C    0.055354
    52  C   -0.026394
    53  C    0.017432
    54  C   -0.195133
    55  C    0.000497
    56  C    0.011646
    57  C   -0.069743
    58  C    0.017745
    59  C   -0.169171
    60  C   -0.006191
    61  C   -0.038072
    62  C   -0.006796
    63  C    0.007263
    64  C   -0.212191
    65  C    0.009419
    66  C   -0.007565
    67  H   -0.009924
    68  H    0.019815
    69  H    0.006949
    70  H    0.075515
    71  H    0.038351
    72  H    0.031490
    73  H    0.031407
    74  H    0.039149
    75  H    0.033664
    76  H    0.025126
    77  H    0.048604
    78  H    0.068680
    79  H    0.049601
    80  H    0.025639
    81  H    0.023614
    82  H    0.072928
    83  H    0.031772
    84  H    0.037882
    85  H    0.045775
    86  H    0.025385
    87  H    0.040372
    88  H    0.035477
    89  H    0.041476
    90  H    0.033133
    91  H    0.022459
    92  H    0.045809
    93  H    0.035654
    94  H    0.029682
    95  H    0.044264
    96  H    0.070041
    97  H    0.069140
    98  H    0.070799
    99  H    0.056730
   100  H    0.066326
   101  H    0.054506
   102  H    0.084663
   103  H    0.059085
   104  H    0.022212
   105  H    0.021896
   106  H    0.049441
   107  H    0.048945
   108  H    0.039458
   109  H    0.024086
   110  H    0.021661
   111  H    0.016894
   112  H    0.000912
   113  H    0.002946
   114  H    0.014620
   115  H    0.023423
   116  H    0.035271
   117  H    0.025019
   118  H    0.023203
   119  H    0.031245
   120  H    0.033599
   121  H    0.024507
   122  H    0.016401
   123  H    0.006473
   124  H    0.016205
   125  H    0.024012
   126  H    0.023954
   127  H    0.028962
   128  H    0.025017
   129  H    0.006838
   130  H    0.028396
   131  H    0.020669
   132  H    0.025209
   133  H    0.014722
   134  H    0.026442
   135  H    0.010066
   136  H    0.035504
   137  H    0.027166
   138  H    0.029641
   139  H    0.026957
   140  H    0.016396
 Sum of Mulliken charges =  -0.00000

 Dipole moment (field-independent basis, Debye):
    X=              3.1494    Y=             -0.5167    Z=             -1.1379  Tot=              3.3883
 Quadrupole moment (field-independent basis, Debye-Ang):
   XX=           -365.7326   YY=           -439.6458   ZZ=           -400.0776
   XY=             -4.3008   XZ=              7.1966   YZ=              3.9528

 Normal termination of Gaussian 16 at Wed May  4 02:05:57 2022.
