 Gaussian 16, Revision A.03,
 Gaussian 16:  ES64L-G16RevA.03 25-Dec-2016

 --------------------
 #p ZINDO=(nstates=5)
 --------------------

 -----------------------------
 step_1201_chromophore_6 ZINDO
 -----------------------------
 Symbolic Z-matrix:
 Charge =  0 Multiplicity = 1

                         Standard orientation:
 ---------------------------------------------------------------------
 Center     Atomic      Atomic             Coordinates (Angstroms)
 Number     Number       Type             X           Y           Z
 ---------------------------------------------------------------------
      1         12           0       -5.221343    1.208732   -0.333127
      2          6           0       -4.365607   -2.207601   -0.248014
      3          6           0       -1.838842    1.953040   -0.226154
      4          6           0       -6.079579    4.400951    0.157359
      5          6           0       -8.713762    0.255105    0.173731
      6          7           0       -3.349536   -0.083662    0.140200
      7          6           0       -3.214749   -1.409064   -0.130660
      8          6           0       -1.684594   -1.934784   -0.139189
      9          6           0       -0.930063   -0.486306    0.000837
     10          6           0       -2.131019    0.567959    0.037299
     11          6           0       -0.041810   -0.325340    1.217344
     12          6           0       -1.293864   -2.765001   -1.357887
     13          6           0       -0.802027   -4.125267   -1.216022
     14          6           0        0.098003   -4.407311    0.021915
     15          8           0       -0.043251   -5.339634    0.796495
     16          8           0        1.101485   -3.472960    0.127916
     17          7           0       -4.069153    2.948999   -0.311680
     18          6           0       -2.704800    3.101945   -0.336447
     19          6           0       -2.423327    4.498883   -0.406298
     20          6           0       -3.642095    5.191101   -0.224930
     21          6           0       -4.693243    4.217784   -0.155072
     22          6           0       -1.066547    4.962084   -0.232585
     23          6           0       -3.825081    6.679974   -0.062774
     24          8           0       -4.957802    7.218132    0.030872
     25          6           0       -2.551116    7.707742   -0.243150
     26          7           0       -7.108880    2.164078    0.012213
     27          6           0       -7.109050    3.522845    0.302729
     28          6           0       -8.503780    4.022015    0.806549
     29          6           0       -9.370230    2.726873    0.509592
     30          6           0       -8.354325    1.654303    0.232917
     31          6           0       -8.540623    4.432071    2.325434
     32          6           0      -10.534207    2.871431   -0.445446
     33          6           0      -10.450856    2.113073   -1.721242
     34          7           0       -6.350861   -0.523507   -0.064431
     35          6           0       -7.716631   -0.805225    0.001088
     36          6           0       -7.911648   -2.320572   -0.124717
     37          6           0       -6.629269   -2.871519   -0.214729
     38          6           0       -5.696273   -1.732757   -0.146698
     39          6           0       -9.187047   -3.049354   -0.219077
     40          6           0       -5.950506   -4.206399   -0.348879
     41          8           0       -6.385433   -5.332844   -0.430957
     42          6           0       -4.490380   -3.713792   -0.463640
     43          6           0       -3.769711   -4.433481    0.726287
     44          8           0       -3.766823   -3.959733    1.857315
     45          8           0       -3.213095   -5.660972    0.466834
     46          6           0       -2.782063   -6.404977    1.717360
     47          6           0        2.164613   -3.730630    1.149589
     48          6           0        3.430018   -3.885882    0.334248
     49          6           0        4.678702   -3.776596    0.843910
     50          6           0        4.928038   -3.809733    2.319914
     51          6           0        5.939672   -3.841961    0.006331
     52          6           0        5.923061   -2.868303   -1.234013
     53          6           0        6.909231   -1.737141   -1.227364
     54          6           0        7.851253   -1.692836   -2.341626
     55          6           0        8.950780   -2.742992   -2.088616
     56          6           0        8.500356   -0.221407   -2.535469
     57          6           0        9.230461    0.385812   -1.298275
     58          6           0       10.546903    1.087921   -1.699857
     59          6           0       11.100990    2.066244   -0.647476
     60          6           0       10.669825    3.533962   -0.955473
     61          6           0       12.648154    1.996444   -0.496853
     62          6           0       13.197367    2.395810    0.871993
     63          6           0       14.543906    1.720450    1.139632
     64          6           0       15.749320    2.714836    1.422675
     65          6           0       15.952754    3.110127    2.883478
     66          6           0       16.977032    2.030979    0.858980
     67          1           0       -0.779477    2.214383   -0.269092
     68          1           0       -6.518667    5.358762    0.444103
     69          1           0       -9.753331   -0.063817    0.268676
     70          1           0       -1.566780   -2.599711    0.716690
     71          1           0       -0.196414   -0.270745   -0.774819
     72          1           0        0.989902   -0.104207    0.942517
     73          1           0       -0.095733   -1.245272    1.800655
     74          1           0       -0.392890    0.493710    1.844814
     75          1           0       -0.580396   -2.287709   -2.030751
     76          1           0       -2.235036   -2.797961   -1.907518
     77          1           0       -0.039218   -4.187769   -1.991987
     78          1           0       -1.557644   -4.905469   -1.307812
     79          1           0       -0.940369    5.489509    0.712507
     80          1           0       -0.720164    5.676798   -0.979103
     81          1           0       -0.335261    4.160245   -0.330806
     82          1           0       -2.102912    7.679204   -1.236671
     83          1           0       -1.891894    7.493671    0.597433
     84          1           0       -2.771932    8.740975    0.025057
     85          1           0       -8.879723    4.864165    0.224564
     86          1           0       -9.858609    2.387179    1.423636
     87          1           0       -7.565049    4.791676    2.652729
     88          1           0       -8.767292    3.617185    3.013580
     89          1           0       -9.262699    5.232124    2.486008
     90          1           0      -10.704074    3.940999   -0.567697
     91          1           0      -11.348414    2.397677    0.103740
     92          1           0       -9.428450    2.052358   -2.093991
     93          1           0      -11.007574    2.671291   -2.474669
     94          1           0      -10.853206    1.104252   -1.631653
     95          1           0       -9.805513   -2.303676   -0.718377
     96          1           0       -9.614804   -3.338645    0.741502
     97          1           0       -8.885586   -3.936398   -0.776340
     98          1           0       -4.095200   -4.119035   -1.395649
     99          1           0       -3.588719   -6.923799    2.234502
    100          1           0       -2.215923   -5.829934    2.450217
    101          1           0       -2.073236   -7.180804    1.425940
    102          1           0        2.059302   -4.623480    1.765869
    103          1           0        2.336525   -2.852022    1.771910
    104          1           0        3.349804   -4.098399   -0.731782
    105          1           0        4.029526   -4.264404    2.738918
    106          1           0        5.037381   -2.819305    2.760049
    107          1           0        5.806022   -4.393784    2.595879
    108          1           0        5.877571   -4.819531   -0.471431
    109          1           0        6.893245   -3.725118    0.520705
    110          1           0        4.953279   -2.369710   -1.214967
    111          1           0        5.882402   -3.445501   -2.156856
    112          1           0        7.558428   -1.728038   -0.351386
    113          1           0        6.352209   -0.806330   -1.125982
    114          1           0        7.296625   -1.967076   -3.238689
    115          1           0        9.878774   -2.196125   -1.920754
    116          1           0        9.088360   -3.399345   -2.948162
    117          1           0        8.758391   -3.324998   -1.186910
    118          1           0        7.667458    0.466461   -2.685119
    119          1           0        9.149849   -0.367090   -3.398466
    120          1           0        9.529388   -0.381271   -0.584213
    121          1           0        8.595309    1.168882   -0.882591
    122          1           0       10.347241    1.497536   -2.690037
    123          1           0       11.283180    0.303490   -1.879306
    124          1           0       10.602076    1.947110    0.314568
    125          1           0       11.470528    4.231962   -0.714697
    126          1           0        9.851135    3.820436   -0.295255
    127          1           0       10.361092    3.617680   -1.997798
    128          1           0       13.076621    2.551396   -1.332435
    129          1           0       12.961601    0.963447   -0.648383
    130          1           0       12.481195    2.229570    1.677144
    131          1           0       13.367029    3.448139    0.640104
    132          1           0       14.842521    0.938867    0.440862
    133          1           0       14.254272    1.253630    2.081360
    134          1           0       15.624671    3.678604    0.930798
    135          1           0       15.085424    2.692961    3.393860
    136          1           0       15.945472    4.178163    3.103592
    137          1           0       16.814652    2.636958    3.354399
    138          1           0       17.701377    2.787807    0.561189
    139          1           0       16.812577    1.300131    0.067611
    140          1           0       17.433959    1.441826    1.654712
 ---------------------------------------------------------------------

 SCF Done:  E(RZINDO/S) =  -473.903189996     A.U. after   19 cycles

 Excitation energies and oscillator strengths:

 Excited State   1:      Singlet-A      1.3302 eV  932.07 nm  f=0.5048  <S**2>=0.000
     175 ->178         0.14050
     176 ->177         0.67466
 This state for optimization and/or second-order correction.
 Total Energy, E(CIS/TDA) =  -473.854305895
 Copying the excited state density for this state as the 1-particle RhoCI density.

 Excited State   2:      Singlet-A      1.9164 eV  646.97 nm  f=0.0311  <S**2>=0.000
     175 ->177         0.52870
     176 ->178        -0.40469
     176 ->179         0.15935

 Excited State   3:      Singlet-A      2.9093 eV  426.16 nm  f=0.8546  <S**2>=0.000
     175 ->177         0.36087
     176 ->178         0.54204
     176 ->179         0.15312

 Excited State   4:      Singlet-A      2.9608 eV  418.75 nm  f=0.1654  <S**2>=0.000
     170 ->179         0.10119
     170 ->180         0.17612
     171 ->177         0.11362
     171 ->179         0.12271
     171 ->180         0.28148
     175 ->177        -0.13224
     176 ->179         0.35690
     176 ->180         0.31643

 Excited State   5:      Singlet-A      3.0327 eV  408.82 nm  f=0.1948  <S**2>=0.000
     170 ->177         0.10455
     170 ->179         0.10349
     170 ->180         0.24696
     171 ->177         0.10451
     171 ->179         0.13949
     171 ->180         0.25266
     171 ->189        -0.10290
     175 ->177         0.13890
     176 ->179        -0.35767
     176 ->180        -0.24379

 The electronic state is 1-A.
 Alpha  occ. eigenvalues --   -1.81024  -1.78644  -1.76549  -1.72634  -1.70206
 Alpha  occ. eigenvalues --   -1.67292  -1.66356  -1.62442  -1.58530  -1.56182
 Alpha  occ. eigenvalues --   -1.53123  -1.52377  -1.49889  -1.49348  -1.48203
 Alpha  occ. eigenvalues --   -1.46005  -1.41868  -1.40951  -1.39966  -1.38718
 Alpha  occ. eigenvalues --   -1.36845  -1.35678  -1.33686  -1.30198  -1.27621
 Alpha  occ. eigenvalues --   -1.27066  -1.23720  -1.20254  -1.18701  -1.16719
 Alpha  occ. eigenvalues --   -1.16481  -1.15974  -1.15404  -1.14388  -1.12929
 Alpha  occ. eigenvalues --   -1.12852  -1.10379  -1.08813  -1.05298  -1.03801
 Alpha  occ. eigenvalues --   -1.01437  -1.00775  -0.98942  -0.98188  -0.96873
 Alpha  occ. eigenvalues --   -0.96346  -0.94993  -0.93678  -0.92605  -0.91166
 Alpha  occ. eigenvalues --   -0.90318  -0.89855  -0.89620  -0.87363  -0.85909
 Alpha  occ. eigenvalues --   -0.85340  -0.84694  -0.83597  -0.80406  -0.80363
 Alpha  occ. eigenvalues --   -0.79301  -0.78528  -0.78466  -0.77295  -0.76458
 Alpha  occ. eigenvalues --   -0.75846  -0.75352  -0.74796  -0.74431  -0.73609
 Alpha  occ. eigenvalues --   -0.73359  -0.72975  -0.72928  -0.72415  -0.70890
 Alpha  occ. eigenvalues --   -0.70507  -0.70062  -0.69791  -0.68820  -0.67696
 Alpha  occ. eigenvalues --   -0.66979  -0.66487  -0.66320  -0.65722  -0.65299
 Alpha  occ. eigenvalues --   -0.65080  -0.65070  -0.64414  -0.64049  -0.63680
 Alpha  occ. eigenvalues --   -0.63435  -0.62954  -0.62393  -0.61993  -0.61658
 Alpha  occ. eigenvalues --   -0.61339  -0.60650  -0.60229  -0.59873  -0.59418
 Alpha  occ. eigenvalues --   -0.59153  -0.59106  -0.58783  -0.58167  -0.57988
 Alpha  occ. eigenvalues --   -0.57719  -0.56967  -0.56678  -0.56231  -0.56069
 Alpha  occ. eigenvalues --   -0.55621  -0.55419  -0.55247  -0.54927  -0.54866
 Alpha  occ. eigenvalues --   -0.53997  -0.53838  -0.53724  -0.53029  -0.52845
 Alpha  occ. eigenvalues --   -0.52756  -0.52141  -0.51890  -0.51624  -0.51422
 Alpha  occ. eigenvalues --   -0.51090  -0.50849  -0.50631  -0.50432  -0.49754
 Alpha  occ. eigenvalues --   -0.49648  -0.49546  -0.49450  -0.49125  -0.48843
 Alpha  occ. eigenvalues --   -0.48702  -0.48253  -0.47961  -0.47701  -0.47526
 Alpha  occ. eigenvalues --   -0.47303  -0.47114  -0.46940  -0.46668  -0.46416
 Alpha  occ. eigenvalues --   -0.46092  -0.46054  -0.45637  -0.45539  -0.45189
 Alpha  occ. eigenvalues --   -0.45139  -0.44684  -0.44390  -0.43498  -0.43437
 Alpha  occ. eigenvalues --   -0.43101  -0.42804  -0.42781  -0.42507  -0.42183
 Alpha  occ. eigenvalues --   -0.42037  -0.41842  -0.41710  -0.38805  -0.38665
 Alpha  occ. eigenvalues --   -0.38185  -0.37402  -0.36890  -0.34852  -0.34220
 Alpha  occ. eigenvalues --   -0.33805  -0.32314  -0.31318  -0.31101  -0.26811
 Alpha  occ. eigenvalues --   -0.21696
 Alpha virt. eigenvalues --   -0.08151  -0.02179  -0.01152   0.01185   0.01952
 Alpha virt. eigenvalues --    0.02006   0.02404   0.02629   0.04574   0.04652
 Alpha virt. eigenvalues --    0.05580   0.06475   0.06643   0.07131   0.07647

 Mulliken charges:
               1
     1  Mg   0.436197
     2  C   -0.054669
     3  C   -0.069780
     4  C   -0.044493
     5  C   -0.101212
     6  N   -0.277870
     7  C    0.170739
     8  C    0.003496
     9  C   -0.006945
    10  C    0.080379
    11  C   -0.049358
    12  C   -0.013768
    13  C    0.012752
    14  C    0.464338
    15  O   -0.518305
    16  O   -0.278092
    17  N   -0.330112
    18  C    0.070498
    19  C   -0.019742
    20  C   -0.042772
    21  C    0.106916
    22  C   -0.039873
    23  C    0.305242
    24  O   -0.539626
    25  C   -0.042516
    26  N   -0.279501
    27  C    0.086926
    28  C   -0.002541
    29  C    0.002905
    30  C    0.197366
    31  C   -0.051174
    32  C   -0.018218
    33  C   -0.048506
    34  N   -0.327998
    35  C    0.130743
    36  C    0.063648
    37  C   -0.058369
    38  C    0.143603
    39  C   -0.038020
    40  C    0.349115
    41  O   -0.487141
    42  C    0.062453
    43  C    0.471627
    44  O   -0.526134
    45  O   -0.261350
    46  C    0.078060
    47  C    0.106411
    48  C   -0.091898
    49  C   -0.011722
    50  C   -0.045732
    51  C   -0.027207
    52  C   -0.038140
    53  C   -0.018653
    54  C   -0.012626
    55  C   -0.058701
    56  C   -0.044359
    57  C   -0.037180
    58  C   -0.035849
    59  C   -0.017132
    60  C   -0.063030
    61  C   -0.033299
    62  C   -0.037630
    63  C   -0.042322
    64  C   -0.007425
    65  C   -0.057805
    66  C   -0.056459
    67  H    0.024799
    68  H    0.046370
    69  H    0.038409
    70  H    0.055498
    71  H    0.032184
    72  H    0.017809
    73  H    0.021007
    74  H    0.023507
    75  H    0.026451
    76  H    0.011597
    77  H    0.037292
    78  H    0.048177
    79  H    0.027422
    80  H    0.014741
    81  H    0.015617
    82  H    0.044240
    83  H    0.028135
    84  H    0.030418
    85  H    0.037231
    86  H    0.021154
    87  H    0.025202
    88  H    0.020095
    89  H    0.020058
    90  H    0.030054
    91  H    0.013908
    92  H    0.022008
    93  H    0.012375
    94  H    0.021411
    95  H    0.034671
    96  H    0.047364
    97  H    0.046017
    98  H    0.056609
    99  H    0.044201
   100  H    0.054766
   101  H    0.030279
   102  H    0.069221
   103  H    0.047810
   104  H    0.035282
   105  H    0.018949
   106  H    0.029088
   107  H    0.027199
   108  H    0.023939
   109  H    0.030177
   110  H    0.010955
   111  H    0.021272
   112  H    0.012533
   113  H    0.005203
   114  H    0.015502
   115  H    0.017489
   116  H    0.017138
   117  H    0.020721
   118  H    0.017957
   119  H    0.024143
   120  H    0.025204
   121  H    0.022730
   122  H    0.020230
   123  H    0.010062
   124  H    0.021664
   125  H    0.017261
   126  H    0.013125
   127  H    0.021848
   128  H    0.021439
   129  H    0.005662
   130  H    0.031101
   131  H    0.019264
   132  H    0.032990
   133  H    0.013754
   134  H    0.021081
   135  H    0.010504
   136  H    0.021569
   137  H    0.021378
   138  H    0.013134
   139  H    0.019781
   140  H    0.012400
 Sum of Mulliken charges =  -0.00000

 Dipole moment (field-independent basis, Debye):
    X=              2.0521    Y=             -2.9554    Z=             -2.5276  Tot=              4.3971
 N-N= 4.295736828634D+03 E-N= 0.000000000000D+00  KE=-9.265700130400D+03
 Leave Link  601 at Wed May  4 02:18:22 2022, MaxMem=  6710886400 cpu:               1.1 elap:               0.1
 (Enter /sw/apps/gaussian-16.0/g16/l9999.exe)
 1\1\GINC-BP1-COMPUTE062\SP\RZINDO CIS\STO-3G\C55H74Mg1N4O6\OF15641\04-
 May-2022\0\\#p ZINDO=(nstates=5)\\step_1201_chromophore_6 ZINDO\\0,1\M
 g,0,16.454,-2.838,27.046\C,0,15.661,-0.437,29.499\C,0,18.368,-4.482,29
 .421\C,0,17.629,-4.754,24.573\C,0,14.909,-0.664,24.546\N,0,17.222,-2.2
 07,29.146\C,0,16.578,-1.374,30.006\C,0,17.081,-1.482,31.54\C,0,18.073,
 -2.777,31.379\C,0,17.938,-3.172,29.836\C,0,19.524,-2.54,31.744\C,0,15.
 97,-1.629,32.575\C,0,15.811,-0.665,33.651\C,0,17.122,-0.078,34.25\O,0,

 Normal termination of Gaussian 16 at Wed May  4 02:18:23 2022.
