 Gaussian 16, Revision A.03,
 Gaussian 16:  ES64L-G16RevA.03 25-Dec-2016

 ------------------------------
 #p blyp/Def2SVP td=(nstates=5)
 ------------------------------

 -------------------------------------------------
 step_851_chromophore_2 TDDFT with blyp functional
 -------------------------------------------------
 Symbolic Z-matrix:
 Charge =  0 Multiplicity = 1

                         Standard orientation:
 ---------------------------------------------------------------------
 Center     Atomic      Atomic             Coordinates (Angstroms)
 Number     Number       Type             X           Y           Z
 ---------------------------------------------------------------------
      1         12           0       -4.776022    1.275659    0.386369
      2          6           0       -5.042986   -2.234932    0.403130
      3          6           0       -2.566302    0.916663    3.166308
      4          6           0       -4.144909    4.428748    0.188724
      5          6           0       -6.606281    1.256609   -2.518628
      6          7           0       -3.828817   -0.461386    1.540478
      7          6           0       -4.024461   -1.811864    1.326481
      8          6           0       -3.247024   -2.683876    2.277065
      9          6           0       -2.507328   -1.632352    3.227121
     10          6           0       -2.999848   -0.284279    2.665878
     11          6           0       -2.951109   -1.735242    4.780673
     12          6           0       -2.309856   -3.752457    1.738698
     13          6           0       -1.932324   -3.708512    0.257040
     14          6           0       -0.643964   -4.405069   -0.100654
     15          8           0       -0.283520   -5.483357    0.371017
     16          8           0        0.053211   -3.666031   -1.083150
     17          7           0       -3.465512    2.501853    1.485285
     18          6           0       -2.680096    2.212810    2.597548
     19          6           0       -2.159389    3.462229    3.109716
     20          6           0       -2.622154    4.472332    2.317709
     21          6           0       -3.396684    3.841160    1.211555
     22          6           0       -1.362252    3.390877    4.401083
     23          6           0       -2.275971    5.972702    2.467421
     24          8           0       -1.548190    6.400165    3.389735
     25          6           0       -2.681499    7.028560    1.401519
     26          7           0       -5.155494    2.579996   -1.143716
     27          6           0       -4.931161    3.859846   -0.851497
     28          6           0       -5.462223    4.795017   -2.016442
     29          6           0       -6.267961    3.746868   -2.949060
     30          6           0       -6.063203    2.461394   -2.174473
     31          6           0       -6.306462    6.003817   -1.467872
     32          6           0       -5.941516    3.706961   -4.451182
     33          6           0       -7.035014    3.783437   -5.448634
     34          7           0       -5.636686   -0.188112   -0.878876
     35          6           0       -6.408241   -0.022622   -1.963077
     36          6           0       -6.960549   -1.281466   -2.394974
     37          6           0       -6.461718   -2.179291   -1.487996
     38          6           0       -5.574410   -1.459225   -0.594587
     39          6           0       -7.728245   -1.660372   -3.603772
     40          6           0       -6.380304   -3.617237   -1.152214
     41          8           0       -6.874173   -4.611242   -1.679553
     42          6           0       -5.510353   -3.684372    0.108392
     43          6           0       -6.256804   -4.370345    1.141789
     44          8           0       -6.112402   -5.616635    1.354972
     45          8           0       -6.783013   -3.516522    2.098541
     46          6           0       -6.942522   -4.018256    3.433838
     47          6           0        1.343446   -4.161677   -1.471767
     48          6           0        2.198891   -2.982415   -1.402721
     49          6           0        3.264701   -2.671702   -2.212512
     50          6           0        3.775600   -3.428718   -3.430681
     51          6           0        3.765689   -1.248810   -1.911006
     52          6           0        4.858198   -1.245323   -0.806563
     53          6           0        6.352758   -1.105778   -1.143442
     54          6           0        7.033009    0.288776   -0.901835
     55          6           0        6.675220    1.265298   -2.045350
     56          6           0        8.608987    0.168794   -0.697517
     57          6           0        8.978521    0.359528    0.797241
     58          6           0       10.320260    1.185686    0.828744
     59          6           0       11.469659    0.214930    1.209808
     60          6           0       11.371666   -0.067238    2.713212
     61          6           0       12.796124    0.805611    0.788302
     62          6           0       13.599616   -0.111720   -0.113140
     63          6           0       14.508820    0.572910   -1.176929
     64          6           0       16.032832    0.505658   -0.748450
     65          6           0       16.690330    1.891974   -0.829505
     66          6           0       16.856716   -0.690024   -1.308750
     67          1           0       -1.991656    0.941936    4.094881
     68          1           0       -4.116634    5.520207    0.204706
     69          1           0       -7.412224    1.296920   -3.255017
     70          1           0       -3.971857   -3.183439    2.921995
     71          1           0       -1.424316   -1.653447    3.108823
     72          1           0       -2.131014   -1.634263    5.492106
     73          1           0       -3.490120   -2.675529    4.903745
     74          1           0       -3.702923   -0.977685    5.000485
     75          1           0       -2.662247   -4.758127    1.964722
     76          1           0       -1.368477   -3.642114    2.277081
     77          1           0       -1.940421   -2.727701   -0.218958
     78          1           0       -2.625127   -4.267561   -0.372018
     79          1           0       -0.857033    4.347586    4.533354
     80          1           0       -0.577318    2.641006    4.299992
     81          1           0       -2.064646    3.191416    5.209674
     82          1           0       -3.768432    7.107481    1.428802
     83          1           0       -2.193529    6.878009    0.438409
     84          1           0       -2.296631    8.029247    1.595397
     85          1           0       -4.577404    5.134600   -2.554561
     86          1           0       -7.325342    3.996051   -2.860242
     87          1           0       -6.464153    6.729351   -2.265901
     88          1           0       -5.902292    6.488210   -0.579153
     89          1           0       -7.272657    5.697459   -1.066132
     90          1           0       -5.519952    2.706327   -4.539728
     91          1           0       -5.125775    4.372870   -4.731794
     92          1           0       -6.841171    4.595707   -6.149804
     93          1           0       -8.028402    3.916672   -5.019630
     94          1           0       -7.130599    2.816346   -5.942055
     95          1           0       -7.453408   -0.889482   -4.322626
     96          1           0       -8.816101   -1.656226   -3.535577
     97          1           0       -7.312245   -2.609059   -3.942895
     98          1           0       -4.762219   -4.423432   -0.176761
     99          1           0       -7.135402   -3.224855    4.155338
    100          1           0       -6.024498   -4.540284    3.703038
    101          1           0       -7.785941   -4.708727    3.451816
    102          1           0        1.163234   -4.426354   -2.513989
    103          1           0        1.746313   -4.993044   -0.893586
    104          1           0        1.916511   -2.286918   -0.613400
    105          1           0        3.383757   -4.438733   -3.550253
    106          1           0        4.771117   -3.671465   -3.060886
    107          1           0        3.742258   -2.877423   -4.370623
    108          1           0        2.968790   -0.550484   -1.654641
    109          1           0        4.109593   -0.892586   -2.882469
    110          1           0        4.749364   -2.118342   -0.163299
    111          1           0        4.474092   -0.388356   -0.252640
    112          1           0        6.520039   -1.414158   -2.174800
    113          1           0        6.845861   -1.912988   -0.601399
    114          1           0        6.541213    0.738744   -0.038686
    115          1           0        5.871323    0.937066   -2.703986
    116          1           0        7.562558    1.490556   -2.638106
    117          1           0        6.604723    2.247139   -1.575789
    118          1           0        9.153420    0.761151   -1.432019
    119          1           0        8.770636   -0.894317   -0.875138
    120          1           0        9.044651   -0.633974    1.240864
    121          1           0        8.147325    0.806746    1.341260
    122          1           0       10.194305    1.895121    1.647283
    123          1           0       10.601371    1.734921   -0.070431
    124          1           0       11.295951   -0.715169    0.667577
    125          1           0       11.326553   -1.141158    2.891497
    126          1           0       10.687471    0.454002    3.382779
    127          1           0       12.270644    0.143087    3.293245
    128          1           0       13.424831    0.982551    1.660700
    129          1           0       12.654084    1.779249    0.319838
    130          1           0       12.874125   -0.754466   -0.611128
    131          1           0       14.214657   -0.774401    0.495719
    132          1           0       14.195683    1.617023   -1.191256
    133          1           0       14.225898    0.139728   -2.136429
    134          1           0       16.042448    0.318277    0.325038
    135          1           0       16.313176    2.512527   -1.642353
    136          1           0       17.772732    1.810444   -0.924305
    137          1           0       16.448488    2.397286    0.107136
    138          1           0       17.210637   -1.348433   -0.514799
    139          1           0       17.619747   -0.441963   -2.045458
    140          1           0       16.219624   -1.375861   -1.866294
 ---------------------------------------------------------------------

 SCF Done:  E(RB-LYP) =  -3007.34842145     A.U. after   22 cycles

 Excitation energies and oscillator strengths:

 Excited State   1:      Singlet-A      1.8234 eV  679.96 nm  f=0.3189  <S**2>=0.000
     245 -> 248        0.18253
     246 -> 247        0.68348
     246 <- 247       -0.14883
 This state for optimization and/or second-order correction.
 Total Energy, E(TD-HF/TD-DFT) =  -3007.28141225
 Copying the excited state density for this state as the 1-particle RhoCI density.

 Excited State   2:      Singlet-A      1.9239 eV  644.44 nm  f=0.0097  <S**2>=0.000
     244 -> 247        0.68008
     245 -> 247        0.11800
     246 -> 247        0.10618

 Excited State   3:      Singlet-A      1.9477 eV  636.58 nm  f=0.0088  <S**2>=0.000
     243 -> 247        0.57141
     244 -> 247       -0.15573
     245 -> 247        0.36763

 Excited State   4:      Singlet-A      1.9700 eV  629.38 nm  f=0.0008  <S**2>=0.000
     242 -> 247        0.70446

 Excited State   5:      Singlet-A      2.1141 eV  586.46 nm  f=0.0369  <S**2>=0.000
     243 -> 247       -0.38799
     245 -> 247        0.50381
     246 -> 248       -0.28804

 The electronic state is 1-A.
 Alpha  occ. eigenvalues --  -46.28038 -18.82274 -18.81587 -18.77043 -18.76233
 Alpha  occ. eigenvalues --  -18.76147 -18.76039 -14.03972 -14.03710 -14.01454
 Alpha  occ. eigenvalues --  -14.01027 -10.04111 -10.04037 -10.00855 -10.00029
 Alpha  occ. eigenvalues --   -9.98137  -9.97414  -9.97375  -9.96783  -9.96695
 Alpha  occ. eigenvalues --   -9.96671  -9.96424  -9.95618  -9.95581  -9.95110
 Alpha  occ. eigenvalues --   -9.95090  -9.94669  -9.94438  -9.94424  -9.94227
 Alpha  occ. eigenvalues --   -9.94136  -9.93545  -9.93470  -9.93440  -9.93413
 Alpha  occ. eigenvalues --   -9.93321  -9.93274  -9.93261  -9.93116  -9.93096
 Alpha  occ. eigenvalues --   -9.92826  -9.92744  -9.92730  -9.92607  -9.92598
 Alpha  occ. eigenvalues --   -9.92426  -9.92172  -9.92115  -9.92021  -9.91817
 Alpha  occ. eigenvalues --   -9.91642  -9.91502  -9.91218  -9.91145  -9.91070
 Alpha  occ. eigenvalues --   -9.91047  -9.91021  -9.91009  -9.90958  -9.90790
 Alpha  occ. eigenvalues --   -9.90753  -9.90584  -9.90534  -9.90480  -9.90399
 Alpha  occ. eigenvalues --   -9.90182  -2.92660  -1.73067  -1.72570  -1.72352
 Alpha  occ. eigenvalues --   -0.97242  -0.96768  -0.91454  -0.90444  -0.89895
 Alpha  occ. eigenvalues --   -0.88303  -0.87835  -0.86811  -0.85534  -0.84691
 Alpha  occ. eigenvalues --   -0.76066  -0.73335  -0.73274  -0.73172  -0.72762
 Alpha  occ. eigenvalues --   -0.72188  -0.71371  -0.71294  -0.71097  -0.70457
 Alpha  occ. eigenvalues --   -0.70102  -0.69302  -0.68458  -0.68053  -0.67458
 Alpha  occ. eigenvalues --   -0.66563  -0.66095  -0.65337  -0.65149  -0.64502
 Alpha  occ. eigenvalues --   -0.63872  -0.63247  -0.62816  -0.62108  -0.61770
 Alpha  occ. eigenvalues --   -0.60890  -0.60422  -0.60273  -0.59528  -0.58718
 Alpha  occ. eigenvalues --   -0.58380  -0.57863  -0.57480  -0.55774  -0.55233
 Alpha  occ. eigenvalues --   -0.54661  -0.53473  -0.53073  -0.52158  -0.51858
 Alpha  occ. eigenvalues --   -0.51509  -0.51230  -0.50982  -0.50614  -0.50139
 Alpha  occ. eigenvalues --   -0.49847  -0.49359  -0.49113  -0.48987  -0.46737
 Alpha  occ. eigenvalues --   -0.46556  -0.46435  -0.45927  -0.45252  -0.44598
 Alpha  occ. eigenvalues --   -0.44503  -0.43669  -0.43563  -0.43157  -0.42605
 Alpha  occ. eigenvalues --   -0.42409  -0.42001  -0.41926  -0.41296  -0.41004
 Alpha  occ. eigenvalues --   -0.40877  -0.40449  -0.40355  -0.40274  -0.40129
 Alpha  occ. eigenvalues --   -0.39920  -0.39742  -0.39624  -0.39589  -0.39282
 Alpha  occ. eigenvalues --   -0.38879  -0.38764  -0.38580  -0.38465  -0.38370
 Alpha  occ. eigenvalues --   -0.38173  -0.37976  -0.37911  -0.37737  -0.37315
 Alpha  occ. eigenvalues --   -0.37185  -0.36955  -0.36734  -0.36614  -0.36473
 Alpha  occ. eigenvalues --   -0.36183  -0.36042  -0.35908  -0.35811  -0.35708
 Alpha  occ. eigenvalues --   -0.35532  -0.35380  -0.35069  -0.34992  -0.34724
 Alpha  occ. eigenvalues --   -0.34644  -0.34483  -0.34462  -0.34344  -0.34193
 Alpha  occ. eigenvalues --   -0.34042  -0.33978  -0.33862  -0.33670  -0.33508
 Alpha  occ. eigenvalues --   -0.33234  -0.33150  -0.32727  -0.32560  -0.32417
 Alpha  occ. eigenvalues --   -0.32188  -0.31852  -0.31744  -0.31472  -0.31262
 Alpha  occ. eigenvalues --   -0.31190  -0.31159  -0.30936  -0.30869  -0.30762
 Alpha  occ. eigenvalues --   -0.30539  -0.30440  -0.30311  -0.30218  -0.30113
 Alpha  occ. eigenvalues --   -0.29887  -0.29724  -0.29379  -0.29282  -0.28844
 Alpha  occ. eigenvalues --   -0.28738  -0.28238  -0.28067  -0.27951  -0.27701
 Alpha  occ. eigenvalues --   -0.27648  -0.26943  -0.26906  -0.26607  -0.26357
 Alpha  occ. eigenvalues --   -0.26329  -0.26299  -0.25855  -0.25651  -0.25218
 Alpha  occ. eigenvalues --   -0.24811  -0.24723  -0.24358  -0.24278  -0.23747
 Alpha  occ. eigenvalues --   -0.23131  -0.22824  -0.22146  -0.21585  -0.21323
 Alpha  occ. eigenvalues --   -0.21043  -0.19001  -0.18956  -0.18746  -0.17957
 Alpha  occ. eigenvalues --   -0.16068
 Alpha virt. eigenvalues --   -0.11763  -0.07412  -0.06754  -0.05465  -0.04412
 Alpha virt. eigenvalues --   -0.03797  -0.02832  -0.02336  -0.01462  -0.00165
 Alpha virt. eigenvalues --    0.00409   0.01666   0.01848   0.02432   0.02957

 Mulliken charges:
               1
     1  Mg   0.688605
     2  C    0.050172
     3  C   -0.047811
     4  C   -0.045214
     5  C   -0.097614
     6  N   -0.208859
     7  C   -0.073115
     8  C    0.099129
     9  C   -0.047433
    10  C    0.049234
    11  C    0.112880
    12  C    0.137002
    13  C    0.122124
    14  C    0.063208
    15  O   -0.191368
    16  O   -0.294479
    17  N   -0.300442
    18  C    0.075921
    19  C   -0.138361
    20  C    0.026708
    21  C    0.125961
    22  C    0.191550
    23  C   -0.066741
    24  O   -0.175544
    25  C    0.133027
    26  N   -0.256620
    27  C    0.047273
    28  C   -0.001504
    29  C    0.079240
    30  C    0.005366
    31  C    0.109937
    32  C    0.109457
    33  C    0.076087
    34  N   -0.179050
    35  C    0.094889
    36  C   -0.187526
    37  C    0.068565
    38  C    0.039817
    39  C    0.179808
    40  C   -0.056582
    41  O   -0.123145
    42  C    0.037735
    43  C    0.133668
    44  O   -0.220179
    45  O   -0.271474
    46  C    0.223934
    47  C    0.363469
    48  C   -0.119744
    49  C   -0.173793
    50  C    0.160917
    51  C    0.104801
    52  C    0.088282
    53  C    0.099209
    54  C   -0.088345
    55  C    0.114241
    56  C    0.119975
    57  C    0.062265
    58  C    0.104551
    59  C   -0.078296
    60  C    0.109570
    61  C    0.149337
    62  C    0.022771
    63  C    0.128084
    64  C   -0.079803
    65  C    0.096032
    66  C    0.111598
    67  H   -0.065572
    68  H   -0.093207
    69  H   -0.064824
    70  H   -0.033880
    71  H   -0.003856
    72  H    0.009111
    73  H   -0.010743
    74  H   -0.005769
    75  H   -0.003718
    76  H   -0.020357
    77  H   -0.003877
    78  H    0.007204
    79  H    0.000196
    80  H   -0.001859
    81  H    0.009971
    82  H    0.024356
    83  H    0.016399
    84  H   -0.023021
    85  H   -0.011651
    86  H   -0.034535
    87  H   -0.001266
    88  H   -0.008328
    89  H   -0.017120
    90  H   -0.026504
    91  H   -0.024681
    92  H   -0.001173
    93  H   -0.017796
    94  H   -0.006515
    95  H   -0.024050
    96  H    0.011109
    97  H    0.016484
    98  H    0.012132
    99  H    0.011252
   100  H    0.010879
   101  H    0.015716
   102  H   -0.016731
   103  H    0.013228
   104  H   -0.040079
   105  H   -0.023383
   106  H   -0.005232
   107  H    0.020774
   108  H   -0.021494
   109  H   -0.040248
   110  H   -0.028717
   111  H   -0.035103
   112  H   -0.041219
   113  H   -0.045349
   114  H   -0.030272
   115  H   -0.001643
   116  H   -0.038420
   117  H   -0.026567
   118  H   -0.020322
   119  H   -0.037592
   120  H   -0.025563
   121  H   -0.034291
   122  H   -0.036759
   123  H   -0.024945
   124  H   -0.028756
   125  H   -0.027321
   126  H   -0.014986
   127  H   -0.042328
   128  H   -0.044053
   129  H   -0.040916
   130  H   -0.044479
   131  H   -0.030060
   132  H   -0.044386
   133  H   -0.029357
   134  H   -0.033207
   135  H   -0.011583
   136  H   -0.022101
   137  H   -0.015854
   138  H   -0.015554
   139  H   -0.013130
   140  H   -0.035863
 Sum of Mulliken charges =  -0.00000

 Dipole moment (field-independent basis, Debye):
    X=             -0.2394    Y=              5.6094    Z=             -0.8340  Tot=              5.6761
 Quadrupole moment (field-independent basis, Debye-Ang):
   XX=           -391.5116   YY=           -457.9758   ZZ=           -387.1389
   XY=            -55.5515   XZ=             -6.6832   YZ=            -27.4448

 Normal termination of Gaussian 16 at Thu May  5 12:15:27 2022.
