 Gaussian 16, Revision A.03,
 Gaussian 16:  ES64L-G16RevA.03 25-Dec-2016

 -----------------------------------
 #p cam-b3lyp/Def2SVP td=(nstates=5)
 -----------------------------------

 ------------------------------------------------------
 step_851_chromophore_2 TDDFT with cam-b3lyp functional
 ------------------------------------------------------
 Symbolic Z-matrix:
 Charge =  0 Multiplicity = 1

                         Standard orientation:
 ---------------------------------------------------------------------
 Center     Atomic      Atomic             Coordinates (Angstroms)
 Number     Number       Type             X           Y           Z
 ---------------------------------------------------------------------
      1         12           0       -4.776022    1.275659    0.386369
      2          6           0       -5.042986   -2.234932    0.403130
      3          6           0       -2.566302    0.916663    3.166308
      4          6           0       -4.144909    4.428748    0.188724
      5          6           0       -6.606281    1.256609   -2.518628
      6          7           0       -3.828817   -0.461386    1.540478
      7          6           0       -4.024461   -1.811864    1.326481
      8          6           0       -3.247024   -2.683876    2.277065
      9          6           0       -2.507328   -1.632352    3.227121
     10          6           0       -2.999848   -0.284279    2.665878
     11          6           0       -2.951109   -1.735242    4.780673
     12          6           0       -2.309856   -3.752457    1.738698
     13          6           0       -1.932324   -3.708512    0.257040
     14          6           0       -0.643964   -4.405069   -0.100654
     15          8           0       -0.283520   -5.483357    0.371017
     16          8           0        0.053211   -3.666031   -1.083150
     17          7           0       -3.465512    2.501853    1.485285
     18          6           0       -2.680096    2.212810    2.597548
     19          6           0       -2.159389    3.462229    3.109716
     20          6           0       -2.622154    4.472332    2.317709
     21          6           0       -3.396684    3.841160    1.211555
     22          6           0       -1.362252    3.390877    4.401083
     23          6           0       -2.275971    5.972702    2.467421
     24          8           0       -1.548190    6.400165    3.389735
     25          6           0       -2.681499    7.028560    1.401519
     26          7           0       -5.155494    2.579996   -1.143716
     27          6           0       -4.931161    3.859846   -0.851497
     28          6           0       -5.462223    4.795017   -2.016442
     29          6           0       -6.267961    3.746868   -2.949060
     30          6           0       -6.063203    2.461394   -2.174473
     31          6           0       -6.306462    6.003817   -1.467872
     32          6           0       -5.941516    3.706961   -4.451182
     33          6           0       -7.035014    3.783437   -5.448634
     34          7           0       -5.636686   -0.188112   -0.878876
     35          6           0       -6.408241   -0.022622   -1.963077
     36          6           0       -6.960549   -1.281466   -2.394974
     37          6           0       -6.461718   -2.179291   -1.487996
     38          6           0       -5.574410   -1.459225   -0.594587
     39          6           0       -7.728245   -1.660372   -3.603772
     40          6           0       -6.380304   -3.617237   -1.152214
     41          8           0       -6.874173   -4.611242   -1.679553
     42          6           0       -5.510353   -3.684372    0.108392
     43          6           0       -6.256804   -4.370345    1.141789
     44          8           0       -6.112402   -5.616635    1.354972
     45          8           0       -6.783013   -3.516522    2.098541
     46          6           0       -6.942522   -4.018256    3.433838
     47          6           0        1.343446   -4.161677   -1.471767
     48          6           0        2.198891   -2.982415   -1.402721
     49          6           0        3.264701   -2.671702   -2.212512
     50          6           0        3.775600   -3.428718   -3.430681
     51          6           0        3.765689   -1.248810   -1.911006
     52          6           0        4.858198   -1.245323   -0.806563
     53          6           0        6.352758   -1.105778   -1.143442
     54          6           0        7.033009    0.288776   -0.901835
     55          6           0        6.675220    1.265298   -2.045350
     56          6           0        8.608987    0.168794   -0.697517
     57          6           0        8.978521    0.359528    0.797241
     58          6           0       10.320260    1.185686    0.828744
     59          6           0       11.469659    0.214930    1.209808
     60          6           0       11.371666   -0.067238    2.713212
     61          6           0       12.796124    0.805611    0.788302
     62          6           0       13.599616   -0.111720   -0.113140
     63          6           0       14.508820    0.572910   -1.176929
     64          6           0       16.032832    0.505658   -0.748450
     65          6           0       16.690330    1.891974   -0.829505
     66          6           0       16.856716   -0.690024   -1.308750
     67          1           0       -1.991656    0.941936    4.094881
     68          1           0       -4.116634    5.520207    0.204706
     69          1           0       -7.412224    1.296920   -3.255017
     70          1           0       -3.971857   -3.183439    2.921995
     71          1           0       -1.424316   -1.653447    3.108823
     72          1           0       -2.131014   -1.634263    5.492106
     73          1           0       -3.490120   -2.675529    4.903745
     74          1           0       -3.702923   -0.977685    5.000485
     75          1           0       -2.662247   -4.758127    1.964722
     76          1           0       -1.368477   -3.642114    2.277081
     77          1           0       -1.940421   -2.727701   -0.218958
     78          1           0       -2.625127   -4.267561   -0.372018
     79          1           0       -0.857033    4.347586    4.533354
     80          1           0       -0.577318    2.641006    4.299992
     81          1           0       -2.064646    3.191416    5.209674
     82          1           0       -3.768432    7.107481    1.428802
     83          1           0       -2.193529    6.878009    0.438409
     84          1           0       -2.296631    8.029247    1.595397
     85          1           0       -4.577404    5.134600   -2.554561
     86          1           0       -7.325342    3.996051   -2.860242
     87          1           0       -6.464153    6.729351   -2.265901
     88          1           0       -5.902292    6.488210   -0.579153
     89          1           0       -7.272657    5.697459   -1.066132
     90          1           0       -5.519952    2.706327   -4.539728
     91          1           0       -5.125775    4.372870   -4.731794
     92          1           0       -6.841171    4.595707   -6.149804
     93          1           0       -8.028402    3.916672   -5.019630
     94          1           0       -7.130599    2.816346   -5.942055
     95          1           0       -7.453408   -0.889482   -4.322626
     96          1           0       -8.816101   -1.656226   -3.535577
     97          1           0       -7.312245   -2.609059   -3.942895
     98          1           0       -4.762219   -4.423432   -0.176761
     99          1           0       -7.135402   -3.224855    4.155338
    100          1           0       -6.024498   -4.540284    3.703038
    101          1           0       -7.785941   -4.708727    3.451816
    102          1           0        1.163234   -4.426354   -2.513989
    103          1           0        1.746313   -4.993044   -0.893586
    104          1           0        1.916511   -2.286918   -0.613400
    105          1           0        3.383757   -4.438733   -3.550253
    106          1           0        4.771117   -3.671465   -3.060886
    107          1           0        3.742258   -2.877423   -4.370623
    108          1           0        2.968790   -0.550484   -1.654641
    109          1           0        4.109593   -0.892586   -2.882469
    110          1           0        4.749364   -2.118342   -0.163299
    111          1           0        4.474092   -0.388356   -0.252640
    112          1           0        6.520039   -1.414158   -2.174800
    113          1           0        6.845861   -1.912988   -0.601399
    114          1           0        6.541213    0.738744   -0.038686
    115          1           0        5.871323    0.937066   -2.703986
    116          1           0        7.562558    1.490556   -2.638106
    117          1           0        6.604723    2.247139   -1.575789
    118          1           0        9.153420    0.761151   -1.432019
    119          1           0        8.770636   -0.894317   -0.875138
    120          1           0        9.044651   -0.633974    1.240864
    121          1           0        8.147325    0.806746    1.341260
    122          1           0       10.194305    1.895121    1.647283
    123          1           0       10.601371    1.734921   -0.070431
    124          1           0       11.295951   -0.715169    0.667577
    125          1           0       11.326553   -1.141158    2.891497
    126          1           0       10.687471    0.454002    3.382779
    127          1           0       12.270644    0.143087    3.293245
    128          1           0       13.424831    0.982551    1.660700
    129          1           0       12.654084    1.779249    0.319838
    130          1           0       12.874125   -0.754466   -0.611128
    131          1           0       14.214657   -0.774401    0.495719
    132          1           0       14.195683    1.617023   -1.191256
    133          1           0       14.225898    0.139728   -2.136429
    134          1           0       16.042448    0.318277    0.325038
    135          1           0       16.313176    2.512527   -1.642353
    136          1           0       17.772732    1.810444   -0.924305
    137          1           0       16.448488    2.397286    0.107136
    138          1           0       17.210637   -1.348433   -0.514799
    139          1           0       17.619747   -0.441963   -2.045458
    140          1           0       16.219624   -1.375861   -1.866294
 ---------------------------------------------------------------------

 SCF Done:  E(RCAM-B3LYP) =  -3007.13977468     A.U. after   17 cycles

 Excitation energies and oscillator strengths:

 Excited State   1:      Singlet-A      1.7201 eV  720.78 nm  f=0.3879  <S**2>=0.000
     245 -> 248        0.17827
     246 -> 247        0.68614
     245 <- 248        0.10777
 This state for optimization and/or second-order correction.
 Total Energy, E(TD-HF/TD-DFT) =  -3007.07656104
 Copying the excited state density for this state as the 1-particle RhoCI density.

 Excited State   2:      Singlet-A      2.3112 eV  536.45 nm  f=0.0516  <S**2>=0.000
     245 -> 247        0.60608
     246 -> 248       -0.35395

 Excited State   3:      Singlet-A      3.4532 eV  359.04 nm  f=0.4568  <S**2>=0.000
     242 -> 247        0.31483
     245 -> 247        0.27797
     246 -> 248        0.52048
     246 -> 250       -0.12662

 Excited State   4:      Singlet-A      3.5155 eV  352.68 nm  f=0.0012  <S**2>=0.000
     240 -> 247       -0.18623
     240 -> 249       -0.14877
     240 -> 251        0.15575
     241 -> 247        0.26906
     241 -> 251       -0.13614
     242 -> 249       -0.23092
     243 -> 247        0.46429

 Excited State   5:      Singlet-A      3.5475 eV  349.50 nm  f=0.1105  <S**2>=0.000
     240 -> 247        0.35241
     240 -> 249        0.22870
     240 -> 251       -0.20072
     241 -> 249       -0.17787
     242 -> 247        0.28151
     242 -> 251       -0.14974
     243 -> 247        0.15611
     245 -> 247       -0.12334
     246 -> 248       -0.21079

 The electronic state is 1-A.
 Alpha  occ. eigenvalues --  -46.89661 -19.25203 -19.24383 -19.20011 -19.19421
 Alpha  occ. eigenvalues --  -19.19400 -19.19359 -14.42991 -14.42551 -14.40037
 Alpha  occ. eigenvalues --  -14.39428 -10.39735 -10.39441 -10.36261 -10.35365
 Alpha  occ. eigenvalues --  -10.32072 -10.32052 -10.31893 -10.31309 -10.31072
 Alpha  occ. eigenvalues --  -10.30937 -10.30556 -10.30047 -10.29684 -10.29232
 Alpha  occ. eigenvalues --  -10.29165 -10.28681 -10.28613 -10.28550 -10.28492
 Alpha  occ. eigenvalues --  -10.28374 -10.28252 -10.27839 -10.27538 -10.27400
 Alpha  occ. eigenvalues --  -10.27294 -10.27278 -10.27234 -10.27228 -10.27076
 Alpha  occ. eigenvalues --  -10.26807 -10.26723 -10.26713 -10.26436 -10.26359
 Alpha  occ. eigenvalues --  -10.26065 -10.26058 -10.25752 -10.25738 -10.25570
 Alpha  occ. eigenvalues --  -10.25350 -10.25168 -10.25085 -10.24848 -10.24801
 Alpha  occ. eigenvalues --  -10.24738 -10.24738 -10.24687 -10.24673 -10.24640
 Alpha  occ. eigenvalues --  -10.24338 -10.24161 -10.24109 -10.24107 -10.23970
 Alpha  occ. eigenvalues --  -10.23782  -3.18184  -1.93067  -1.92664  -1.92463
 Alpha  occ. eigenvalues --   -1.15705  -1.15147  -1.09859  -1.08913  -1.07746
 Alpha  occ. eigenvalues --   -1.05973  -1.05811  -1.04488  -1.03265  -1.02297
 Alpha  occ. eigenvalues --   -0.93248  -0.90141  -0.89998  -0.89977  -0.89538
 Alpha  occ. eigenvalues --   -0.88901  -0.88016  -0.87919  -0.87638  -0.87003
 Alpha  occ. eigenvalues --   -0.86804  -0.85707  -0.84696  -0.84287  -0.83652
 Alpha  occ. eigenvalues --   -0.82596  -0.82159  -0.81232  -0.81156  -0.80397
 Alpha  occ. eigenvalues --   -0.79636  -0.78828  -0.78412  -0.77821  -0.77273
 Alpha  occ. eigenvalues --   -0.76264  -0.75734  -0.75644  -0.74814  -0.73914
 Alpha  occ. eigenvalues --   -0.73470  -0.72840  -0.72453  -0.70561  -0.69841
 Alpha  occ. eigenvalues --   -0.69329  -0.68020  -0.67598  -0.66254  -0.66147
 Alpha  occ. eigenvalues --   -0.65790  -0.65296  -0.64984  -0.64803  -0.63870
 Alpha  occ. eigenvalues --   -0.63856  -0.63311  -0.63051  -0.62725  -0.60377
 Alpha  occ. eigenvalues --   -0.60092  -0.59948  -0.59493  -0.58652  -0.58061
 Alpha  occ. eigenvalues --   -0.57995  -0.57034  -0.56861  -0.56474  -0.55690
 Alpha  occ. eigenvalues --   -0.55335  -0.54967  -0.54849  -0.54395  -0.53982
 Alpha  occ. eigenvalues --   -0.53548  -0.53335  -0.53020  -0.52915  -0.52868
 Alpha  occ. eigenvalues --   -0.52533  -0.52453  -0.52230  -0.52085  -0.51953
 Alpha  occ. eigenvalues --   -0.51514  -0.51237  -0.51129  -0.51017  -0.50811
 Alpha  occ. eigenvalues --   -0.50517  -0.50312  -0.50284  -0.50087  -0.49705
 Alpha  occ. eigenvalues --   -0.49597  -0.49340  -0.49179  -0.48971  -0.48802
 Alpha  occ. eigenvalues --   -0.48713  -0.48497  -0.48109  -0.47903  -0.47815
 Alpha  occ. eigenvalues --   -0.47667  -0.47369  -0.47046  -0.46789  -0.46707
 Alpha  occ. eigenvalues --   -0.46519  -0.46432  -0.46237  -0.46179  -0.46071
 Alpha  occ. eigenvalues --   -0.45938  -0.45746  -0.45600  -0.45468  -0.45418
 Alpha  occ. eigenvalues --   -0.44949  -0.44739  -0.44493  -0.44120  -0.44085
 Alpha  occ. eigenvalues --   -0.43810  -0.43582  -0.43255  -0.43162  -0.43008
 Alpha  occ. eigenvalues --   -0.42694  -0.42627  -0.42575  -0.42349  -0.42146
 Alpha  occ. eigenvalues --   -0.41982  -0.41891  -0.41518  -0.41439  -0.41374
 Alpha  occ. eigenvalues --   -0.41160  -0.41105  -0.40908  -0.40678  -0.40325
 Alpha  occ. eigenvalues --   -0.39830  -0.39245  -0.39116  -0.38858  -0.38679
 Alpha  occ. eigenvalues --   -0.38633  -0.37795  -0.37745  -0.37423  -0.37340
 Alpha  occ. eigenvalues --   -0.37096  -0.37072  -0.36858  -0.36343  -0.36174
 Alpha  occ. eigenvalues --   -0.35896  -0.35644  -0.35167  -0.34763  -0.34208
 Alpha  occ. eigenvalues --   -0.34005  -0.33627  -0.33438  -0.32146  -0.31223
 Alpha  occ. eigenvalues --   -0.31037  -0.30898  -0.30523  -0.28509  -0.24920
 Alpha  occ. eigenvalues --   -0.21264
 Alpha virt. eigenvalues --   -0.08735  -0.02385  -0.00189   0.01173   0.01552
 Alpha virt. eigenvalues --    0.03084   0.04639   0.05065   0.06101   0.06669
 Alpha virt. eigenvalues --    0.07121   0.08110   0.08283   0.08788   0.08998

 Mulliken charges:
               1
     1  Mg   0.820601
     2  C    0.040543
     3  C   -0.063980
     4  C   -0.071325
     5  C   -0.100892
     6  N   -0.273747
     7  C   -0.032312
     8  C    0.046488
     9  C   -0.095262
    10  C    0.065457
    11  C    0.055879
    12  C    0.079820
    13  C    0.047512
    14  C    0.153914
    15  O   -0.233288
    16  O   -0.359455
    17  N   -0.385992
    18  C    0.086900
    19  C   -0.141841
    20  C   -0.041704
    21  C    0.156615
    22  C    0.130827
    23  C    0.012238
    24  O   -0.215686
    25  C    0.047970
    26  N   -0.331657
    27  C    0.071783
    28  C   -0.052635
    29  C    0.025765
    30  C    0.021844
    31  C    0.053884
    32  C    0.047121
    33  C    0.011618
    34  N   -0.268978
    35  C    0.094068
    36  C   -0.183645
    37  C   -0.003005
    38  C    0.065964
    39  C    0.128567
    40  C    0.041249
    41  O   -0.161471
    42  C   -0.052931
    43  C    0.230517
    44  O   -0.257151
    45  O   -0.333847
    46  C    0.183419
    47  C    0.317410
    48  C   -0.132759
    49  C   -0.195374
    50  C    0.097149
    51  C    0.043868
    52  C    0.032693
    53  C    0.046628
    54  C   -0.140057
    55  C    0.056029
    56  C    0.067985
    57  C    0.008970
    58  C    0.048093
    59  C   -0.134487
    60  C    0.046702
    61  C    0.096624
    62  C   -0.028410
    63  C    0.069713
    64  C   -0.141079
    65  C    0.038538
    66  C    0.050295
    67  H   -0.027413
    68  H   -0.058943
    69  H   -0.030030
    70  H   -0.000684
    71  H    0.029164
    72  H    0.032708
    73  H    0.012337
    74  H    0.019932
    75  H    0.028579
    76  H    0.011134
    77  H    0.032864
    78  H    0.035513
    79  H    0.034034
    80  H    0.024560
    81  H    0.037137
    82  H    0.047934
    83  H    0.045512
    84  H    0.015024
    85  H    0.021892
    86  H    0.000729
    87  H    0.023845
    88  H    0.013949
    89  H    0.008050
    90  H    0.006690
    91  H    0.004864
    92  H    0.022695
    93  H    0.005976
    94  H    0.016626
    95  H   -0.000186
    96  H    0.037552
    97  H    0.042588
    98  H    0.052913
    99  H    0.034592
   100  H    0.030805
   101  H    0.040327
   102  H    0.012863
   103  H    0.046248
   104  H   -0.006031
   105  H    0.003218
   106  H    0.017326
   107  H    0.044265
   108  H    0.011333
   109  H   -0.012639
   110  H    0.001301
   111  H   -0.006463
   112  H   -0.013908
   113  H   -0.015497
   114  H   -0.000913
   115  H    0.019825
   116  H   -0.013487
   117  H   -0.001158
   118  H    0.006050
   119  H   -0.008860
   120  H    0.001753
   121  H   -0.005178
   122  H   -0.007225
   123  H    0.002839
   124  H    0.001871
   125  H   -0.001891
   126  H    0.009874
   127  H   -0.015609
   128  H   -0.015204
   129  H   -0.012752
   130  H   -0.015079
   131  H   -0.003347
   132  H   -0.014596
   133  H    0.000398
   134  H   -0.001430
   135  H    0.011262
   136  H    0.002980
   137  H    0.007092
   138  H    0.008758
   139  H    0.011088
   140  H   -0.010633
 Sum of Mulliken charges =  -0.00000

 Dipole moment (field-independent basis, Debye):
    X=             -0.1732    Y=              6.2741    Z=             -0.5757  Tot=              6.3028
 Quadrupole moment (field-independent basis, Debye-Ang):
   XX=           -392.1860   YY=           -455.4644   ZZ=           -385.1341
   XY=            -58.4025   XZ=             -7.1376   YZ=            -27.9863

 Normal termination of Gaussian 16 at Thu May  5 11:20:13 2022.
