 Gaussian 16, Revision A.03,
 Gaussian 16:  ES64L-G16RevA.03 25-Dec-2016

 ---------------------------------
 #p PBE1PBE/Def2SVP td=(nstates=5)
 ---------------------------------

 ----------------------------------------------------
 step_851_chromophore_2 TDDFT with PBE1PBE functional
 ----------------------------------------------------
 Symbolic Z-matrix:
 Charge =  0 Multiplicity = 1

                         Standard orientation:
 ---------------------------------------------------------------------
 Center     Atomic      Atomic             Coordinates (Angstroms)
 Number     Number       Type             X           Y           Z
 ---------------------------------------------------------------------
      1         12           0       -4.776022    1.275659    0.386369
      2          6           0       -5.042986   -2.234932    0.403130
      3          6           0       -2.566302    0.916663    3.166308
      4          6           0       -4.144909    4.428748    0.188724
      5          6           0       -6.606281    1.256609   -2.518628
      6          7           0       -3.828817   -0.461386    1.540478
      7          6           0       -4.024461   -1.811864    1.326481
      8          6           0       -3.247024   -2.683876    2.277065
      9          6           0       -2.507328   -1.632352    3.227121
     10          6           0       -2.999848   -0.284279    2.665878
     11          6           0       -2.951109   -1.735242    4.780673
     12          6           0       -2.309856   -3.752457    1.738698
     13          6           0       -1.932324   -3.708512    0.257040
     14          6           0       -0.643964   -4.405069   -0.100654
     15          8           0       -0.283520   -5.483357    0.371017
     16          8           0        0.053211   -3.666031   -1.083150
     17          7           0       -3.465512    2.501853    1.485285
     18          6           0       -2.680096    2.212810    2.597548
     19          6           0       -2.159389    3.462229    3.109716
     20          6           0       -2.622154    4.472332    2.317709
     21          6           0       -3.396684    3.841160    1.211555
     22          6           0       -1.362252    3.390877    4.401083
     23          6           0       -2.275971    5.972702    2.467421
     24          8           0       -1.548190    6.400165    3.389735
     25          6           0       -2.681499    7.028560    1.401519
     26          7           0       -5.155494    2.579996   -1.143716
     27          6           0       -4.931161    3.859846   -0.851497
     28          6           0       -5.462223    4.795017   -2.016442
     29          6           0       -6.267961    3.746868   -2.949060
     30          6           0       -6.063203    2.461394   -2.174473
     31          6           0       -6.306462    6.003817   -1.467872
     32          6           0       -5.941516    3.706961   -4.451182
     33          6           0       -7.035014    3.783437   -5.448634
     34          7           0       -5.636686   -0.188112   -0.878876
     35          6           0       -6.408241   -0.022622   -1.963077
     36          6           0       -6.960549   -1.281466   -2.394974
     37          6           0       -6.461718   -2.179291   -1.487996
     38          6           0       -5.574410   -1.459225   -0.594587
     39          6           0       -7.728245   -1.660372   -3.603772
     40          6           0       -6.380304   -3.617237   -1.152214
     41          8           0       -6.874173   -4.611242   -1.679553
     42          6           0       -5.510353   -3.684372    0.108392
     43          6           0       -6.256804   -4.370345    1.141789
     44          8           0       -6.112402   -5.616635    1.354972
     45          8           0       -6.783013   -3.516522    2.098541
     46          6           0       -6.942522   -4.018256    3.433838
     47          6           0        1.343446   -4.161677   -1.471767
     48          6           0        2.198891   -2.982415   -1.402721
     49          6           0        3.264701   -2.671702   -2.212512
     50          6           0        3.775600   -3.428718   -3.430681
     51          6           0        3.765689   -1.248810   -1.911006
     52          6           0        4.858198   -1.245323   -0.806563
     53          6           0        6.352758   -1.105778   -1.143442
     54          6           0        7.033009    0.288776   -0.901835
     55          6           0        6.675220    1.265298   -2.045350
     56          6           0        8.608987    0.168794   -0.697517
     57          6           0        8.978521    0.359528    0.797241
     58          6           0       10.320260    1.185686    0.828744
     59          6           0       11.469659    0.214930    1.209808
     60          6           0       11.371666   -0.067238    2.713212
     61          6           0       12.796124    0.805611    0.788302
     62          6           0       13.599616   -0.111720   -0.113140
     63          6           0       14.508820    0.572910   -1.176929
     64          6           0       16.032832    0.505658   -0.748450
     65          6           0       16.690330    1.891974   -0.829505
     66          6           0       16.856716   -0.690024   -1.308750
     67          1           0       -1.991656    0.941936    4.094881
     68          1           0       -4.116634    5.520207    0.204706
     69          1           0       -7.412224    1.296920   -3.255017
     70          1           0       -3.971857   -3.183439    2.921995
     71          1           0       -1.424316   -1.653447    3.108823
     72          1           0       -2.131014   -1.634263    5.492106
     73          1           0       -3.490120   -2.675529    4.903745
     74          1           0       -3.702923   -0.977685    5.000485
     75          1           0       -2.662247   -4.758127    1.964722
     76          1           0       -1.368477   -3.642114    2.277081
     77          1           0       -1.940421   -2.727701   -0.218958
     78          1           0       -2.625127   -4.267561   -0.372018
     79          1           0       -0.857033    4.347586    4.533354
     80          1           0       -0.577318    2.641006    4.299992
     81          1           0       -2.064646    3.191416    5.209674
     82          1           0       -3.768432    7.107481    1.428802
     83          1           0       -2.193529    6.878009    0.438409
     84          1           0       -2.296631    8.029247    1.595397
     85          1           0       -4.577404    5.134600   -2.554561
     86          1           0       -7.325342    3.996051   -2.860242
     87          1           0       -6.464153    6.729351   -2.265901
     88          1           0       -5.902292    6.488210   -0.579153
     89          1           0       -7.272657    5.697459   -1.066132
     90          1           0       -5.519952    2.706327   -4.539728
     91          1           0       -5.125775    4.372870   -4.731794
     92          1           0       -6.841171    4.595707   -6.149804
     93          1           0       -8.028402    3.916672   -5.019630
     94          1           0       -7.130599    2.816346   -5.942055
     95          1           0       -7.453408   -0.889482   -4.322626
     96          1           0       -8.816101   -1.656226   -3.535577
     97          1           0       -7.312245   -2.609059   -3.942895
     98          1           0       -4.762219   -4.423432   -0.176761
     99          1           0       -7.135402   -3.224855    4.155338
    100          1           0       -6.024498   -4.540284    3.703038
    101          1           0       -7.785941   -4.708727    3.451816
    102          1           0        1.163234   -4.426354   -2.513989
    103          1           0        1.746313   -4.993044   -0.893586
    104          1           0        1.916511   -2.286918   -0.613400
    105          1           0        3.383757   -4.438733   -3.550253
    106          1           0        4.771117   -3.671465   -3.060886
    107          1           0        3.742258   -2.877423   -4.370623
    108          1           0        2.968790   -0.550484   -1.654641
    109          1           0        4.109593   -0.892586   -2.882469
    110          1           0        4.749364   -2.118342   -0.163299
    111          1           0        4.474092   -0.388356   -0.252640
    112          1           0        6.520039   -1.414158   -2.174800
    113          1           0        6.845861   -1.912988   -0.601399
    114          1           0        6.541213    0.738744   -0.038686
    115          1           0        5.871323    0.937066   -2.703986
    116          1           0        7.562558    1.490556   -2.638106
    117          1           0        6.604723    2.247139   -1.575789
    118          1           0        9.153420    0.761151   -1.432019
    119          1           0        8.770636   -0.894317   -0.875138
    120          1           0        9.044651   -0.633974    1.240864
    121          1           0        8.147325    0.806746    1.341260
    122          1           0       10.194305    1.895121    1.647283
    123          1           0       10.601371    1.734921   -0.070431
    124          1           0       11.295951   -0.715169    0.667577
    125          1           0       11.326553   -1.141158    2.891497
    126          1           0       10.687471    0.454002    3.382779
    127          1           0       12.270644    0.143087    3.293245
    128          1           0       13.424831    0.982551    1.660700
    129          1           0       12.654084    1.779249    0.319838
    130          1           0       12.874125   -0.754466   -0.611128
    131          1           0       14.214657   -0.774401    0.495719
    132          1           0       14.195683    1.617023   -1.191256
    133          1           0       14.225898    0.139728   -2.136429
    134          1           0       16.042448    0.318277    0.325038
    135          1           0       16.313176    2.512527   -1.642353
    136          1           0       17.772732    1.810444   -0.924305
    137          1           0       16.448488    2.397286    0.107136
    138          1           0       17.210637   -1.348433   -0.514799
    139          1           0       17.619747   -0.441963   -2.045458
    140          1           0       16.219624   -1.375861   -1.866294
 ---------------------------------------------------------------------

 SCF Done:  E(RPBE1PBE) =  -3005.32881304     A.U. after   15 cycles

 Excitation energies and oscillator strengths:

 Excited State   1:      Singlet-A      1.8736 eV  661.73 nm  f=0.3819  <S**2>=0.000
     245 -> 248        0.17189
     246 -> 247        0.69370
     246 <- 247       -0.10852
 This state for optimization and/or second-order correction.
 Total Energy, E(TD-HF/TD-DFT) =  -3005.25995826
 Copying the excited state density for this state as the 1-particle RhoCI density.

 Excited State   2:      Singlet-A      2.3177 eV  534.93 nm  f=0.0561  <S**2>=0.000
     245 -> 247        0.62384
     246 -> 248       -0.32387

 Excited State   3:      Singlet-A      3.0158 eV  411.12 nm  f=0.0001  <S**2>=0.000
     244 -> 247        0.70235

 Excited State   4:      Singlet-A      3.0259 eV  409.74 nm  f=0.0014  <S**2>=0.000
     242 -> 247       -0.37585
     242 -> 249       -0.11744
     243 -> 247        0.53683
     243 -> 249        0.11888

 Excited State   5:      Singlet-A      3.0602 eV  405.14 nm  f=0.0007  <S**2>=0.000
     242 -> 247        0.53619
     242 -> 249       -0.13363
     242 -> 250       -0.11321
     243 -> 247        0.37540
     243 -> 249       -0.11879

 The electronic state is 1-A.
 Alpha  occ. eigenvalues --  -46.93047 -19.25833 -19.25126 -19.20303 -19.19692
 Alpha  occ. eigenvalues --  -19.19629 -19.19560 -14.42505 -14.42085 -14.39656
 Alpha  occ. eigenvalues --  -14.39059 -10.36762 -10.36486 -10.33389 -10.32566
 Alpha  occ. eigenvalues --  -10.29737 -10.29705 -10.29279 -10.29025 -10.28751
 Alpha  occ. eigenvalues --  -10.28632 -10.27927 -10.27679 -10.27496 -10.27054
 Alpha  occ. eigenvalues --  -10.27016 -10.26514 -10.26410 -10.26308 -10.26231
 Alpha  occ. eigenvalues --  -10.26136 -10.25788 -10.25467 -10.25297 -10.24920
 Alpha  occ. eigenvalues --  -10.24905 -10.24896 -10.24872 -10.24748 -10.24542
 Alpha  occ. eigenvalues --  -10.24420 -10.24394 -10.24083 -10.23995 -10.23818
 Alpha  occ. eigenvalues --  -10.23538 -10.23441 -10.23425 -10.23285 -10.23176
 Alpha  occ. eigenvalues --  -10.22913 -10.22901 -10.22861 -10.22400 -10.22351
 Alpha  occ. eigenvalues --  -10.22302 -10.22301 -10.22267 -10.22230 -10.22226
 Alpha  occ. eigenvalues --  -10.21707 -10.21634 -10.21529 -10.21491 -10.21377
 Alpha  occ. eigenvalues --  -10.21317  -3.15150  -1.87973  -1.87550  -1.87350
 Alpha  occ. eigenvalues --   -1.10464  -1.09960  -1.04631  -1.03568  -1.02619
 Alpha  occ. eigenvalues --   -1.00749  -1.00611  -0.99129  -0.97842  -0.96894
 Alpha  occ. eigenvalues --   -0.87623  -0.84339  -0.84311  -0.84094  -0.83689
 Alpha  occ. eigenvalues --   -0.83199  -0.82289  -0.82107  -0.82002  -0.81105
 Alpha  occ. eigenvalues --   -0.81082  -0.79959  -0.79009  -0.78523  -0.77837
 Alpha  occ. eigenvalues --   -0.76858  -0.76351  -0.75549  -0.75319  -0.74670
 Alpha  occ. eigenvalues --   -0.73784  -0.73169  -0.72703  -0.72062  -0.71580
 Alpha  occ. eigenvalues --   -0.70427  -0.70087  -0.69715  -0.68938  -0.68120
 Alpha  occ. eigenvalues --   -0.67846  -0.67249  -0.66879  -0.64882  -0.64225
 Alpha  occ. eigenvalues --   -0.63813  -0.62277  -0.62019  -0.60646  -0.60431
 Alpha  occ. eigenvalues --   -0.60241  -0.59830  -0.59560  -0.58992  -0.58400
 Alpha  occ. eigenvalues --   -0.57999  -0.57493  -0.57232  -0.57196  -0.54926
 Alpha  occ. eigenvalues --   -0.54584  -0.54435  -0.54085  -0.53208  -0.52674
 Alpha  occ. eigenvalues --   -0.52429  -0.51521  -0.51408  -0.50904  -0.50279
 Alpha  occ. eigenvalues --   -0.49811  -0.49473  -0.49371  -0.49020  -0.48597
 Alpha  occ. eigenvalues --   -0.48014  -0.47863  -0.47629  -0.47396  -0.47319
 Alpha  occ. eigenvalues --   -0.47053  -0.46993  -0.46748  -0.46569  -0.46492
 Alpha  occ. eigenvalues --   -0.46058  -0.45821  -0.45676  -0.45500  -0.45334
 Alpha  occ. eigenvalues --   -0.45110  -0.44910  -0.44841  -0.44662  -0.44304
 Alpha  occ. eigenvalues --   -0.44243  -0.43900  -0.43777  -0.43615  -0.43396
 Alpha  occ. eigenvalues --   -0.43328  -0.43102  -0.42697  -0.42556  -0.42487
 Alpha  occ. eigenvalues --   -0.42308  -0.42041  -0.41760  -0.41462  -0.41406
 Alpha  occ. eigenvalues --   -0.41245  -0.41029  -0.40989  -0.40826  -0.40784
 Alpha  occ. eigenvalues --   -0.40650  -0.40373  -0.40261  -0.40217  -0.40169
 Alpha  occ. eigenvalues --   -0.39774  -0.39415  -0.39230  -0.38927  -0.38795
 Alpha  occ. eigenvalues --   -0.38587  -0.38318  -0.37972  -0.37911  -0.37868
 Alpha  occ. eigenvalues --   -0.37517  -0.37414  -0.37288  -0.37133  -0.37016
 Alpha  occ. eigenvalues --   -0.36802  -0.36698  -0.36370  -0.36299  -0.36247
 Alpha  occ. eigenvalues --   -0.36078  -0.35928  -0.35658  -0.35526  -0.35112
 Alpha  occ. eigenvalues --   -0.34632  -0.34042  -0.33999  -0.33639  -0.33636
 Alpha  occ. eigenvalues --   -0.33442  -0.32805  -0.32556  -0.32414  -0.32200
 Alpha  occ. eigenvalues --   -0.31928  -0.31899  -0.31842  -0.31141  -0.31104
 Alpha  occ. eigenvalues --   -0.30695  -0.30560  -0.30074  -0.29941  -0.29471
 Alpha  occ. eigenvalues --   -0.29024  -0.28573  -0.28427  -0.27723  -0.26658
 Alpha  occ. eigenvalues --   -0.26301  -0.25808  -0.25744  -0.23825  -0.21789
 Alpha  occ. eigenvalues --   -0.18971
 Alpha virt. eigenvalues --   -0.11301  -0.05831  -0.04432  -0.02883  -0.01573
 Alpha virt. eigenvalues --   -0.01465   0.00278   0.00510   0.01675   0.02861
 Alpha virt. eigenvalues --    0.03245   0.04372   0.04724   0.05230   0.05765

 Mulliken charges:
               1
     1  Mg   0.964347
     2  C    0.054943
     3  C   -0.059489
     4  C   -0.071917
     5  C   -0.089942
     6  N   -0.372808
     7  C    0.038830
     8  C   -0.026785
     9  C   -0.169882
    10  C    0.098482
    11  C   -0.002162
    12  C    0.027268
    13  C   -0.034283
    14  C    0.225130
    15  O   -0.266433
    16  O   -0.389557
    17  N   -0.497248
    18  C    0.118760
    19  C   -0.168265
    20  C   -0.090442
    21  C    0.190050
    22  C    0.068041
    23  C    0.066737
    24  O   -0.250840
    25  C   -0.033540
    26  N   -0.436408
    27  C    0.105457
    28  C   -0.129268
    29  C   -0.039506
    30  C    0.049849
    31  C   -0.006456
    32  C   -0.015920
    33  C   -0.059440
    34  N   -0.400817
    35  C    0.112851
    36  C   -0.200464
    37  C   -0.039608
    38  C    0.097898
    39  C    0.074517
    40  C    0.129864
    41  O   -0.206961
    42  C   -0.172864
    43  C    0.327955
    44  O   -0.291098
    45  O   -0.366445
    46  C    0.129250
    47  C    0.275218
    48  C   -0.140029
    49  C   -0.238767
    50  C    0.029430
    51  C   -0.021883
    52  C   -0.024032
    53  C   -0.009324
    54  C   -0.223424
    55  C   -0.003589
    56  C    0.014333
    57  C   -0.050288
    58  C   -0.012330
    59  C   -0.225481
    60  C   -0.006024
    61  C    0.047886
    62  C   -0.093855
    63  C    0.014042
    64  C   -0.233377
    65  C   -0.024534
    66  C   -0.008724
    67  H    0.003185
    68  H   -0.020875
    69  H    0.003652
    70  H    0.046429
    71  H    0.064803
    72  H    0.059460
    73  H    0.039641
    74  H    0.047738
    75  H    0.059136
    76  H    0.044625
    77  H    0.066094
    78  H    0.071264
    79  H    0.062885
    80  H    0.051672
    81  H    0.065080
    82  H    0.073144
    83  H    0.071861
    84  H    0.043664
    85  H    0.058625
    86  H    0.039473
    87  H    0.052054
    88  H    0.041415
    89  H    0.035589
    90  H    0.042031
    91  H    0.037011
    92  H    0.050138
    93  H    0.032940
    94  H    0.043462
    95  H    0.028064
    96  H    0.065059
    97  H    0.070002
    98  H    0.092285
    99  H    0.056546
   100  H    0.050632
   101  H    0.062867
   102  H    0.041230
   103  H    0.072180
   104  H    0.024055
   105  H    0.030347
   106  H    0.047355
   107  H    0.069537
   108  H    0.042781
   109  H    0.020540
   110  H    0.033420
   111  H    0.025633
   112  H    0.019597
   113  H    0.017475
   114  H    0.035552
   115  H    0.047881
   116  H    0.014449
   117  H    0.027280
   118  H    0.035722
   119  H    0.025474
   120  H    0.033236
   121  H    0.026439
   122  H    0.027271
   123  H    0.034021
   124  H    0.039680
   125  H    0.025696
   126  H    0.035480
   127  H    0.011522
   128  H    0.017991
   129  H    0.017915
   130  H    0.018203
   131  H    0.029964
   132  H    0.018974
   133  H    0.031933
   134  H    0.037463
   135  H    0.038592
   136  H    0.030945
   137  H    0.035249
   138  H    0.035559
   139  H    0.037684
   140  H    0.017394
 Sum of Mulliken charges =  -0.00000

 Dipole moment (field-independent basis, Debye):
    X=             -0.2729    Y=              6.1768    Z=             -0.7096  Tot=              6.2234
 Quadrupole moment (field-independent basis, Debye-Ang):
   XX=           -388.1880   YY=           -452.8192   ZZ=           -380.9810
   XY=            -58.8046   XZ=             -5.5190   YZ=            -29.0076

 Normal termination of Gaussian 16 at Thu May  5 11:36:08 2022.
