 Gaussian 16, Revision A.03,
 Gaussian 16:  ES64L-G16RevA.03 25-Dec-2016

 --------------------------------
 #p wB97XD/Def2SVP td=(nstates=5)
 --------------------------------

 ---------------------------------------------------
 step_851_chromophore_2 TDDFT with wB97XD functional
 ---------------------------------------------------
 Symbolic Z-matrix:
 Charge =  0 Multiplicity = 1

                         Standard orientation:
 ---------------------------------------------------------------------
 Center     Atomic      Atomic             Coordinates (Angstroms)
 Number     Number       Type             X           Y           Z
 ---------------------------------------------------------------------
      1         12           0       -4.776022    1.275659    0.386369
      2          6           0       -5.042986   -2.234932    0.403130
      3          6           0       -2.566302    0.916663    3.166308
      4          6           0       -4.144909    4.428748    0.188724
      5          6           0       -6.606281    1.256609   -2.518628
      6          7           0       -3.828817   -0.461386    1.540478
      7          6           0       -4.024461   -1.811864    1.326481
      8          6           0       -3.247024   -2.683876    2.277065
      9          6           0       -2.507328   -1.632352    3.227121
     10          6           0       -2.999848   -0.284279    2.665878
     11          6           0       -2.951109   -1.735242    4.780673
     12          6           0       -2.309856   -3.752457    1.738698
     13          6           0       -1.932324   -3.708512    0.257040
     14          6           0       -0.643964   -4.405069   -0.100654
     15          8           0       -0.283520   -5.483357    0.371017
     16          8           0        0.053211   -3.666031   -1.083150
     17          7           0       -3.465512    2.501853    1.485285
     18          6           0       -2.680096    2.212810    2.597548
     19          6           0       -2.159389    3.462229    3.109716
     20          6           0       -2.622154    4.472332    2.317709
     21          6           0       -3.396684    3.841160    1.211555
     22          6           0       -1.362252    3.390877    4.401083
     23          6           0       -2.275971    5.972702    2.467421
     24          8           0       -1.548190    6.400165    3.389735
     25          6           0       -2.681499    7.028560    1.401519
     26          7           0       -5.155494    2.579996   -1.143716
     27          6           0       -4.931161    3.859846   -0.851497
     28          6           0       -5.462223    4.795017   -2.016442
     29          6           0       -6.267961    3.746868   -2.949060
     30          6           0       -6.063203    2.461394   -2.174473
     31          6           0       -6.306462    6.003817   -1.467872
     32          6           0       -5.941516    3.706961   -4.451182
     33          6           0       -7.035014    3.783437   -5.448634
     34          7           0       -5.636686   -0.188112   -0.878876
     35          6           0       -6.408241   -0.022622   -1.963077
     36          6           0       -6.960549   -1.281466   -2.394974
     37          6           0       -6.461718   -2.179291   -1.487996
     38          6           0       -5.574410   -1.459225   -0.594587
     39          6           0       -7.728245   -1.660372   -3.603772
     40          6           0       -6.380304   -3.617237   -1.152214
     41          8           0       -6.874173   -4.611242   -1.679553
     42          6           0       -5.510353   -3.684372    0.108392
     43          6           0       -6.256804   -4.370345    1.141789
     44          8           0       -6.112402   -5.616635    1.354972
     45          8           0       -6.783013   -3.516522    2.098541
     46          6           0       -6.942522   -4.018256    3.433838
     47          6           0        1.343446   -4.161677   -1.471767
     48          6           0        2.198891   -2.982415   -1.402721
     49          6           0        3.264701   -2.671702   -2.212512
     50          6           0        3.775600   -3.428718   -3.430681
     51          6           0        3.765689   -1.248810   -1.911006
     52          6           0        4.858198   -1.245323   -0.806563
     53          6           0        6.352758   -1.105778   -1.143442
     54          6           0        7.033009    0.288776   -0.901835
     55          6           0        6.675220    1.265298   -2.045350
     56          6           0        8.608987    0.168794   -0.697517
     57          6           0        8.978521    0.359528    0.797241
     58          6           0       10.320260    1.185686    0.828744
     59          6           0       11.469659    0.214930    1.209808
     60          6           0       11.371666   -0.067238    2.713212
     61          6           0       12.796124    0.805611    0.788302
     62          6           0       13.599616   -0.111720   -0.113140
     63          6           0       14.508820    0.572910   -1.176929
     64          6           0       16.032832    0.505658   -0.748450
     65          6           0       16.690330    1.891974   -0.829505
     66          6           0       16.856716   -0.690024   -1.308750
     67          1           0       -1.991656    0.941936    4.094881
     68          1           0       -4.116634    5.520207    0.204706
     69          1           0       -7.412224    1.296920   -3.255017
     70          1           0       -3.971857   -3.183439    2.921995
     71          1           0       -1.424316   -1.653447    3.108823
     72          1           0       -2.131014   -1.634263    5.492106
     73          1           0       -3.490120   -2.675529    4.903745
     74          1           0       -3.702923   -0.977685    5.000485
     75          1           0       -2.662247   -4.758127    1.964722
     76          1           0       -1.368477   -3.642114    2.277081
     77          1           0       -1.940421   -2.727701   -0.218958
     78          1           0       -2.625127   -4.267561   -0.372018
     79          1           0       -0.857033    4.347586    4.533354
     80          1           0       -0.577318    2.641006    4.299992
     81          1           0       -2.064646    3.191416    5.209674
     82          1           0       -3.768432    7.107481    1.428802
     83          1           0       -2.193529    6.878009    0.438409
     84          1           0       -2.296631    8.029247    1.595397
     85          1           0       -4.577404    5.134600   -2.554561
     86          1           0       -7.325342    3.996051   -2.860242
     87          1           0       -6.464153    6.729351   -2.265901
     88          1           0       -5.902292    6.488210   -0.579153
     89          1           0       -7.272657    5.697459   -1.066132
     90          1           0       -5.519952    2.706327   -4.539728
     91          1           0       -5.125775    4.372870   -4.731794
     92          1           0       -6.841171    4.595707   -6.149804
     93          1           0       -8.028402    3.916672   -5.019630
     94          1           0       -7.130599    2.816346   -5.942055
     95          1           0       -7.453408   -0.889482   -4.322626
     96          1           0       -8.816101   -1.656226   -3.535577
     97          1           0       -7.312245   -2.609059   -3.942895
     98          1           0       -4.762219   -4.423432   -0.176761
     99          1           0       -7.135402   -3.224855    4.155338
    100          1           0       -6.024498   -4.540284    3.703038
    101          1           0       -7.785941   -4.708727    3.451816
    102          1           0        1.163234   -4.426354   -2.513989
    103          1           0        1.746313   -4.993044   -0.893586
    104          1           0        1.916511   -2.286918   -0.613400
    105          1           0        3.383757   -4.438733   -3.550253
    106          1           0        4.771117   -3.671465   -3.060886
    107          1           0        3.742258   -2.877423   -4.370623
    108          1           0        2.968790   -0.550484   -1.654641
    109          1           0        4.109593   -0.892586   -2.882469
    110          1           0        4.749364   -2.118342   -0.163299
    111          1           0        4.474092   -0.388356   -0.252640
    112          1           0        6.520039   -1.414158   -2.174800
    113          1           0        6.845861   -1.912988   -0.601399
    114          1           0        6.541213    0.738744   -0.038686
    115          1           0        5.871323    0.937066   -2.703986
    116          1           0        7.562558    1.490556   -2.638106
    117          1           0        6.604723    2.247139   -1.575789
    118          1           0        9.153420    0.761151   -1.432019
    119          1           0        8.770636   -0.894317   -0.875138
    120          1           0        9.044651   -0.633974    1.240864
    121          1           0        8.147325    0.806746    1.341260
    122          1           0       10.194305    1.895121    1.647283
    123          1           0       10.601371    1.734921   -0.070431
    124          1           0       11.295951   -0.715169    0.667577
    125          1           0       11.326553   -1.141158    2.891497
    126          1           0       10.687471    0.454002    3.382779
    127          1           0       12.270644    0.143087    3.293245
    128          1           0       13.424831    0.982551    1.660700
    129          1           0       12.654084    1.779249    0.319838
    130          1           0       12.874125   -0.754466   -0.611128
    131          1           0       14.214657   -0.774401    0.495719
    132          1           0       14.195683    1.617023   -1.191256
    133          1           0       14.225898    0.139728   -2.136429
    134          1           0       16.042448    0.318277    0.325038
    135          1           0       16.313176    2.512527   -1.642353
    136          1           0       17.772732    1.810444   -0.924305
    137          1           0       16.448488    2.397286    0.107136
    138          1           0       17.210637   -1.348433   -0.514799
    139          1           0       17.619747   -0.441963   -2.045458
    140          1           0       16.219624   -1.375861   -1.866294
 ---------------------------------------------------------------------

 SCF Done:  E(RwB97XD) =  -3007.83633907     A.U. after   19 cycles

 Excitation energies and oscillator strengths:

 Excited State   1:      Singlet-A      1.6647 eV  744.79 nm  f=0.3858  <S**2>=0.000
     245 -> 248        0.18399
     246 -> 247        0.68401
     245 <- 248        0.11703
 This state for optimization and/or second-order correction.
 Total Energy, E(TD-HF/TD-DFT) =  -3007.77516269
 Copying the excited state density for this state as the 1-particle RhoCI density.

 Excited State   2:      Singlet-A      2.2580 eV  549.08 nm  f=0.0513  <S**2>=0.000
     245 -> 247        0.60594
     246 -> 248       -0.35362

 Excited State   3:      Singlet-A      3.4721 eV  357.09 nm  f=0.4709  <S**2>=0.000
     240 -> 247       -0.10791
     242 -> 247        0.31008
     243 -> 249        0.12316
     245 -> 247        0.27508
     246 -> 248        0.51923

 Excited State   4:      Singlet-A      3.5351 eV  350.73 nm  f=0.0123  <S**2>=0.000
     240 -> 247       -0.12298
     240 -> 249        0.12796
     240 -> 250        0.12459
     241 -> 247       -0.23159
     241 -> 250        0.18341
     242 -> 247       -0.11636
     242 -> 249        0.28359
     243 -> 247        0.44913
     243 -> 250       -0.10795

 Excited State   5:      Singlet-A      3.5687 eV  347.43 nm  f=0.1145  <S**2>=0.000
     240 -> 247        0.26333
     240 -> 249       -0.13919
     240 -> 250       -0.11468
     241 -> 249       -0.23023
     242 -> 247        0.28377
     242 -> 250       -0.19745
     243 -> 247        0.31108
     243 -> 249        0.15874
     245 -> 247       -0.11860
     246 -> 248       -0.20974

 The electronic state is 1-A.
 Alpha  occ. eigenvalues --  -46.96020 -19.30413 -19.29631 -19.24956 -19.24464
 Alpha  occ. eigenvalues --  -19.24412 -19.24406 -14.47630 -14.47134 -14.44658
 Alpha  occ. eigenvalues --  -14.43998 -10.43607 -10.43265 -10.40291 -10.39392
 Alpha  occ. eigenvalues --  -10.36111 -10.35913 -10.35795 -10.35373 -10.35164
 Alpha  occ. eigenvalues --  -10.34930 -10.34388 -10.34127 -10.33662 -10.33302
 Alpha  occ. eigenvalues --  -10.33249 -10.32749 -10.32741 -10.32554 -10.32526
 Alpha  occ. eigenvalues --  -10.32424 -10.32410 -10.31963 -10.31618 -10.31363
 Alpha  occ. eigenvalues --  -10.31321 -10.31314 -10.31243 -10.31133 -10.30966
 Alpha  occ. eigenvalues --  -10.30727 -10.30711 -10.30704 -10.30271 -10.30253
 Alpha  occ. eigenvalues --  -10.30019 -10.29922 -10.29707 -10.29562 -10.29539
 Alpha  occ. eigenvalues --  -10.29279 -10.29142 -10.29130 -10.28771 -10.28725
 Alpha  occ. eigenvalues --  -10.28666 -10.28657 -10.28616 -10.28590 -10.28577
 Alpha  occ. eigenvalues --  -10.28137 -10.27999 -10.27963 -10.27928 -10.27805
 Alpha  occ. eigenvalues --  -10.27687  -3.21988  -1.95558  -1.95136  -1.94935
 Alpha  occ. eigenvalues --   -1.17879  -1.17317  -1.12092  -1.11155  -1.09942
 Alpha  occ. eigenvalues --   -1.08030  -1.07983  -1.06503  -1.05313  -1.04328
 Alpha  occ. eigenvalues --   -0.95230  -0.91967  -0.91887  -0.91750  -0.91340
 Alpha  occ. eigenvalues --   -0.90825  -0.89864  -0.89775  -0.89579  -0.88801
 Alpha  occ. eigenvalues --   -0.88768  -0.87606  -0.86617  -0.86162  -0.85491
 Alpha  occ. eigenvalues --   -0.84499  -0.84031  -0.83204  -0.83034  -0.82317
 Alpha  occ. eigenvalues --   -0.81448  -0.80764  -0.80320  -0.79784  -0.79201
 Alpha  occ. eigenvalues --   -0.78090  -0.77679  -0.77416  -0.76615  -0.75764
 Alpha  occ. eigenvalues --   -0.75422  -0.74810  -0.74425  -0.72478  -0.71759
 Alpha  occ. eigenvalues --   -0.71335  -0.69900  -0.69599  -0.68157  -0.68028
 Alpha  occ. eigenvalues --   -0.67796  -0.67288  -0.66990  -0.66641  -0.65845
 Alpha  occ. eigenvalues --   -0.65666  -0.65133  -0.64864  -0.64680  -0.62369
 Alpha  occ. eigenvalues --   -0.61959  -0.61948  -0.61511  -0.60605  -0.60071
 Alpha  occ. eigenvalues --   -0.59934  -0.58954  -0.58839  -0.58380  -0.57646
 Alpha  occ. eigenvalues --   -0.57223  -0.56880  -0.56763  -0.56351  -0.55935
 Alpha  occ. eigenvalues --   -0.55414  -0.55261  -0.54944  -0.54858  -0.54731
 Alpha  occ. eigenvalues --   -0.54421  -0.54396  -0.54161  -0.53955  -0.53855
 Alpha  occ. eigenvalues --   -0.53487  -0.53129  -0.53070  -0.52946  -0.52693
 Alpha  occ. eigenvalues --   -0.52430  -0.52217  -0.52175  -0.51976  -0.51614
 Alpha  occ. eigenvalues --   -0.51578  -0.51209  -0.51115  -0.50883  -0.50740
 Alpha  occ. eigenvalues --   -0.50599  -0.50404  -0.49997  -0.49860  -0.49721
 Alpha  occ. eigenvalues --   -0.49581  -0.49318  -0.48981  -0.48685  -0.48619
 Alpha  occ. eigenvalues --   -0.48437  -0.48288  -0.48135  -0.48046  -0.47996
 Alpha  occ. eigenvalues --   -0.47864  -0.47606  -0.47496  -0.47412  -0.47343
 Alpha  occ. eigenvalues --   -0.46871  -0.46605  -0.46438  -0.46059  -0.45959
 Alpha  occ. eigenvalues --   -0.45734  -0.45502  -0.45121  -0.45102  -0.44977
 Alpha  occ. eigenvalues --   -0.44665  -0.44542  -0.44481  -0.44340  -0.44069
 Alpha  occ. eigenvalues --   -0.43880  -0.43807  -0.43389  -0.43344  -0.43276
 Alpha  occ. eigenvalues --   -0.43102  -0.43023  -0.42758  -0.42562  -0.42162
 Alpha  occ. eigenvalues --   -0.41695  -0.41098  -0.41030  -0.40698  -0.40593
 Alpha  occ. eigenvalues --   -0.40496  -0.39782  -0.39598  -0.39446  -0.39266
 Alpha  occ. eigenvalues --   -0.38946  -0.38909  -0.38786  -0.38188  -0.38182
 Alpha  occ. eigenvalues --   -0.37751  -0.37538  -0.37011  -0.36763  -0.36190
 Alpha  occ. eigenvalues --   -0.36100  -0.35668  -0.35279  -0.34369  -0.33300
 Alpha  occ. eigenvalues --   -0.33100  -0.32938  -0.32651  -0.30519  -0.26866
 Alpha  occ. eigenvalues --   -0.23085
 Alpha virt. eigenvalues --   -0.07084  -0.00477   0.01892   0.03638   0.04372
 Alpha virt. eigenvalues --    0.05273   0.07015   0.07313   0.08459   0.09628
 Alpha virt. eigenvalues --    0.09644   0.10968   0.11470   0.11999   0.12477

 Mulliken charges:
               1
     1  Mg   0.956049
     2  C    0.044389
     3  C   -0.075904
     4  C   -0.077003
     5  C   -0.109541
     6  N   -0.340269
     7  C    0.008042
     8  C    0.002312
     9  C   -0.146798
    10  C    0.089894
    11  C    0.010306
    12  C    0.036844
    13  C   -0.014129
    14  C    0.215115
    15  O   -0.264084
    16  O   -0.388593
    17  N   -0.466447
    18  C    0.107450
    19  C   -0.158110
    20  C   -0.084872
    21  C    0.182816
    22  C    0.082242
    23  C    0.058687
    24  O   -0.245657
    25  C   -0.016357
    26  N   -0.405345
    27  C    0.094037
    28  C   -0.103106
    29  C   -0.019974
    30  C    0.043882
    31  C    0.005111
    32  C    0.000143
    33  C   -0.045040
    34  N   -0.358473
    35  C    0.104774
    36  C   -0.197638
    37  C   -0.041209
    38  C    0.088083
    39  C    0.086710
    40  C    0.113511
    41  O   -0.197006
    42  C   -0.128328
    43  C    0.300802
    44  O   -0.285661
    45  O   -0.364207
    46  C    0.143604
    47  C    0.284996
    48  C   -0.148433
    49  C   -0.224803
    50  C    0.044965
    51  C   -0.002453
    52  C   -0.011482
    53  C    0.006580
    54  C   -0.193675
    55  C    0.009236
    56  C    0.030129
    57  C   -0.034959
    58  C    0.007191
    59  C   -0.190280
    60  C    0.000430
    61  C    0.060546
    62  C   -0.072499
    63  C    0.026795
    64  C   -0.203007
    65  C   -0.011010
    66  C    0.000642
    67  H   -0.002447
    68  H   -0.043236
    69  H   -0.002933
    70  H    0.023795
    71  H    0.055542
    72  H    0.054929
    73  H    0.033624
    74  H    0.040613
    75  H    0.055258
    76  H    0.035615
    77  H    0.058741
    78  H    0.061466
    79  H    0.059076
    80  H    0.046520
    81  H    0.060669
    82  H    0.067607
    83  H    0.067435
    84  H    0.042432
    85  H    0.049097
    86  H    0.025931
    87  H    0.047193
    88  H    0.035377
    89  H    0.029566
    90  H    0.031212
    91  H    0.030402
    92  H    0.045195
    93  H    0.026438
    94  H    0.037885
    95  H    0.020428
    96  H    0.061192
    97  H    0.065659
    98  H    0.081677
    99  H    0.053503
   100  H    0.046044
   101  H    0.059402
   102  H    0.035641
   103  H    0.068986
   104  H    0.019430
   105  H    0.025546
   106  H    0.038952
   107  H    0.066013
   108  H    0.036653
   109  H    0.009727
   110  H    0.025366
   111  H    0.017565
   112  H    0.008718
   113  H    0.009089
   114  H    0.021024
   115  H    0.040637
   116  H    0.007311
   117  H    0.021514
   118  H    0.026467
   119  H    0.014636
   120  H    0.024203
   121  H    0.018534
   122  H    0.017719
   123  H    0.024273
   124  H    0.023367
   125  H    0.020446
   126  H    0.030052
   127  H    0.005185
   128  H    0.008230
   129  H    0.007518
   130  H    0.008763
   131  H    0.019531
   132  H    0.007725
   133  H    0.026004
   134  H    0.023882
   135  H    0.032300
   136  H    0.025517
   137  H    0.028700
   138  H    0.030680
   139  H    0.032611
   140  H    0.010624
 Sum of Mulliken charges =  -0.00000

 Dipole moment (field-independent basis, Debye):
    X=             -0.1788    Y=              6.4221    Z=             -0.5209  Tot=              6.4457
 Quadrupole moment (field-independent basis, Debye-Ang):
   XX=           -388.3012   YY=           -451.8423   ZZ=           -380.6757
   XY=            -59.0813   XZ=             -6.7679   YZ=            -28.2300

 Normal termination of Gaussian 16 at Thu May  5 12:02:49 2022.
