 Gaussian 16, Revision A.03,
 Gaussian 16:  ES64L-G16RevA.03 25-Dec-2016

 --------------------
 #p ZINDO=(nstates=5)
 --------------------

 ----------------------------
 step_851_chromophore_2 ZINDO
 ----------------------------
 Symbolic Z-matrix:
 Charge =  0 Multiplicity = 1

                         Standard orientation:
 ---------------------------------------------------------------------
 Center     Atomic      Atomic             Coordinates (Angstroms)
 Number     Number       Type             X           Y           Z
 ---------------------------------------------------------------------
      1         12           0       -4.776022    1.275659    0.386369
      2          6           0       -5.042986   -2.234932    0.403130
      3          6           0       -2.566302    0.916663    3.166308
      4          6           0       -4.144909    4.428748    0.188724
      5          6           0       -6.606281    1.256609   -2.518628
      6          7           0       -3.828817   -0.461386    1.540478
      7          6           0       -4.024461   -1.811864    1.326481
      8          6           0       -3.247024   -2.683876    2.277065
      9          6           0       -2.507328   -1.632352    3.227121
     10          6           0       -2.999848   -0.284279    2.665878
     11          6           0       -2.951109   -1.735242    4.780673
     12          6           0       -2.309856   -3.752457    1.738698
     13          6           0       -1.932324   -3.708512    0.257040
     14          6           0       -0.643964   -4.405069   -0.100654
     15          8           0       -0.283520   -5.483357    0.371017
     16          8           0        0.053211   -3.666031   -1.083150
     17          7           0       -3.465512    2.501853    1.485285
     18          6           0       -2.680096    2.212810    2.597548
     19          6           0       -2.159389    3.462229    3.109716
     20          6           0       -2.622154    4.472332    2.317709
     21          6           0       -3.396684    3.841160    1.211555
     22          6           0       -1.362252    3.390877    4.401083
     23          6           0       -2.275971    5.972702    2.467421
     24          8           0       -1.548190    6.400165    3.389735
     25          6           0       -2.681499    7.028560    1.401519
     26          7           0       -5.155494    2.579996   -1.143716
     27          6           0       -4.931161    3.859846   -0.851497
     28          6           0       -5.462223    4.795017   -2.016442
     29          6           0       -6.267961    3.746868   -2.949060
     30          6           0       -6.063203    2.461394   -2.174473
     31          6           0       -6.306462    6.003817   -1.467872
     32          6           0       -5.941516    3.706961   -4.451182
     33          6           0       -7.035014    3.783437   -5.448634
     34          7           0       -5.636686   -0.188112   -0.878876
     35          6           0       -6.408241   -0.022622   -1.963077
     36          6           0       -6.960549   -1.281466   -2.394974
     37          6           0       -6.461718   -2.179291   -1.487996
     38          6           0       -5.574410   -1.459225   -0.594587
     39          6           0       -7.728245   -1.660372   -3.603772
     40          6           0       -6.380304   -3.617237   -1.152214
     41          8           0       -6.874173   -4.611242   -1.679553
     42          6           0       -5.510353   -3.684372    0.108392
     43          6           0       -6.256804   -4.370345    1.141789
     44          8           0       -6.112402   -5.616635    1.354972
     45          8           0       -6.783013   -3.516522    2.098541
     46          6           0       -6.942522   -4.018256    3.433838
     47          6           0        1.343446   -4.161677   -1.471767
     48          6           0        2.198891   -2.982415   -1.402721
     49          6           0        3.264701   -2.671702   -2.212512
     50          6           0        3.775600   -3.428718   -3.430681
     51          6           0        3.765689   -1.248810   -1.911006
     52          6           0        4.858198   -1.245323   -0.806563
     53          6           0        6.352758   -1.105778   -1.143442
     54          6           0        7.033009    0.288776   -0.901835
     55          6           0        6.675220    1.265298   -2.045350
     56          6           0        8.608987    0.168794   -0.697517
     57          6           0        8.978521    0.359528    0.797241
     58          6           0       10.320260    1.185686    0.828744
     59          6           0       11.469659    0.214930    1.209808
     60          6           0       11.371666   -0.067238    2.713212
     61          6           0       12.796124    0.805611    0.788302
     62          6           0       13.599616   -0.111720   -0.113140
     63          6           0       14.508820    0.572910   -1.176929
     64          6           0       16.032832    0.505658   -0.748450
     65          6           0       16.690330    1.891974   -0.829505
     66          6           0       16.856716   -0.690024   -1.308750
     67          1           0       -1.991656    0.941936    4.094881
     68          1           0       -4.116634    5.520207    0.204706
     69          1           0       -7.412224    1.296920   -3.255017
     70          1           0       -3.971857   -3.183439    2.921995
     71          1           0       -1.424316   -1.653447    3.108823
     72          1           0       -2.131014   -1.634263    5.492106
     73          1           0       -3.490120   -2.675529    4.903745
     74          1           0       -3.702923   -0.977685    5.000485
     75          1           0       -2.662247   -4.758127    1.964722
     76          1           0       -1.368477   -3.642114    2.277081
     77          1           0       -1.940421   -2.727701   -0.218958
     78          1           0       -2.625127   -4.267561   -0.372018
     79          1           0       -0.857033    4.347586    4.533354
     80          1           0       -0.577318    2.641006    4.299992
     81          1           0       -2.064646    3.191416    5.209674
     82          1           0       -3.768432    7.107481    1.428802
     83          1           0       -2.193529    6.878009    0.438409
     84          1           0       -2.296631    8.029247    1.595397
     85          1           0       -4.577404    5.134600   -2.554561
     86          1           0       -7.325342    3.996051   -2.860242
     87          1           0       -6.464153    6.729351   -2.265901
     88          1           0       -5.902292    6.488210   -0.579153
     89          1           0       -7.272657    5.697459   -1.066132
     90          1           0       -5.519952    2.706327   -4.539728
     91          1           0       -5.125775    4.372870   -4.731794
     92          1           0       -6.841171    4.595707   -6.149804
     93          1           0       -8.028402    3.916672   -5.019630
     94          1           0       -7.130599    2.816346   -5.942055
     95          1           0       -7.453408   -0.889482   -4.322626
     96          1           0       -8.816101   -1.656226   -3.535577
     97          1           0       -7.312245   -2.609059   -3.942895
     98          1           0       -4.762219   -4.423432   -0.176761
     99          1           0       -7.135402   -3.224855    4.155338
    100          1           0       -6.024498   -4.540284    3.703038
    101          1           0       -7.785941   -4.708727    3.451816
    102          1           0        1.163234   -4.426354   -2.513989
    103          1           0        1.746313   -4.993044   -0.893586
    104          1           0        1.916511   -2.286918   -0.613400
    105          1           0        3.383757   -4.438733   -3.550253
    106          1           0        4.771117   -3.671465   -3.060886
    107          1           0        3.742258   -2.877423   -4.370623
    108          1           0        2.968790   -0.550484   -1.654641
    109          1           0        4.109593   -0.892586   -2.882469
    110          1           0        4.749364   -2.118342   -0.163299
    111          1           0        4.474092   -0.388356   -0.252640
    112          1           0        6.520039   -1.414158   -2.174800
    113          1           0        6.845861   -1.912988   -0.601399
    114          1           0        6.541213    0.738744   -0.038686
    115          1           0        5.871323    0.937066   -2.703986
    116          1           0        7.562558    1.490556   -2.638106
    117          1           0        6.604723    2.247139   -1.575789
    118          1           0        9.153420    0.761151   -1.432019
    119          1           0        8.770636   -0.894317   -0.875138
    120          1           0        9.044651   -0.633974    1.240864
    121          1           0        8.147325    0.806746    1.341260
    122          1           0       10.194305    1.895121    1.647283
    123          1           0       10.601371    1.734921   -0.070431
    124          1           0       11.295951   -0.715169    0.667577
    125          1           0       11.326553   -1.141158    2.891497
    126          1           0       10.687471    0.454002    3.382779
    127          1           0       12.270644    0.143087    3.293245
    128          1           0       13.424831    0.982551    1.660700
    129          1           0       12.654084    1.779249    0.319838
    130          1           0       12.874125   -0.754466   -0.611128
    131          1           0       14.214657   -0.774401    0.495719
    132          1           0       14.195683    1.617023   -1.191256
    133          1           0       14.225898    0.139728   -2.136429
    134          1           0       16.042448    0.318277    0.325038
    135          1           0       16.313176    2.512527   -1.642353
    136          1           0       17.772732    1.810444   -0.924305
    137          1           0       16.448488    2.397286    0.107136
    138          1           0       17.210637   -1.348433   -0.514799
    139          1           0       17.619747   -0.441963   -2.045458
    140          1           0       16.219624   -1.375861   -1.866294
 ---------------------------------------------------------------------

 SCF Done:  E(RZINDO/S) =  -474.296793213     A.U. after   20 cycles

 Excitation energies and oscillator strengths:

 Excited State   1:      Singlet-A      1.2590 eV  984.78 nm  f=0.5998  <S**2>=0.000
     175 ->178         0.18720
     176 ->177         0.66486
 This state for optimization and/or second-order correction.
 Total Energy, E(CIS/TDA) =  -474.250525579
 Copying the excited state density for this state as the 1-particle RhoCI density.

 Excited State   2:      Singlet-A      1.9286 eV  642.86 nm  f=0.0062  <S**2>=0.000
     175 ->177         0.49458
     176 ->178        -0.48372

 Excited State   3:      Singlet-A      2.9189 eV  424.76 nm  f=0.0541  <S**2>=0.000
     168 ->177         0.20207
     168 ->178        -0.10568
     168 ->179        -0.28382
     168 ->180         0.23611
     168 ->181         0.10334
     168 ->182        -0.16372
     168 ->185        -0.16709
     175 ->177         0.10438
     176 ->178         0.12339
     176 ->179         0.24352
     176 ->180        -0.15543
     176 ->181         0.24904

 Excited State   4:      Singlet-A      2.9480 eV  420.58 nm  f=0.1230  <S**2>=0.000
     168 ->177        -0.14688
     168 ->179         0.20077
     168 ->180        -0.17501
     168 ->182         0.12236
     168 ->185         0.11363
     175 ->177         0.15394
     176 ->178         0.17141
     176 ->180        -0.20904
     176 ->181         0.46625

 Excited State   5:      Singlet-A      2.9680 eV  417.74 nm  f=0.1187  <S**2>=0.000
     170 ->177        -0.21614
     170 ->179        -0.25949
     170 ->180        -0.12404
     170 ->182         0.18662
     170 ->185        -0.13409
     170 ->187        -0.12592
     175 ->177        -0.15185
     176 ->178        -0.15698
     176 ->179         0.37447
     176 ->182        -0.12781

 The electronic state is 1-A.
 Alpha  occ. eigenvalues --   -1.87163  -1.81486  -1.79559  -1.72880  -1.72387
 Alpha  occ. eigenvalues --   -1.70519  -1.65412  -1.59909  -1.59321  -1.56782
 Alpha  occ. eigenvalues --   -1.54848  -1.52434  -1.49581  -1.48507  -1.47005
 Alpha  occ. eigenvalues --   -1.43881  -1.43196  -1.41480  -1.39346  -1.38091
 Alpha  occ. eigenvalues --   -1.36136  -1.34864  -1.32183  -1.31120  -1.29055
 Alpha  occ. eigenvalues --   -1.27877  -1.26120  -1.22797  -1.21472  -1.17945
 Alpha  occ. eigenvalues --   -1.17447  -1.16956  -1.16085  -1.14725  -1.13493
 Alpha  occ. eigenvalues --   -1.13377  -1.11005  -1.09902  -1.06670  -1.04607
 Alpha  occ. eigenvalues --   -1.02623  -1.01595  -0.99664  -0.98413  -0.96938
 Alpha  occ. eigenvalues --   -0.96156  -0.94827  -0.94086  -0.93200  -0.92187
 Alpha  occ. eigenvalues --   -0.90927  -0.90564  -0.89823  -0.88787  -0.88235
 Alpha  occ. eigenvalues --   -0.86504  -0.84494  -0.84011  -0.83321  -0.81028
 Alpha  occ. eigenvalues --   -0.80391  -0.79067  -0.78478  -0.76950  -0.76541
 Alpha  occ. eigenvalues --   -0.76355  -0.75694  -0.73979  -0.73727  -0.73291
 Alpha  occ. eigenvalues --   -0.73086  -0.72651  -0.72190  -0.70956  -0.70535
 Alpha  occ. eigenvalues --   -0.70036  -0.69922  -0.68807  -0.68532  -0.68188
 Alpha  occ. eigenvalues --   -0.67774  -0.67481  -0.66924  -0.66291  -0.65779
 Alpha  occ. eigenvalues --   -0.65502  -0.65177  -0.64677  -0.64117  -0.63958
 Alpha  occ. eigenvalues --   -0.63608  -0.63429  -0.62687  -0.62520  -0.62292
 Alpha  occ. eigenvalues --   -0.61692  -0.61393  -0.61120  -0.60375  -0.60014
 Alpha  occ. eigenvalues --   -0.59773  -0.59515  -0.59064  -0.58499  -0.58279
 Alpha  occ. eigenvalues --   -0.57888  -0.57552  -0.57075  -0.56672  -0.56385
 Alpha  occ. eigenvalues --   -0.56188  -0.55949  -0.55699  -0.55532  -0.55188
 Alpha  occ. eigenvalues --   -0.55035  -0.54587  -0.54440  -0.53801  -0.53421
 Alpha  occ. eigenvalues --   -0.52997  -0.52700  -0.52579  -0.52197  -0.51825
 Alpha  occ. eigenvalues --   -0.51266  -0.51001  -0.50850  -0.50472  -0.50319
 Alpha  occ. eigenvalues --   -0.50177  -0.49864  -0.49484  -0.49229  -0.49113
 Alpha  occ. eigenvalues --   -0.48867  -0.48392  -0.48063  -0.47959  -0.47841
 Alpha  occ. eigenvalues --   -0.47481  -0.47356  -0.47208  -0.47038  -0.46473
 Alpha  occ. eigenvalues --   -0.46189  -0.45769  -0.45646  -0.45390  -0.45245
 Alpha  occ. eigenvalues --   -0.45077  -0.44988  -0.44763  -0.44259  -0.44205
 Alpha  occ. eigenvalues --   -0.44013  -0.43569  -0.43047  -0.42823  -0.42220
 Alpha  occ. eigenvalues --   -0.41402  -0.41059  -0.40687  -0.39500  -0.38835
 Alpha  occ. eigenvalues --   -0.38332  -0.37232  -0.36291  -0.35536  -0.34858
 Alpha  occ. eigenvalues --   -0.34652  -0.33314  -0.33233  -0.30803  -0.27647
 Alpha  occ. eigenvalues --   -0.22025
 Alpha virt. eigenvalues --   -0.08679  -0.02883  -0.01010   0.00218   0.00585
 Alpha virt. eigenvalues --    0.01452   0.02006   0.02215   0.04120   0.04741
 Alpha virt. eigenvalues --    0.05724   0.06321   0.06952   0.07508   0.07678

 Mulliken charges:
               1
     1  Mg   0.441843
     2  C   -0.052388
     3  C   -0.069109
     4  C   -0.092938
     5  C   -0.059920
     6  N   -0.303073
     7  C    0.119077
     8  C    0.010997
     9  C   -0.007786
    10  C    0.136022
    11  C   -0.055234
    12  C   -0.010616
    13  C    0.007738
    14  C    0.462287
    15  O   -0.517630
    16  O   -0.278425
    17  N   -0.331728
    18  C    0.105035
    19  C    0.053127
    20  C   -0.031470
    21  C    0.127772
    22  C   -0.038925
    23  C    0.318181
    24  O   -0.519498
    25  C   -0.031332
    26  N   -0.257649
    27  C    0.143705
    28  C   -0.006752
    29  C    0.005052
    30  C    0.102841
    31  C   -0.052982
    32  C   -0.022436
    33  C   -0.049594
    34  N   -0.299432
    35  C    0.088961
    36  C    0.029443
    37  C   -0.071509
    38  C    0.106767
    39  C   -0.037543
    40  C    0.330268
    41  O   -0.515700
    42  C    0.056411
    43  C    0.486588
    44  O   -0.529343
    45  O   -0.275130
    46  C    0.081828
    47  C    0.109323
    48  C   -0.086987
    49  C   -0.027392
    50  C   -0.040977
    51  C   -0.021107
    52  C   -0.032489
    53  C   -0.030463
    54  C   -0.017768
    55  C   -0.067064
    56  C   -0.042646
    57  C   -0.039341
    58  C   -0.037151
    59  C   -0.001269
    60  C   -0.064036
    61  C   -0.029211
    62  C   -0.040286
    63  C   -0.036700
    64  C   -0.009919
    65  C   -0.053721
    66  C   -0.057829
    67  H    0.027815
    68  H    0.026821
    69  H    0.017404
    70  H    0.035296
    71  H    0.041897
    72  H    0.029479
    73  H    0.022182
    74  H    0.023015
    75  H    0.037811
    76  H    0.024280
    77  H    0.035859
    78  H    0.047686
    79  H    0.036678
    80  H    0.030267
    81  H    0.040239
    82  H    0.039278
    83  H    0.041424
    84  H    0.030757
    85  H    0.036352
    86  H    0.025995
    87  H    0.021321
    88  H    0.022618
    89  H    0.020556
    90  H    0.016017
    91  H    0.021529
    92  H    0.022255
    93  H    0.017171
    94  H    0.020030
    95  H    0.014196
    96  H    0.041939
    97  H    0.039525
    98  H    0.070901
    99  H    0.031864
   100  H    0.040428
   101  H    0.045880
   102  H    0.037154
   103  H    0.064554
   104  H    0.032468
   105  H    0.022535
   106  H    0.028006
   107  H    0.040015
   108  H    0.024631
   109  H    0.011397
   110  H    0.022107
   111  H    0.013267
   112  H    0.014727
   113  H    0.011624
   114  H    0.021713
   115  H    0.031947
   116  H    0.010624
   117  H    0.016284
   118  H    0.035037
   119  H    0.015427
   120  H    0.022448
   121  H    0.020030
   122  H    0.013540
   123  H    0.027969
   124  H    0.025555
   125  H    0.011402
   126  H    0.026903
   127  H    0.006431
   128  H    0.014084
   129  H    0.018924
   130  H    0.010853
   131  H    0.018069
   132  H    0.016562
   133  H    0.025223
   134  H    0.015510
   135  H    0.019481
   136  H    0.016806
   137  H    0.015805
   138  H    0.022396
   139  H    0.024800
   140  H    0.008163
 Sum of Mulliken charges =  -0.00000

 Dipole moment (field-independent basis, Debye):
    X=              0.1021    Y=              8.9758    Z=             -0.7376  Tot=              9.0067
 N-N= 4.319904902632D+03 E-N= 0.000000000000D+00  KE=-9.313301494299D+03
 Leave Link  601 at Thu May  5 12:15:34 2022, MaxMem=  6710886400 cpu:               0.8 elap:               0.1
 (Enter /sw/apps/gaussian-16.0/g16/l9999.exe)
 1\1\GINC-BP1-COMPUTE168\SP\RZINDO CIS\STO-3G\C55H74Mg1N4O6\OF15641\05-
 May-2022\0\\#p ZINDO=(nstates=5)\\step_851_chromophore_2 ZINDO\\0,1\Mg
 ,0,3.219,0.954,44.372\C,0,6.236,2.748,44.098\C,0,1.619,3.835,43.001\C,
 0,0.488,-0.746,44.196\C,0,5.092,-1.773,45.291\N,0,3.882,2.98,43.534\C,
 0,5.171,3.47,43.455\C,0,5.248,4.848,42.852\C,0,3.718,5.22,42.576\C,0,2
 .981,3.968,43.09\C,0,3.199,6.503,43.416\C,0,6.143,5.106,41.651\C,0,6.6
 96,3.903,40.885\C,0,7.098,4.177,39.458\O,0,7.686,5.192,39.085\O,0,6.74

 Normal termination of Gaussian 16 at Thu May  5 12:15:34 2022.
