 Gaussian 16, Revision A.03,
 Gaussian 16:  ES64L-G16RevA.03 25-Dec-2016

 ------------------------------
 #p blyp/Def2SVP td=(nstates=5)
 ------------------------------

 ---------------------------------------------------
 step_1851_chromophore_17 TDDFT with blyp functional
 ---------------------------------------------------
 Symbolic Z-matrix:
 Charge =  0 Multiplicity = 1

                         Standard orientation:
 ---------------------------------------------------------------------
 Center     Atomic      Atomic             Coordinates (Angstroms)
 Number     Number       Type             X           Y           Z
 ---------------------------------------------------------------------
      1         12           0        4.019521    1.415717   -0.419111
      2          6           0        4.551809   -1.952262   -0.079863
      3          6           0        1.207162    0.615719   -2.350024
      4          6           0        3.118087    4.769142   -0.465747
      5          6           0        6.465857    2.021967    1.937401
      6          7           0        2.984070   -0.475287   -1.074767
      7          6           0        3.461767   -1.734507   -0.887527
      8          6           0        2.585456   -2.833100   -1.641663
      9          6           0        1.686328   -1.867549   -2.584659
     10          6           0        1.887841   -0.480182   -1.885939
     11          6           0        1.982393   -2.017773   -4.118680
     12          6           0        1.733284   -3.834467   -0.790287
     13          6           0        1.329886   -5.227592   -1.380918
     14          6           0       -0.151764   -5.380749   -1.352899
     15          8           0       -0.890941   -5.438770   -2.266971
     16          8           0       -0.492722   -5.484795    0.003017
     17          7           0        2.470222    2.520833   -1.280368
     18          6           0        1.379704    1.998490   -1.993827
     19          6           0        0.588281    3.069545   -2.557347
     20          6           0        1.150424    4.285447   -2.085720
     21          6           0        2.337576    3.891112   -1.239076
     22          6           0       -0.491792    2.800629   -3.631239
     23          6           0        0.658038    5.642035   -2.480027
     24          8           0       -0.379642    5.723677   -3.071598
     25          6           0        1.299389    7.022066   -2.081823
     26          7           0        4.655350    3.186849    0.554700
     27          6           0        4.233605    4.457599    0.355694
     28          6           0        4.909555    5.449649    1.338969
     29          6           0        5.899393    4.500434    2.195167
     30          6           0        5.719882    3.116564    1.494522
     31          6           0        5.621144    6.580932    0.506972
     32          6           0        5.540504    4.556530    3.743009
     33          6           0        6.789528    4.677269    4.698994
     34          7           0        5.325606    0.341419    0.670015
     35          6           0        6.338223    0.704741    1.575633
     36          6           0        7.141273   -0.451221    1.991056
     37          6           0        6.418039   -1.520329    1.324715
     38          6           0        5.355769   -0.988667    0.566270
     39          6           0        8.434427   -0.436965    2.933821
     40          6           0        6.525186   -2.877827    0.972649
     41          8           0        7.448537   -3.678773    1.235533
     42          6           0        5.198766   -3.260347    0.199342
     43          6           0        5.555589   -3.934539   -1.040476
     44          8           0        6.123710   -3.409589   -2.006949
     45          8           0        5.101230   -5.207916   -0.886539
     46          6           0        5.088136   -6.102028   -2.068071
     47          6           0       -1.925690   -5.545460    0.152860
     48          6           0       -2.394016   -4.620464    1.246137
     49          6           0       -3.693339   -4.528562    1.669123
     50          6           0       -4.765223   -5.388953    1.102029
     51          6           0       -4.024185   -3.475772    2.667691
     52          6           0       -5.048320   -2.389729    2.307996
     53          6           0       -6.441595   -2.659095    2.874110
     54          6           0       -7.583354   -2.501464    1.807735
     55          6           0       -8.810309   -3.336655    2.195464
     56          6           0       -7.916495   -1.004693    1.578516
     57          6           0       -7.254272   -0.237374    0.395958
     58          6           0       -6.835711    1.185514    0.777638
     59          6           0       -7.912844    2.230804    0.357409
     60          6           0       -7.269339    3.624905    0.124340
     61          6           0       -9.212824    2.235829    1.235252
     62          6           0      -10.315574    1.452801    0.618005
     63          6           0      -11.690169    2.238236    0.681169
     64          6           0      -12.339796    2.227426   -0.692395
     65          6           0      -11.406897    2.868878   -1.808937
     66          6           0      -13.815111    2.788495   -0.651357
     67          1           0        0.461243    0.343988   -3.100838
     68          1           0        2.868283    5.832179   -0.485787
     69          1           0        7.193828    2.376178    2.671363
     70          1           0        3.222310   -3.352422   -2.357587
     71          1           0        0.609219   -1.943533   -2.432825
     72          1           0        1.016215   -1.641297   -4.453569
     73          1           0        2.198051   -3.013949   -4.505568
     74          1           0        2.811329   -1.400383   -4.465204
     75          1           0        0.936791   -3.234636   -0.347953
     76          1           0        2.335726   -4.137086    0.065850
     77          1           0        1.774990   -6.124352   -0.951418
     78          1           0        1.607370   -5.126702   -2.430170
     79          1           0       -1.481913    3.142755   -3.330854
     80          1           0       -0.721086    1.751337   -3.814174
     81          1           0       -0.155364    3.301789   -4.538890
     82          1           0        0.913947    7.208169   -1.079112
     83          1           0        0.945062    7.849782   -2.696345
     84          1           0        2.383397    7.097248   -2.000449
     85          1           0        4.062973    5.761775    1.950556
     86          1           0        6.915830    4.817066    1.962658
     87          1           0        5.673014    6.347160   -0.556907
     88          1           0        6.619859    6.683144    0.933189
     89          1           0        5.186127    7.568921    0.655535
     90          1           0        5.042262    3.621711    4.001073
     91          1           0        4.844057    5.379559    3.904704
     92          1           0        6.778637    5.722519    5.007345
     93          1           0        7.696742    4.412426    4.155628
     94          1           0        6.596331    4.078877    5.589655
     95          1           0        9.359134   -0.899208    2.589163
     96          1           0        8.117792   -0.911258    3.862999
     97          1           0        8.677562    0.605527    3.137927
     98          1           0        4.552032   -3.836661    0.859766
     99          1           0        4.263827   -6.815303   -2.051634
    100          1           0        6.089427   -6.515977   -2.184279
    101          1           0        4.822449   -5.444733   -2.896464
    102          1           0       -2.139829   -6.599629    0.332655
    103          1           0       -2.533572   -5.265835   -0.707483
    104          1           0       -1.731408   -3.868213    1.674630
    105          1           0       -5.408535   -5.829668    1.865032
    106          1           0       -4.401425   -6.310711    0.647380
    107          1           0       -5.500745   -4.913665    0.453594
    108          1           0       -3.070436   -2.961625    2.784998
    109          1           0       -4.366297   -4.009330    3.554387
    110          1           0       -5.027406   -2.319947    1.220474
    111          1           0       -4.653103   -1.409437    2.573651
    112          1           0       -6.542890   -1.960377    3.704523
    113          1           0       -6.470480   -3.661116    3.303330
    114          1           0       -7.303537   -2.907942    0.835897
    115          1           0       -9.241455   -3.744625    1.282095
    116          1           0       -9.506050   -2.787175    2.830291
    117          1           0       -8.578543   -4.197615    2.823090
    118          1           0       -7.709640   -0.515631    2.530759
    119          1           0       -8.984676   -0.983552    1.364732
    120          1           0       -8.096801   -0.241008   -0.295661
    121          1           0       -6.422227   -0.643334   -0.180287
    122          1           0       -5.956030    1.394617    0.168645
    123          1           0       -6.644791    1.166807    1.850239
    124          1           0       -8.122582    1.807410   -0.624856
    125          1           0       -7.221160    3.830799   -0.945605
    126          1           0       -6.225092    3.655157    0.434284
    127          1           0       -7.729241    4.441823    0.679196
    128          1           0       -9.544173    3.241110    1.495654
    129          1           0       -9.056548    1.719769    2.182432
    130          1           0      -10.530435    0.560788    1.205618
    131          1           0      -10.128385    1.082894   -0.390215
    132          1           0      -11.573197    3.302481    0.889584
    133          1           0      -12.228724    1.779295    1.509125
    134          1           0      -12.360387    1.163648   -0.932925
    135          1           0      -11.959558    3.589021   -2.411941
    136          1           0      -11.055068    2.167431   -2.564261
    137          1           0      -10.578602    3.447684   -1.399750
    138          1           0      -14.012085    3.419262   -1.518695
    139          1           0      -14.065338    3.350981    0.249115
    140          1           0      -14.461467    1.922289   -0.793635
 ---------------------------------------------------------------------

 SCF Done:  E(RB-LYP) =  -3007.36520946     A.U. after   21 cycles

 Excitation energies and oscillator strengths:

 Excited State   1:      Singlet-A      1.6854 eV  735.63 nm  f=0.0012  <S**2>=0.000
     244 -> 247        0.66523
     245 -> 247        0.23721
 This state for optimization and/or second-order correction.
 Total Energy, E(TD-HF/TD-DFT) =  -3007.30327156
 Copying the excited state density for this state as the 1-particle RhoCI density.

 Excited State   2:      Singlet-A      1.8095 eV  685.18 nm  f=0.0073  <S**2>=0.000
     243 -> 247        0.69890

 Excited State   3:      Singlet-A      1.8390 eV  674.20 nm  f=0.2930  <S**2>=0.000
     245 -> 248       -0.19090
     246 -> 247        0.67825
     246 <- 247       -0.14265

 Excited State   4:      Singlet-A      2.0334 eV  609.73 nm  f=0.0068  <S**2>=0.000
     242 -> 247        0.68593
     245 -> 247        0.14997

 Excited State   5:      Singlet-A      2.0507 eV  604.61 nm  f=0.0870  <S**2>=0.000
     242 -> 247       -0.17094
     244 -> 247       -0.21382
     245 -> 247        0.59104
     246 -> 248        0.23282

 The electronic state is 1-A.
 Alpha  occ. eigenvalues --  -46.26812 -18.82376 -18.81945 -18.78038 -18.76671
 Alpha  occ. eigenvalues --  -18.75278 -18.74838 -14.03504 -14.03482 -14.01665
 Alpha  occ. eigenvalues --  -14.01187 -10.04048 -10.03716  -9.99882  -9.98701
 Alpha  occ. eigenvalues --   -9.98282  -9.97275  -9.97035  -9.96834  -9.96805
 Alpha  occ. eigenvalues --   -9.96735  -9.96357  -9.96163  -9.95947  -9.95002
 Alpha  occ. eigenvalues --   -9.94871  -9.94761  -9.94742  -9.94521  -9.94322
 Alpha  occ. eigenvalues --   -9.94044  -9.93972  -9.93919  -9.93546  -9.93423
 Alpha  occ. eigenvalues --   -9.93279  -9.93216  -9.93137  -9.93038  -9.93030
 Alpha  occ. eigenvalues --   -9.92997  -9.92894  -9.92876  -9.92626  -9.92281
 Alpha  occ. eigenvalues --   -9.92250  -9.92113  -9.92060  -9.91975  -9.91870
 Alpha  occ. eigenvalues --   -9.91543  -9.91466  -9.91301  -9.91202  -9.91173
 Alpha  occ. eigenvalues --   -9.91073  -9.90990  -9.90855  -9.90762  -9.90745
 Alpha  occ. eigenvalues --   -9.90741  -9.90677  -9.90646  -9.90547  -9.90346
 Alpha  occ. eigenvalues --   -9.90313  -2.91539  -1.71959  -1.71406  -1.71268
 Alpha  occ. eigenvalues --   -0.99140  -0.97415  -0.92886  -0.92073  -0.89685
 Alpha  occ. eigenvalues --   -0.89051  -0.86401  -0.85451  -0.84977  -0.83985
 Alpha  occ. eigenvalues --   -0.76232  -0.73833  -0.73014  -0.72562  -0.72189
 Alpha  occ. eigenvalues --   -0.71703  -0.71370  -0.71011  -0.70401  -0.69705
 Alpha  occ. eigenvalues --   -0.69144  -0.68983  -0.68014  -0.67648  -0.67209
 Alpha  occ. eigenvalues --   -0.66444  -0.66105  -0.65176  -0.64628  -0.64246
 Alpha  occ. eigenvalues --   -0.64046  -0.62557  -0.62175  -0.61742  -0.61103
 Alpha  occ. eigenvalues --   -0.60710  -0.60085  -0.59849  -0.59119  -0.59070
 Alpha  occ. eigenvalues --   -0.58496  -0.57423  -0.56965  -0.55894  -0.54666
 Alpha  occ. eigenvalues --   -0.54071  -0.53300  -0.52953  -0.52250  -0.51829
 Alpha  occ. eigenvalues --   -0.51595  -0.51188  -0.50914  -0.50436  -0.49870
 Alpha  occ. eigenvalues --   -0.49689  -0.49386  -0.48654  -0.48332  -0.46395
 Alpha  occ. eigenvalues --   -0.46055  -0.45889  -0.45664  -0.44785  -0.44691
 Alpha  occ. eigenvalues --   -0.44313  -0.43862  -0.43055  -0.42907  -0.42772
 Alpha  occ. eigenvalues --   -0.42293  -0.41945  -0.41590  -0.41466  -0.41078
 Alpha  occ. eigenvalues --   -0.41014  -0.40582  -0.40456  -0.40374  -0.40019
 Alpha  occ. eigenvalues --   -0.39803  -0.39706  -0.39548  -0.38909  -0.38846
 Alpha  occ. eigenvalues --   -0.38681  -0.38610  -0.38350  -0.38266  -0.38084
 Alpha  occ. eigenvalues --   -0.37930  -0.37553  -0.37438  -0.37240  -0.36966
 Alpha  occ. eigenvalues --   -0.36914  -0.36732  -0.36532  -0.36376  -0.36178
 Alpha  occ. eigenvalues --   -0.36106  -0.35910  -0.35706  -0.35619  -0.35500
 Alpha  occ. eigenvalues --   -0.35178  -0.35039  -0.34802  -0.34705  -0.34639
 Alpha  occ. eigenvalues --   -0.34465  -0.34321  -0.34218  -0.34112  -0.34030
 Alpha  occ. eigenvalues --   -0.33703  -0.33668  -0.33506  -0.33244  -0.33048
 Alpha  occ. eigenvalues --   -0.32944  -0.32862  -0.32663  -0.32521  -0.32417
 Alpha  occ. eigenvalues --   -0.32144  -0.32142  -0.31838  -0.31801  -0.31679
 Alpha  occ. eigenvalues --   -0.31498  -0.31451  -0.31024  -0.30861  -0.30769
 Alpha  occ. eigenvalues --   -0.30721  -0.30573  -0.30382  -0.30035  -0.29952
 Alpha  occ. eigenvalues --   -0.29835  -0.29828  -0.29491  -0.29217  -0.28874
 Alpha  occ. eigenvalues --   -0.28801  -0.28623  -0.28420  -0.28008  -0.27736
 Alpha  occ. eigenvalues --   -0.27482  -0.27352  -0.27028  -0.26765  -0.26624
 Alpha  occ. eigenvalues --   -0.26482  -0.25888  -0.25710  -0.25432  -0.25399
 Alpha  occ. eigenvalues --   -0.25328  -0.24798  -0.24243  -0.24101  -0.23774
 Alpha  occ. eigenvalues --   -0.23050  -0.22905  -0.22416  -0.21967  -0.20780
 Alpha  occ. eigenvalues --   -0.20609  -0.19434  -0.18524  -0.18081  -0.17626
 Alpha  occ. eigenvalues --   -0.16368
 Alpha virt. eigenvalues --   -0.11959  -0.07202  -0.05904  -0.04589  -0.02633
 Alpha virt. eigenvalues --   -0.02484  -0.02072  -0.01795  -0.01677   0.00169
 Alpha virt. eigenvalues --    0.01242   0.01781   0.02001   0.02454   0.02617

 Mulliken charges:
               1
     1  Mg   0.706512
     2  C    0.012781
     3  C   -0.066219
     4  C   -0.044535
     5  C   -0.077799
     6  N   -0.202084
     7  C   -0.101869
     8  C    0.033989
     9  C   -0.045192
    10  C    0.008555
    11  C    0.128229
    12  C    0.117833
    13  C    0.172685
    14  C    0.026074
    15  O   -0.128185
    16  O   -0.294062
    17  N   -0.297302
    18  C    0.161367
    19  C   -0.132128
    20  C    0.034302
    21  C    0.149997
    22  C    0.191618
    23  C   -0.095340
    24  O   -0.149348
    25  C    0.114160
    26  N   -0.246214
    27  C   -0.011173
    28  C   -0.013584
    29  C    0.028928
    30  C    0.001195
    31  C    0.124733
    32  C    0.076418
    33  C    0.057097
    34  N   -0.302981
    35  C    0.181324
    36  C   -0.136951
    37  C    0.078999
    38  C    0.094741
    39  C    0.158895
    40  C   -0.063383
    41  O   -0.169772
    42  C    0.098855
    43  C    0.119314
    44  O   -0.197158
    45  O   -0.279132
    46  C    0.214904
    47  C    0.297676
    48  C   -0.096700
    49  C   -0.167367
    50  C    0.142280
    51  C    0.165932
    52  C    0.065061
    53  C    0.117092
    54  C   -0.063965
    55  C    0.107403
    56  C    0.084082
    57  C    0.066373
    58  C    0.099156
    59  C   -0.085879
    60  C    0.121772
    61  C    0.167496
    62  C    0.012825
    63  C    0.073108
    64  C   -0.100064
    65  C    0.087921
    66  C    0.120377
    67  H   -0.062892
    68  H   -0.084069
    69  H   -0.068741
    70  H   -0.019759
    71  H   -0.023160
    72  H    0.000439
    73  H    0.007037
    74  H    0.001509
    75  H   -0.009418
    76  H   -0.019717
    77  H    0.020390
    78  H   -0.022037
    79  H    0.002074
    80  H   -0.030638
    81  H    0.017120
    82  H    0.007774
    83  H   -0.007179
    84  H    0.002586
    85  H   -0.007568
    86  H   -0.027152
    87  H    0.010019
    88  H   -0.014383
    89  H   -0.005276
    90  H   -0.010296
    91  H   -0.013913
    92  H   -0.005938
    93  H    0.011166
    94  H   -0.000802
    95  H    0.023548
    96  H    0.014259
    97  H   -0.019876
    98  H    0.008532
    99  H    0.020124
   100  H    0.033137
   101  H    0.006502
   102  H    0.000932
   103  H    0.015878
   104  H   -0.040885
   105  H   -0.026496
   106  H   -0.024477
   107  H    0.006672
   108  H   -0.052984
   109  H   -0.019314
   110  H   -0.033078
   111  H   -0.032396
   112  H   -0.030227
   113  H   -0.034341
   114  H   -0.042650
   115  H   -0.015386
   116  H   -0.018196
   117  H   -0.033895
   118  H   -0.027546
   119  H   -0.030106
   120  H   -0.040759
   121  H   -0.029447
   122  H   -0.043794
   123  H   -0.029878
   124  H   -0.042194
   125  H   -0.015548
   126  H   -0.028898
   127  H   -0.020019
   128  H   -0.032301
   129  H   -0.042009
   130  H   -0.022462
   131  H   -0.011202
   132  H   -0.028592
   133  H   -0.030707
   134  H   -0.034806
   135  H   -0.029082
   136  H   -0.010909
   137  H   -0.006610
   138  H   -0.025970
   139  H   -0.007873
   140  H   -0.015515
 Sum of Mulliken charges =  -0.00000

 Dipole moment (field-independent basis, Debye):
    X=             -1.2659    Y=              2.0062    Z=              1.9920  Tot=              3.0976
 Quadrupole moment (field-independent basis, Debye-Ang):
   XX=           -421.6514   YY=           -392.2255   ZZ=           -403.3778
   XY=             47.3890   XZ=              1.2400   YZ=             22.7525

 Normal termination of Gaussian 16 at Fri Apr 29 03:52:06 2022.
