 Gaussian 16, Revision A.03,
 Gaussian 16:  ES64L-G16RevA.03 25-Dec-2016

 -----------------------------------
 #p cam-b3lyp/Def2SVP td=(nstates=5)
 -----------------------------------

 --------------------------------------------------------
 step_1851_chromophore_17 TDDFT with cam-b3lyp functional
 --------------------------------------------------------
 Symbolic Z-matrix:
 Charge =  0 Multiplicity = 1

                         Standard orientation:
 ---------------------------------------------------------------------
 Center     Atomic      Atomic             Coordinates (Angstroms)
 Number     Number       Type             X           Y           Z
 ---------------------------------------------------------------------
      1         12           0        4.019521    1.415717   -0.419111
      2          6           0        4.551809   -1.952262   -0.079863
      3          6           0        1.207162    0.615719   -2.350024
      4          6           0        3.118087    4.769142   -0.465747
      5          6           0        6.465857    2.021967    1.937401
      6          7           0        2.984070   -0.475287   -1.074767
      7          6           0        3.461767   -1.734507   -0.887527
      8          6           0        2.585456   -2.833100   -1.641663
      9          6           0        1.686328   -1.867549   -2.584659
     10          6           0        1.887841   -0.480182   -1.885939
     11          6           0        1.982393   -2.017773   -4.118680
     12          6           0        1.733284   -3.834467   -0.790287
     13          6           0        1.329886   -5.227592   -1.380918
     14          6           0       -0.151764   -5.380749   -1.352899
     15          8           0       -0.890941   -5.438770   -2.266971
     16          8           0       -0.492722   -5.484795    0.003017
     17          7           0        2.470222    2.520833   -1.280368
     18          6           0        1.379704    1.998490   -1.993827
     19          6           0        0.588281    3.069545   -2.557347
     20          6           0        1.150424    4.285447   -2.085720
     21          6           0        2.337576    3.891112   -1.239076
     22          6           0       -0.491792    2.800629   -3.631239
     23          6           0        0.658038    5.642035   -2.480027
     24          8           0       -0.379642    5.723677   -3.071598
     25          6           0        1.299389    7.022066   -2.081823
     26          7           0        4.655350    3.186849    0.554700
     27          6           0        4.233605    4.457599    0.355694
     28          6           0        4.909555    5.449649    1.338969
     29          6           0        5.899393    4.500434    2.195167
     30          6           0        5.719882    3.116564    1.494522
     31          6           0        5.621144    6.580932    0.506972
     32          6           0        5.540504    4.556530    3.743009
     33          6           0        6.789528    4.677269    4.698994
     34          7           0        5.325606    0.341419    0.670015
     35          6           0        6.338223    0.704741    1.575633
     36          6           0        7.141273   -0.451221    1.991056
     37          6           0        6.418039   -1.520329    1.324715
     38          6           0        5.355769   -0.988667    0.566270
     39          6           0        8.434427   -0.436965    2.933821
     40          6           0        6.525186   -2.877827    0.972649
     41          8           0        7.448537   -3.678773    1.235533
     42          6           0        5.198766   -3.260347    0.199342
     43          6           0        5.555589   -3.934539   -1.040476
     44          8           0        6.123710   -3.409589   -2.006949
     45          8           0        5.101230   -5.207916   -0.886539
     46          6           0        5.088136   -6.102028   -2.068071
     47          6           0       -1.925690   -5.545460    0.152860
     48          6           0       -2.394016   -4.620464    1.246137
     49          6           0       -3.693339   -4.528562    1.669123
     50          6           0       -4.765223   -5.388953    1.102029
     51          6           0       -4.024185   -3.475772    2.667691
     52          6           0       -5.048320   -2.389729    2.307996
     53          6           0       -6.441595   -2.659095    2.874110
     54          6           0       -7.583354   -2.501464    1.807735
     55          6           0       -8.810309   -3.336655    2.195464
     56          6           0       -7.916495   -1.004693    1.578516
     57          6           0       -7.254272   -0.237374    0.395958
     58          6           0       -6.835711    1.185514    0.777638
     59          6           0       -7.912844    2.230804    0.357409
     60          6           0       -7.269339    3.624905    0.124340
     61          6           0       -9.212824    2.235829    1.235252
     62          6           0      -10.315574    1.452801    0.618005
     63          6           0      -11.690169    2.238236    0.681169
     64          6           0      -12.339796    2.227426   -0.692395
     65          6           0      -11.406897    2.868878   -1.808937
     66          6           0      -13.815111    2.788495   -0.651357
     67          1           0        0.461243    0.343988   -3.100838
     68          1           0        2.868283    5.832179   -0.485787
     69          1           0        7.193828    2.376178    2.671363
     70          1           0        3.222310   -3.352422   -2.357587
     71          1           0        0.609219   -1.943533   -2.432825
     72          1           0        1.016215   -1.641297   -4.453569
     73          1           0        2.198051   -3.013949   -4.505568
     74          1           0        2.811329   -1.400383   -4.465204
     75          1           0        0.936791   -3.234636   -0.347953
     76          1           0        2.335726   -4.137086    0.065850
     77          1           0        1.774990   -6.124352   -0.951418
     78          1           0        1.607370   -5.126702   -2.430170
     79          1           0       -1.481913    3.142755   -3.330854
     80          1           0       -0.721086    1.751337   -3.814174
     81          1           0       -0.155364    3.301789   -4.538890
     82          1           0        0.913947    7.208169   -1.079112
     83          1           0        0.945062    7.849782   -2.696345
     84          1           0        2.383397    7.097248   -2.000449
     85          1           0        4.062973    5.761775    1.950556
     86          1           0        6.915830    4.817066    1.962658
     87          1           0        5.673014    6.347160   -0.556907
     88          1           0        6.619859    6.683144    0.933189
     89          1           0        5.186127    7.568921    0.655535
     90          1           0        5.042262    3.621711    4.001073
     91          1           0        4.844057    5.379559    3.904704
     92          1           0        6.778637    5.722519    5.007345
     93          1           0        7.696742    4.412426    4.155628
     94          1           0        6.596331    4.078877    5.589655
     95          1           0        9.359134   -0.899208    2.589163
     96          1           0        8.117792   -0.911258    3.862999
     97          1           0        8.677562    0.605527    3.137927
     98          1           0        4.552032   -3.836661    0.859766
     99          1           0        4.263827   -6.815303   -2.051634
    100          1           0        6.089427   -6.515977   -2.184279
    101          1           0        4.822449   -5.444733   -2.896464
    102          1           0       -2.139829   -6.599629    0.332655
    103          1           0       -2.533572   -5.265835   -0.707483
    104          1           0       -1.731408   -3.868213    1.674630
    105          1           0       -5.408535   -5.829668    1.865032
    106          1           0       -4.401425   -6.310711    0.647380
    107          1           0       -5.500745   -4.913665    0.453594
    108          1           0       -3.070436   -2.961625    2.784998
    109          1           0       -4.366297   -4.009330    3.554387
    110          1           0       -5.027406   -2.319947    1.220474
    111          1           0       -4.653103   -1.409437    2.573651
    112          1           0       -6.542890   -1.960377    3.704523
    113          1           0       -6.470480   -3.661116    3.303330
    114          1           0       -7.303537   -2.907942    0.835897
    115          1           0       -9.241455   -3.744625    1.282095
    116          1           0       -9.506050   -2.787175    2.830291
    117          1           0       -8.578543   -4.197615    2.823090
    118          1           0       -7.709640   -0.515631    2.530759
    119          1           0       -8.984676   -0.983552    1.364732
    120          1           0       -8.096801   -0.241008   -0.295661
    121          1           0       -6.422227   -0.643334   -0.180287
    122          1           0       -5.956030    1.394617    0.168645
    123          1           0       -6.644791    1.166807    1.850239
    124          1           0       -8.122582    1.807410   -0.624856
    125          1           0       -7.221160    3.830799   -0.945605
    126          1           0       -6.225092    3.655157    0.434284
    127          1           0       -7.729241    4.441823    0.679196
    128          1           0       -9.544173    3.241110    1.495654
    129          1           0       -9.056548    1.719769    2.182432
    130          1           0      -10.530435    0.560788    1.205618
    131          1           0      -10.128385    1.082894   -0.390215
    132          1           0      -11.573197    3.302481    0.889584
    133          1           0      -12.228724    1.779295    1.509125
    134          1           0      -12.360387    1.163648   -0.932925
    135          1           0      -11.959558    3.589021   -2.411941
    136          1           0      -11.055068    2.167431   -2.564261
    137          1           0      -10.578602    3.447684   -1.399750
    138          1           0      -14.012085    3.419262   -1.518695
    139          1           0      -14.065338    3.350981    0.249115
    140          1           0      -14.461467    1.922289   -0.793635
 ---------------------------------------------------------------------

 SCF Done:  E(RCAM-B3LYP) =  -3007.15391515     A.U. after   17 cycles

 Excitation energies and oscillator strengths:

 Excited State   1:      Singlet-A      1.7540 eV  706.86 nm  f=0.3813  <S**2>=0.000
     245 -> 248        0.17707
     246 -> 247        0.68480
     245 <- 248        0.10540
 This state for optimization and/or second-order correction.
 Total Energy, E(TD-HF/TD-DFT) =  -3007.08945676
 Copying the excited state density for this state as the 1-particle RhoCI density.

 Excited State   2:      Singlet-A      2.2405 eV  553.37 nm  f=0.1261  <S**2>=0.000
     245 -> 247        0.64204
     246 -> 248       -0.28015

 Excited State   3:      Singlet-A      3.3105 eV  374.52 nm  f=0.0024  <S**2>=0.000
     241 -> 247       -0.22258
     242 -> 247        0.53327
     242 -> 249        0.26350
     242 -> 250        0.15956
     243 -> 247        0.20706

 Excited State   4:      Singlet-A      3.3475 eV  370.38 nm  f=0.0042  <S**2>=0.000
     241 -> 247        0.58839
     242 -> 247        0.23333
     242 -> 249        0.13769
     243 -> 247       -0.20984

 Excited State   5:      Singlet-A      3.4929 eV  354.96 nm  f=0.0043  <S**2>=0.000
     240 -> 247        0.27229
     240 -> 249       -0.12179
     241 -> 247        0.19694
     242 -> 247       -0.11518
     243 -> 247        0.54008
     246 -> 248        0.15266

 The electronic state is 1-A.
 Alpha  occ. eigenvalues --  -46.88321 -19.25319 -19.24798 -19.21121 -19.19651
 Alpha  occ. eigenvalues --  -19.18782 -19.17562 -14.42389 -14.42379 -14.40395
 Alpha  occ. eigenvalues --  -14.39419 -10.39315 -10.39112 -10.35312 -10.33716
 Alpha  occ. eigenvalues --  -10.32378 -10.31839 -10.31678 -10.31232 -10.31146
 Alpha  occ. eigenvalues --  -10.31107 -10.31063 -10.30963 -10.29740 -10.29177
 Alpha  occ. eigenvalues --  -10.29098 -10.29065 -10.28854 -10.28747 -10.28517
 Alpha  occ. eigenvalues --  -10.28478 -10.27944 -10.27849 -10.27777 -10.27539
 Alpha  occ. eigenvalues --  -10.27303 -10.27282 -10.27116 -10.27092 -10.27000
 Alpha  occ. eigenvalues --  -10.26972 -10.26959 -10.26711 -10.26470 -10.26397
 Alpha  occ. eigenvalues --  -10.26356 -10.26210 -10.25827 -10.25642 -10.25628
 Alpha  occ. eigenvalues --  -10.25534 -10.25245 -10.24981 -10.24876 -10.24854
 Alpha  occ. eigenvalues --  -10.24738 -10.24726 -10.24506 -10.24440 -10.24393
 Alpha  occ. eigenvalues --  -10.24366 -10.24363 -10.24333 -10.24204 -10.24042
 Alpha  occ. eigenvalues --  -10.23943  -3.16956  -1.91852  -1.91392  -1.91287
 Alpha  occ. eigenvalues --   -1.17736  -1.15894  -1.11644  -1.09992  -1.07612
 Alpha  occ. eigenvalues --   -1.06963  -1.03981  -1.02938  -1.02736  -1.01610
 Alpha  occ. eigenvalues --   -0.93217  -0.90760  -0.89861  -0.89321  -0.88947
 Alpha  occ. eigenvalues --   -0.88415  -0.88005  -0.87571  -0.86986  -0.86324
 Alpha  occ. eigenvalues --   -0.85727  -0.85342  -0.84164  -0.83868  -0.83395
 Alpha  occ. eigenvalues --   -0.82525  -0.82003  -0.81126  -0.80647  -0.80276
 Alpha  occ. eigenvalues --   -0.79873  -0.78139  -0.77801  -0.77421  -0.76562
 Alpha  occ. eigenvalues --   -0.76133  -0.75391  -0.75214  -0.74410  -0.74371
 Alpha  occ. eigenvalues --   -0.73529  -0.72407  -0.71909  -0.70775  -0.69158
 Alpha  occ. eigenvalues --   -0.68713  -0.67853  -0.67561  -0.66584  -0.65929
 Alpha  occ. eigenvalues --   -0.65684  -0.65469  -0.65014  -0.64446  -0.63773
 Alpha  occ. eigenvalues --   -0.63753  -0.63400  -0.62316  -0.62239  -0.59952
 Alpha  occ. eigenvalues --   -0.59671  -0.59415  -0.59246  -0.58278  -0.58033
 Alpha  occ. eigenvalues --   -0.57747  -0.57305  -0.56361  -0.56146  -0.56022
 Alpha  occ. eigenvalues --   -0.55627  -0.55109  -0.54669  -0.54657  -0.53839
 Alpha  occ. eigenvalues --   -0.53781  -0.53284  -0.53194  -0.53052  -0.52731
 Alpha  occ. eigenvalues --   -0.52574  -0.52269  -0.52039  -0.51716  -0.51453
 Alpha  occ. eigenvalues --   -0.51241  -0.51186  -0.50819  -0.50593  -0.50387
 Alpha  occ. eigenvalues --   -0.50227  -0.50086  -0.49895  -0.49606  -0.49290
 Alpha  occ. eigenvalues --   -0.49196  -0.49168  -0.49014  -0.48620  -0.48505
 Alpha  occ. eigenvalues --   -0.48289  -0.48216  -0.48002  -0.47740  -0.47602
 Alpha  occ. eigenvalues --   -0.47470  -0.47076  -0.46887  -0.46789  -0.46486
 Alpha  occ. eigenvalues --   -0.46418  -0.46160  -0.45989  -0.45949  -0.45851
 Alpha  occ. eigenvalues --   -0.45676  -0.45385  -0.45220  -0.45099  -0.44817
 Alpha  occ. eigenvalues --   -0.44703  -0.44651  -0.44396  -0.44224  -0.44135
 Alpha  occ. eigenvalues --   -0.43818  -0.43719  -0.43377  -0.43285  -0.43193
 Alpha  occ. eigenvalues --   -0.43164  -0.42933  -0.42632  -0.42619  -0.42181
 Alpha  occ. eigenvalues --   -0.42153  -0.41911  -0.41713  -0.41380  -0.41237
 Alpha  occ. eigenvalues --   -0.41214  -0.41056  -0.40781  -0.40597  -0.40400
 Alpha  occ. eigenvalues --   -0.39887  -0.39670  -0.39407  -0.38906  -0.38648
 Alpha  occ. eigenvalues --   -0.38443  -0.38321  -0.38105  -0.37749  -0.37612
 Alpha  occ. eigenvalues --   -0.37252  -0.36845  -0.36678  -0.36642  -0.36411
 Alpha  occ. eigenvalues --   -0.36350  -0.35345  -0.35083  -0.34613  -0.34430
 Alpha  occ. eigenvalues --   -0.34291  -0.33584  -0.33439  -0.31630  -0.31098
 Alpha  occ. eigenvalues --   -0.30393  -0.29854  -0.29637  -0.28924  -0.24417
 Alpha  occ. eigenvalues --   -0.21721
 Alpha virt. eigenvalues --   -0.09077  -0.02038   0.00625   0.02364   0.02900
 Alpha virt. eigenvalues --    0.04914   0.05367   0.05562   0.05771   0.06382
 Alpha virt. eigenvalues --    0.07910   0.08554   0.08722   0.08762   0.08773

 Mulliken charges:
               1
     1  Mg   0.839950
     2  C   -0.016819
     3  C   -0.087836
     4  C   -0.068681
     5  C   -0.082270
     6  N   -0.272148
     7  C   -0.057586
     8  C   -0.012623
     9  C   -0.095564
    10  C    0.037561
    11  C    0.073450
    12  C    0.068420
    13  C    0.105307
    14  C    0.107398
    15  O   -0.169350
    16  O   -0.356119
    17  N   -0.384323
    18  C    0.174723
    19  C   -0.135943
    20  C   -0.033518
    21  C    0.183505
    22  C    0.138731
    23  C   -0.026127
    24  O   -0.186948
    25  C    0.039889
    26  N   -0.318303
    27  C    0.018497
    28  C   -0.068118
    29  C   -0.025680
    30  C    0.019137
    31  C    0.065027
    32  C    0.022153
    33  C   -0.003576
    34  N   -0.393451
    35  C    0.169229
    36  C   -0.130976
    37  C    0.006292
    38  C    0.128765
    39  C    0.119716
    40  C    0.030429
    41  O   -0.212572
    42  C    0.015118
    43  C    0.206794
    44  O   -0.234505
    45  O   -0.342140
    46  C    0.178431
    47  C    0.260984
    48  C   -0.119354
    49  C   -0.183818
    50  C    0.078515
    51  C    0.104251
    52  C    0.012404
    53  C    0.060519
    54  C   -0.117642
    55  C    0.048762
    56  C    0.037582
    57  C    0.008303
    58  C    0.047808
    59  C   -0.140023
    60  C    0.061734
    61  C    0.108683
    62  C   -0.045765
    63  C    0.031088
    64  C   -0.160388
    65  C    0.028453
    66  C    0.060830
    67  H   -0.028802
    68  H   -0.047138
    69  H   -0.034866
    70  H    0.010717
    71  H    0.009963
    72  H    0.021292
    73  H    0.030369
    74  H    0.027434
    75  H    0.019750
    76  H    0.010876
    77  H    0.051521
    78  H    0.008341
    79  H    0.031795
    80  H   -0.001953
    81  H    0.043877
    82  H    0.035418
    83  H    0.028780
    84  H    0.029397
    85  H    0.026005
    86  H    0.006658
    87  H    0.034525
    88  H    0.011393
    89  H    0.018874
    90  H    0.019342
    91  H    0.012465
    92  H    0.016949
    93  H    0.029835
    94  H    0.023479
    95  H    0.047950
    96  H    0.037590
    97  H    0.001670
    98  H    0.052209
    99  H    0.040694
   100  H    0.057711
   101  H    0.028395
   102  H    0.027297
   103  H    0.047329
   104  H   -0.005648
   105  H   -0.000651
   106  H    0.002136
   107  H    0.029673
   108  H   -0.019514
   109  H    0.008775
   110  H   -0.006632
   111  H   -0.003044
   112  H   -0.000754
   113  H   -0.007161
   114  H   -0.012620
   115  H    0.009325
   116  H    0.005784
   117  H   -0.008023
   118  H   -0.003565
   119  H   -0.003325
   120  H   -0.012312
   121  H   -0.000686
   122  H   -0.012185
   123  H   -0.003335
   124  H   -0.010465
   125  H    0.008182
   126  H   -0.003419
   127  H    0.004247
   128  H   -0.002765
   129  H   -0.012099
   130  H    0.006169
   131  H    0.012738
   132  H   -0.003027
   133  H   -0.001708
   134  H   -0.003688
   135  H   -0.003570
   136  H    0.012907
   137  H    0.014286
   138  H   -0.001633
   139  H    0.015548
   140  H    0.008646
 Sum of Mulliken charges =  -0.00000

 Dipole moment (field-independent basis, Debye):
    X=             -1.9788    Y=              2.7593    Z=              1.4785  Tot=              3.7034
 Quadrupole moment (field-independent basis, Debye-Ang):
   XX=           -426.7370   YY=           -385.8924   ZZ=           -402.3564
   XY=             50.4450   XZ=              0.0122   YZ=             22.7272

 Normal termination of Gaussian 16 at Fri Apr 29 02:50:00 2022.
