 Gaussian 16, Revision A.03,
 Gaussian 16:  ES64L-G16RevA.03 25-Dec-2016

 ---------------------------------
 #p PBE1PBE/Def2SVP td=(nstates=5)
 ---------------------------------

 ------------------------------------------------------
 step_1851_chromophore_17 TDDFT with PBE1PBE functional
 ------------------------------------------------------
 Symbolic Z-matrix:
 Charge =  0 Multiplicity = 1

                         Standard orientation:
 ---------------------------------------------------------------------
 Center     Atomic      Atomic             Coordinates (Angstroms)
 Number     Number       Type             X           Y           Z
 ---------------------------------------------------------------------
      1         12           0        4.019521    1.415717   -0.419111
      2          6           0        4.551809   -1.952262   -0.079863
      3          6           0        1.207162    0.615719   -2.350024
      4          6           0        3.118087    4.769142   -0.465747
      5          6           0        6.465857    2.021967    1.937401
      6          7           0        2.984070   -0.475287   -1.074767
      7          6           0        3.461767   -1.734507   -0.887527
      8          6           0        2.585456   -2.833100   -1.641663
      9          6           0        1.686328   -1.867549   -2.584659
     10          6           0        1.887841   -0.480182   -1.885939
     11          6           0        1.982393   -2.017773   -4.118680
     12          6           0        1.733284   -3.834467   -0.790287
     13          6           0        1.329886   -5.227592   -1.380918
     14          6           0       -0.151764   -5.380749   -1.352899
     15          8           0       -0.890941   -5.438770   -2.266971
     16          8           0       -0.492722   -5.484795    0.003017
     17          7           0        2.470222    2.520833   -1.280368
     18          6           0        1.379704    1.998490   -1.993827
     19          6           0        0.588281    3.069545   -2.557347
     20          6           0        1.150424    4.285447   -2.085720
     21          6           0        2.337576    3.891112   -1.239076
     22          6           0       -0.491792    2.800629   -3.631239
     23          6           0        0.658038    5.642035   -2.480027
     24          8           0       -0.379642    5.723677   -3.071598
     25          6           0        1.299389    7.022066   -2.081823
     26          7           0        4.655350    3.186849    0.554700
     27          6           0        4.233605    4.457599    0.355694
     28          6           0        4.909555    5.449649    1.338969
     29          6           0        5.899393    4.500434    2.195167
     30          6           0        5.719882    3.116564    1.494522
     31          6           0        5.621144    6.580932    0.506972
     32          6           0        5.540504    4.556530    3.743009
     33          6           0        6.789528    4.677269    4.698994
     34          7           0        5.325606    0.341419    0.670015
     35          6           0        6.338223    0.704741    1.575633
     36          6           0        7.141273   -0.451221    1.991056
     37          6           0        6.418039   -1.520329    1.324715
     38          6           0        5.355769   -0.988667    0.566270
     39          6           0        8.434427   -0.436965    2.933821
     40          6           0        6.525186   -2.877827    0.972649
     41          8           0        7.448537   -3.678773    1.235533
     42          6           0        5.198766   -3.260347    0.199342
     43          6           0        5.555589   -3.934539   -1.040476
     44          8           0        6.123710   -3.409589   -2.006949
     45          8           0        5.101230   -5.207916   -0.886539
     46          6           0        5.088136   -6.102028   -2.068071
     47          6           0       -1.925690   -5.545460    0.152860
     48          6           0       -2.394016   -4.620464    1.246137
     49          6           0       -3.693339   -4.528562    1.669123
     50          6           0       -4.765223   -5.388953    1.102029
     51          6           0       -4.024185   -3.475772    2.667691
     52          6           0       -5.048320   -2.389729    2.307996
     53          6           0       -6.441595   -2.659095    2.874110
     54          6           0       -7.583354   -2.501464    1.807735
     55          6           0       -8.810309   -3.336655    2.195464
     56          6           0       -7.916495   -1.004693    1.578516
     57          6           0       -7.254272   -0.237374    0.395958
     58          6           0       -6.835711    1.185514    0.777638
     59          6           0       -7.912844    2.230804    0.357409
     60          6           0       -7.269339    3.624905    0.124340
     61          6           0       -9.212824    2.235829    1.235252
     62          6           0      -10.315574    1.452801    0.618005
     63          6           0      -11.690169    2.238236    0.681169
     64          6           0      -12.339796    2.227426   -0.692395
     65          6           0      -11.406897    2.868878   -1.808937
     66          6           0      -13.815111    2.788495   -0.651357
     67          1           0        0.461243    0.343988   -3.100838
     68          1           0        2.868283    5.832179   -0.485787
     69          1           0        7.193828    2.376178    2.671363
     70          1           0        3.222310   -3.352422   -2.357587
     71          1           0        0.609219   -1.943533   -2.432825
     72          1           0        1.016215   -1.641297   -4.453569
     73          1           0        2.198051   -3.013949   -4.505568
     74          1           0        2.811329   -1.400383   -4.465204
     75          1           0        0.936791   -3.234636   -0.347953
     76          1           0        2.335726   -4.137086    0.065850
     77          1           0        1.774990   -6.124352   -0.951418
     78          1           0        1.607370   -5.126702   -2.430170
     79          1           0       -1.481913    3.142755   -3.330854
     80          1           0       -0.721086    1.751337   -3.814174
     81          1           0       -0.155364    3.301789   -4.538890
     82          1           0        0.913947    7.208169   -1.079112
     83          1           0        0.945062    7.849782   -2.696345
     84          1           0        2.383397    7.097248   -2.000449
     85          1           0        4.062973    5.761775    1.950556
     86          1           0        6.915830    4.817066    1.962658
     87          1           0        5.673014    6.347160   -0.556907
     88          1           0        6.619859    6.683144    0.933189
     89          1           0        5.186127    7.568921    0.655535
     90          1           0        5.042262    3.621711    4.001073
     91          1           0        4.844057    5.379559    3.904704
     92          1           0        6.778637    5.722519    5.007345
     93          1           0        7.696742    4.412426    4.155628
     94          1           0        6.596331    4.078877    5.589655
     95          1           0        9.359134   -0.899208    2.589163
     96          1           0        8.117792   -0.911258    3.862999
     97          1           0        8.677562    0.605527    3.137927
     98          1           0        4.552032   -3.836661    0.859766
     99          1           0        4.263827   -6.815303   -2.051634
    100          1           0        6.089427   -6.515977   -2.184279
    101          1           0        4.822449   -5.444733   -2.896464
    102          1           0       -2.139829   -6.599629    0.332655
    103          1           0       -2.533572   -5.265835   -0.707483
    104          1           0       -1.731408   -3.868213    1.674630
    105          1           0       -5.408535   -5.829668    1.865032
    106          1           0       -4.401425   -6.310711    0.647380
    107          1           0       -5.500745   -4.913665    0.453594
    108          1           0       -3.070436   -2.961625    2.784998
    109          1           0       -4.366297   -4.009330    3.554387
    110          1           0       -5.027406   -2.319947    1.220474
    111          1           0       -4.653103   -1.409437    2.573651
    112          1           0       -6.542890   -1.960377    3.704523
    113          1           0       -6.470480   -3.661116    3.303330
    114          1           0       -7.303537   -2.907942    0.835897
    115          1           0       -9.241455   -3.744625    1.282095
    116          1           0       -9.506050   -2.787175    2.830291
    117          1           0       -8.578543   -4.197615    2.823090
    118          1           0       -7.709640   -0.515631    2.530759
    119          1           0       -8.984676   -0.983552    1.364732
    120          1           0       -8.096801   -0.241008   -0.295661
    121          1           0       -6.422227   -0.643334   -0.180287
    122          1           0       -5.956030    1.394617    0.168645
    123          1           0       -6.644791    1.166807    1.850239
    124          1           0       -8.122582    1.807410   -0.624856
    125          1           0       -7.221160    3.830799   -0.945605
    126          1           0       -6.225092    3.655157    0.434284
    127          1           0       -7.729241    4.441823    0.679196
    128          1           0       -9.544173    3.241110    1.495654
    129          1           0       -9.056548    1.719769    2.182432
    130          1           0      -10.530435    0.560788    1.205618
    131          1           0      -10.128385    1.082894   -0.390215
    132          1           0      -11.573197    3.302481    0.889584
    133          1           0      -12.228724    1.779295    1.509125
    134          1           0      -12.360387    1.163648   -0.932925
    135          1           0      -11.959558    3.589021   -2.411941
    136          1           0      -11.055068    2.167431   -2.564261
    137          1           0      -10.578602    3.447684   -1.399750
    138          1           0      -14.012085    3.419262   -1.518695
    139          1           0      -14.065338    3.350981    0.249115
    140          1           0      -14.461467    1.922289   -0.793635
 ---------------------------------------------------------------------

 SCF Done:  E(RPBE1PBE) =  -3005.34175535     A.U. after   15 cycles

 Excitation energies and oscillator strengths:

 Excited State   1:      Singlet-A      1.8874 eV  656.90 nm  f=0.3672  <S**2>=0.000
     245 -> 248        0.17449
     246 -> 247        0.69010
     246 <- 247       -0.10214
 This state for optimization and/or second-order correction.
 Total Energy, E(TD-HF/TD-DFT) =  -3005.27239417
 Copying the excited state density for this state as the 1-particle RhoCI density.

 Excited State   2:      Singlet-A      2.2466 eV  551.88 nm  f=0.1230  <S**2>=0.000
     245 -> 247        0.65265
     246 -> 248       -0.25391

 Excited State   3:      Singlet-A      2.7427 eV  452.06 nm  f=0.0001  <S**2>=0.000
     243 -> 247        0.67927
     243 -> 249        0.16247

 Excited State   4:      Singlet-A      2.9195 eV  424.67 nm  f=0.0014  <S**2>=0.000
     241 -> 247        0.24391
     242 -> 247        0.63413

 Excited State   5:      Singlet-A      3.0502 eV  406.48 nm  f=0.0010  <S**2>=0.000
     240 -> 247        0.41628
     241 -> 247        0.49064
     242 -> 247       -0.26140

 The electronic state is 1-A.
 Alpha  occ. eigenvalues --  -46.91742 -19.26030 -19.25520 -19.21356 -19.19977
 Alpha  occ. eigenvalues --  -19.18784 -19.18114 -14.41947 -14.41900 -14.39937
 Alpha  occ. eigenvalues --  -14.39227 -10.36326 -10.36190 -10.32277 -10.31100
 Alpha  occ. eigenvalues --  -10.29614 -10.29392 -10.29082 -10.29049 -10.28990
 Alpha  occ. eigenvalues --  -10.28648 -10.28619 -10.28442 -10.27800 -10.27240
 Alpha  occ. eigenvalues --  -10.26929 -10.26674 -10.26658 -10.26484 -10.26431
 Alpha  occ. eigenvalues --  -10.26285 -10.25502 -10.25443 -10.25248 -10.25175
 Alpha  occ. eigenvalues --  -10.25113 -10.24869 -10.24842 -10.24745 -10.24732
 Alpha  occ. eigenvalues --  -10.24683 -10.24414 -10.24135 -10.23978 -10.23718
 Alpha  occ. eigenvalues --  -10.23663 -10.23643 -10.23487 -10.23313 -10.23092
 Alpha  occ. eigenvalues --  -10.22990 -10.22934 -10.22898 -10.22510 -10.22429
 Alpha  occ. eigenvalues --  -10.22280 -10.22245 -10.21969 -10.21896 -10.21883
 Alpha  occ. eigenvalues --  -10.21877 -10.21764 -10.21751 -10.21715 -10.21578
 Alpha  occ. eigenvalues --  -10.21299  -3.13954  -1.86791  -1.86308  -1.86208
 Alpha  occ. eigenvalues --   -1.12540  -1.10718  -1.06216  -1.04893  -1.02498
 Alpha  occ. eigenvalues --   -1.01925  -0.98700  -0.97669  -0.97251  -0.96168
 Alpha  occ. eigenvalues --   -0.87750  -0.84867  -0.83924  -0.83488  -0.83237
 Alpha  occ. eigenvalues --   -0.82514  -0.82319  -0.81884  -0.81075  -0.80564
 Alpha  occ. eigenvalues --   -0.79913  -0.79782  -0.78511  -0.78061  -0.77618
 Alpha  occ. eigenvalues --   -0.76674  -0.76325  -0.75435  -0.74735  -0.74389
 Alpha  occ. eigenvalues --   -0.74089  -0.72423  -0.72068  -0.71676  -0.70701
 Alpha  occ. eigenvalues --   -0.70474  -0.69717  -0.69257  -0.68546  -0.68490
 Alpha  occ. eigenvalues --   -0.68011  -0.66753  -0.66319  -0.65051  -0.63602
 Alpha  occ. eigenvalues --   -0.63190  -0.62088  -0.61960  -0.60827  -0.60455
 Alpha  occ. eigenvalues --   -0.60139  -0.59658  -0.59520  -0.59029  -0.58216
 Alpha  occ. eigenvalues --   -0.57845  -0.57504  -0.56958  -0.56422  -0.54353
 Alpha  occ. eigenvalues --   -0.54187  -0.54038  -0.53817  -0.52804  -0.52622
 Alpha  occ. eigenvalues --   -0.52149  -0.51908  -0.50827  -0.50618  -0.50515
 Alpha  occ. eigenvalues --   -0.50215  -0.49708  -0.49245  -0.49051  -0.48417
 Alpha  occ. eigenvalues --   -0.48217  -0.47802  -0.47733  -0.47614  -0.47262
 Alpha  occ. eigenvalues --   -0.47210  -0.46704  -0.46590  -0.46132  -0.45921
 Alpha  occ. eigenvalues --   -0.45858  -0.45730  -0.45411  -0.45140  -0.44971
 Alpha  occ. eigenvalues --   -0.44780  -0.44678  -0.44416  -0.44140  -0.43858
 Alpha  occ. eigenvalues --   -0.43792  -0.43670  -0.43624  -0.43193  -0.43064
 Alpha  occ. eigenvalues --   -0.42996  -0.42810  -0.42688  -0.42372  -0.42264
 Alpha  occ. eigenvalues --   -0.42121  -0.41734  -0.41511  -0.41416  -0.41298
 Alpha  occ. eigenvalues --   -0.41149  -0.40778  -0.40607  -0.40518  -0.40393
 Alpha  occ. eigenvalues --   -0.40339  -0.40059  -0.40000  -0.39840  -0.39619
 Alpha  occ. eigenvalues --   -0.39521  -0.39481  -0.39198  -0.38975  -0.38844
 Alpha  occ. eigenvalues --   -0.38634  -0.38461  -0.38048  -0.38023  -0.37972
 Alpha  occ. eigenvalues --   -0.37890  -0.37812  -0.37344  -0.37284  -0.37024
 Alpha  occ. eigenvalues --   -0.36871  -0.36852  -0.36593  -0.36321  -0.36111
 Alpha  occ. eigenvalues --   -0.35922  -0.35735  -0.35659  -0.35369  -0.35352
 Alpha  occ. eigenvalues --   -0.34669  -0.34629  -0.34207  -0.33957  -0.33497
 Alpha  occ. eigenvalues --   -0.33449  -0.33103  -0.33063  -0.32748  -0.32499
 Alpha  occ. eigenvalues --   -0.32022  -0.31855  -0.31564  -0.31423  -0.31406
 Alpha  occ. eigenvalues --   -0.31202  -0.30241  -0.30144  -0.29538  -0.29426
 Alpha  occ. eigenvalues --   -0.29312  -0.29064  -0.28356  -0.27281  -0.25983
 Alpha  occ. eigenvalues --   -0.25555  -0.25455  -0.24920  -0.24248  -0.21351
 Alpha  occ. eigenvalues --   -0.19346
 Alpha virt. eigenvalues --   -0.11582  -0.05576  -0.03624  -0.02005   0.00007
 Alpha virt. eigenvalues --    0.00484   0.00806   0.01190   0.01291   0.02893
 Alpha virt. eigenvalues --    0.04220   0.04748   0.04787   0.05358   0.05512

 Mulliken charges:
               1
     1  Mg   0.990005
     2  C   -0.039295
     3  C   -0.085231
     4  C   -0.060684
     5  C   -0.082423
     6  N   -0.375342
     7  C    0.028306
     8  C   -0.086638
     9  C   -0.163361
    10  C    0.076523
    11  C    0.014520
    12  C    0.018605
    13  C    0.024189
    14  C    0.173351
    15  O   -0.205223
    16  O   -0.382955
    17  N   -0.496679
    18  C    0.195629
    19  C   -0.156502
    20  C   -0.084938
    21  C    0.206226
    22  C    0.080288
    23  C    0.022251
    24  O   -0.220428
    25  C   -0.035897
    26  N   -0.419960
    27  C    0.061075
    28  C   -0.148681
    29  C   -0.098135
    30  C    0.057563
    31  C    0.008695
    32  C   -0.036184
    33  C   -0.077889
    34  N   -0.522631
    35  C    0.177510
    36  C   -0.125788
    37  C   -0.040970
    38  C    0.186337
    39  C    0.066192
    40  C    0.119336
    41  O   -0.254415
    42  C   -0.103525
    43  C    0.301505
    44  O   -0.269370
    45  O   -0.375380
    46  C    0.124247
    47  C    0.221118
    48  C   -0.130908
    49  C   -0.228058
    50  C    0.020673
    51  C    0.034759
    52  C   -0.042411
    53  C    0.000933
    54  C   -0.205225
    55  C   -0.011182
    56  C   -0.016173
    57  C   -0.050606
    58  C   -0.012221
    59  C   -0.227665
    60  C    0.002787
    61  C    0.058868
    62  C   -0.112496
    63  C   -0.017067
    64  C   -0.255611
    65  C   -0.032944
    66  C   -0.000296
    67  H    0.003306
    68  H   -0.011503
    69  H    0.000919
    70  H    0.053051
    71  H    0.046802
    72  H    0.048100
    73  H    0.056185
    74  H    0.054759
    75  H    0.051791
    76  H    0.046586
    77  H    0.081276
    78  H    0.043613
    79  H    0.058132
    80  H    0.023443
    81  H    0.070210
    82  H    0.062499
    83  H    0.055975
    84  H    0.053537
    85  H    0.062002
    86  H    0.043697
    87  H    0.061499
    88  H    0.038437
    89  H    0.046341
    90  H    0.052374
    91  H    0.044927
    92  H    0.045971
    93  H    0.054880
    94  H    0.051393
    95  H    0.074458
    96  H    0.065904
    97  H    0.029954
    98  H    0.089325
    99  H    0.061935
   100  H    0.079428
   101  H    0.048719
   102  H    0.054152
   103  H    0.074413
   104  H    0.024136
   105  H    0.026890
   106  H    0.028478
   107  H    0.057098
   108  H    0.013655
   109  H    0.042206
   110  H    0.027164
   111  H    0.029304
   112  H    0.031817
   113  H    0.024220
   114  H    0.026959
   115  H    0.037032
   116  H    0.032980
   117  H    0.019617
   118  H    0.026654
   119  H    0.033623
   120  H    0.021247
   121  H    0.029798
   122  H    0.021880
   123  H    0.029798
   124  H    0.028498
   125  H    0.035407
   126  H    0.024078
   127  H    0.030929
   128  H    0.027894
   129  H    0.021310
   130  H    0.039976
   131  H    0.042376
   132  H    0.029555
   133  H    0.030320
   134  H    0.035629
   135  H    0.024363
   136  H    0.039362
   137  H    0.043487
   138  H    0.025619
   139  H    0.041624
   140  H    0.036422
 Sum of Mulliken charges =  -0.00000

 Dipole moment (field-independent basis, Debye):
    X=             -1.5562    Y=              2.5353    Z=              1.7808  Tot=              3.4671
 Quadrupole moment (field-independent basis, Debye-Ang):
   XX=           -419.9155   YY=           -383.4330   ZZ=           -399.2193
   XY=             50.7593   XZ=              2.0472   YZ=             24.1526

 Normal termination of Gaussian 16 at Fri Apr 29 03:09:48 2022.
