 Gaussian 16, Revision A.03,
 Gaussian 16:  ES64L-G16RevA.03 25-Dec-2016

 --------------------------------
 #p wB97XD/Def2SVP td=(nstates=5)
 --------------------------------

 -----------------------------------------------------
 step_1851_chromophore_17 TDDFT with wB97XD functional
 -----------------------------------------------------
 Symbolic Z-matrix:
 Charge =  0 Multiplicity = 1

                         Standard orientation:
 ---------------------------------------------------------------------
 Center     Atomic      Atomic             Coordinates (Angstroms)
 Number     Number       Type             X           Y           Z
 ---------------------------------------------------------------------
      1         12           0        4.019521    1.415717   -0.419111
      2          6           0        4.551809   -1.952262   -0.079863
      3          6           0        1.207162    0.615719   -2.350024
      4          6           0        3.118087    4.769142   -0.465747
      5          6           0        6.465857    2.021967    1.937401
      6          7           0        2.984070   -0.475287   -1.074767
      7          6           0        3.461767   -1.734507   -0.887527
      8          6           0        2.585456   -2.833100   -1.641663
      9          6           0        1.686328   -1.867549   -2.584659
     10          6           0        1.887841   -0.480182   -1.885939
     11          6           0        1.982393   -2.017773   -4.118680
     12          6           0        1.733284   -3.834467   -0.790287
     13          6           0        1.329886   -5.227592   -1.380918
     14          6           0       -0.151764   -5.380749   -1.352899
     15          8           0       -0.890941   -5.438770   -2.266971
     16          8           0       -0.492722   -5.484795    0.003017
     17          7           0        2.470222    2.520833   -1.280368
     18          6           0        1.379704    1.998490   -1.993827
     19          6           0        0.588281    3.069545   -2.557347
     20          6           0        1.150424    4.285447   -2.085720
     21          6           0        2.337576    3.891112   -1.239076
     22          6           0       -0.491792    2.800629   -3.631239
     23          6           0        0.658038    5.642035   -2.480027
     24          8           0       -0.379642    5.723677   -3.071598
     25          6           0        1.299389    7.022066   -2.081823
     26          7           0        4.655350    3.186849    0.554700
     27          6           0        4.233605    4.457599    0.355694
     28          6           0        4.909555    5.449649    1.338969
     29          6           0        5.899393    4.500434    2.195167
     30          6           0        5.719882    3.116564    1.494522
     31          6           0        5.621144    6.580932    0.506972
     32          6           0        5.540504    4.556530    3.743009
     33          6           0        6.789528    4.677269    4.698994
     34          7           0        5.325606    0.341419    0.670015
     35          6           0        6.338223    0.704741    1.575633
     36          6           0        7.141273   -0.451221    1.991056
     37          6           0        6.418039   -1.520329    1.324715
     38          6           0        5.355769   -0.988667    0.566270
     39          6           0        8.434427   -0.436965    2.933821
     40          6           0        6.525186   -2.877827    0.972649
     41          8           0        7.448537   -3.678773    1.235533
     42          6           0        5.198766   -3.260347    0.199342
     43          6           0        5.555589   -3.934539   -1.040476
     44          8           0        6.123710   -3.409589   -2.006949
     45          8           0        5.101230   -5.207916   -0.886539
     46          6           0        5.088136   -6.102028   -2.068071
     47          6           0       -1.925690   -5.545460    0.152860
     48          6           0       -2.394016   -4.620464    1.246137
     49          6           0       -3.693339   -4.528562    1.669123
     50          6           0       -4.765223   -5.388953    1.102029
     51          6           0       -4.024185   -3.475772    2.667691
     52          6           0       -5.048320   -2.389729    2.307996
     53          6           0       -6.441595   -2.659095    2.874110
     54          6           0       -7.583354   -2.501464    1.807735
     55          6           0       -8.810309   -3.336655    2.195464
     56          6           0       -7.916495   -1.004693    1.578516
     57          6           0       -7.254272   -0.237374    0.395958
     58          6           0       -6.835711    1.185514    0.777638
     59          6           0       -7.912844    2.230804    0.357409
     60          6           0       -7.269339    3.624905    0.124340
     61          6           0       -9.212824    2.235829    1.235252
     62          6           0      -10.315574    1.452801    0.618005
     63          6           0      -11.690169    2.238236    0.681169
     64          6           0      -12.339796    2.227426   -0.692395
     65          6           0      -11.406897    2.868878   -1.808937
     66          6           0      -13.815111    2.788495   -0.651357
     67          1           0        0.461243    0.343988   -3.100838
     68          1           0        2.868283    5.832179   -0.485787
     69          1           0        7.193828    2.376178    2.671363
     70          1           0        3.222310   -3.352422   -2.357587
     71          1           0        0.609219   -1.943533   -2.432825
     72          1           0        1.016215   -1.641297   -4.453569
     73          1           0        2.198051   -3.013949   -4.505568
     74          1           0        2.811329   -1.400383   -4.465204
     75          1           0        0.936791   -3.234636   -0.347953
     76          1           0        2.335726   -4.137086    0.065850
     77          1           0        1.774990   -6.124352   -0.951418
     78          1           0        1.607370   -5.126702   -2.430170
     79          1           0       -1.481913    3.142755   -3.330854
     80          1           0       -0.721086    1.751337   -3.814174
     81          1           0       -0.155364    3.301789   -4.538890
     82          1           0        0.913947    7.208169   -1.079112
     83          1           0        0.945062    7.849782   -2.696345
     84          1           0        2.383397    7.097248   -2.000449
     85          1           0        4.062973    5.761775    1.950556
     86          1           0        6.915830    4.817066    1.962658
     87          1           0        5.673014    6.347160   -0.556907
     88          1           0        6.619859    6.683144    0.933189
     89          1           0        5.186127    7.568921    0.655535
     90          1           0        5.042262    3.621711    4.001073
     91          1           0        4.844057    5.379559    3.904704
     92          1           0        6.778637    5.722519    5.007345
     93          1           0        7.696742    4.412426    4.155628
     94          1           0        6.596331    4.078877    5.589655
     95          1           0        9.359134   -0.899208    2.589163
     96          1           0        8.117792   -0.911258    3.862999
     97          1           0        8.677562    0.605527    3.137927
     98          1           0        4.552032   -3.836661    0.859766
     99          1           0        4.263827   -6.815303   -2.051634
    100          1           0        6.089427   -6.515977   -2.184279
    101          1           0        4.822449   -5.444733   -2.896464
    102          1           0       -2.139829   -6.599629    0.332655
    103          1           0       -2.533572   -5.265835   -0.707483
    104          1           0       -1.731408   -3.868213    1.674630
    105          1           0       -5.408535   -5.829668    1.865032
    106          1           0       -4.401425   -6.310711    0.647380
    107          1           0       -5.500745   -4.913665    0.453594
    108          1           0       -3.070436   -2.961625    2.784998
    109          1           0       -4.366297   -4.009330    3.554387
    110          1           0       -5.027406   -2.319947    1.220474
    111          1           0       -4.653103   -1.409437    2.573651
    112          1           0       -6.542890   -1.960377    3.704523
    113          1           0       -6.470480   -3.661116    3.303330
    114          1           0       -7.303537   -2.907942    0.835897
    115          1           0       -9.241455   -3.744625    1.282095
    116          1           0       -9.506050   -2.787175    2.830291
    117          1           0       -8.578543   -4.197615    2.823090
    118          1           0       -7.709640   -0.515631    2.530759
    119          1           0       -8.984676   -0.983552    1.364732
    120          1           0       -8.096801   -0.241008   -0.295661
    121          1           0       -6.422227   -0.643334   -0.180287
    122          1           0       -5.956030    1.394617    0.168645
    123          1           0       -6.644791    1.166807    1.850239
    124          1           0       -8.122582    1.807410   -0.624856
    125          1           0       -7.221160    3.830799   -0.945605
    126          1           0       -6.225092    3.655157    0.434284
    127          1           0       -7.729241    4.441823    0.679196
    128          1           0       -9.544173    3.241110    1.495654
    129          1           0       -9.056548    1.719769    2.182432
    130          1           0      -10.530435    0.560788    1.205618
    131          1           0      -10.128385    1.082894   -0.390215
    132          1           0      -11.573197    3.302481    0.889584
    133          1           0      -12.228724    1.779295    1.509125
    134          1           0      -12.360387    1.163648   -0.932925
    135          1           0      -11.959558    3.589021   -2.411941
    136          1           0      -11.055068    2.167431   -2.564261
    137          1           0      -10.578602    3.447684   -1.399750
    138          1           0      -14.012085    3.419262   -1.518695
    139          1           0      -14.065338    3.350981    0.249115
    140          1           0      -14.461467    1.922289   -0.793635
 ---------------------------------------------------------------------

 SCF Done:  E(RwB97XD) =  -3007.85522611     A.U. after   19 cycles

 Excitation energies and oscillator strengths:

 Excited State   1:      Singlet-A      1.7110 eV  724.62 nm  f=0.3810  <S**2>=0.000
     245 -> 248        0.18058
     246 -> 247        0.68296
     245 <- 248        0.11334
 This state for optimization and/or second-order correction.
 Total Energy, E(TD-HF/TD-DFT) =  -3007.79234727
 Copying the excited state density for this state as the 1-particle RhoCI density.

 Excited State   2:      Singlet-A      2.1878 eV  566.70 nm  f=0.1220  <S**2>=0.000
     245 -> 247        0.63935
     246 -> 248       -0.28286

 Excited State   3:      Singlet-A      3.3426 eV  370.92 nm  f=0.0046  <S**2>=0.000
     240 -> 247       -0.10304
     241 -> 247        0.57348
     241 -> 249       -0.10560
     243 -> 247       -0.32273

 Excited State   4:      Singlet-A      3.3831 eV  366.48 nm  f=0.0036  <S**2>=0.000
     241 -> 247        0.25723
     242 -> 247        0.43929
     242 -> 249        0.22997
     242 -> 250        0.13864
     243 -> 247        0.28027
     243 -> 249        0.20732
     243 -> 250        0.13375

 Excited State   5:      Singlet-A      3.5230 eV  351.92 nm  f=0.0040  <S**2>=0.000
     240 -> 247        0.44646
     240 -> 249       -0.20354
     240 -> 250        0.16587
     241 -> 247        0.14326
     242 -> 247       -0.26520
     243 -> 247        0.27473
     246 -> 248        0.10461

 The electronic state is 1-A.
 Alpha  occ. eigenvalues --  -46.94686 -19.30532 -19.30066 -19.26037 -19.24599
 Alpha  occ. eigenvalues --  -19.23848 -19.22595 -14.47007 -14.46984 -14.45074
 Alpha  occ. eigenvalues --  -14.44000 -10.43105 -10.42950 -10.39341 -10.37698
 Alpha  occ. eigenvalues --  -10.36107 -10.35923 -10.35835 -10.35239 -10.35202
 Alpha  occ. eigenvalues --  -10.35147 -10.35131 -10.34949 -10.33680 -10.33350
 Alpha  occ. eigenvalues --  -10.33284 -10.33167 -10.32928 -10.32685 -10.32605
 Alpha  occ. eigenvalues --  -10.32540 -10.31975 -10.31845 -10.31840 -10.31638
 Alpha  occ. eigenvalues --  -10.31390 -10.31370 -10.31043 -10.31004 -10.30957
 Alpha  occ. eigenvalues --  -10.30933 -10.30844 -10.30606 -10.30397 -10.30397
 Alpha  occ. eigenvalues --  -10.30344 -10.30024 -10.29784 -10.29624 -10.29479
 Alpha  occ. eigenvalues --  -10.29473 -10.29241 -10.28906 -10.28835 -10.28826
 Alpha  occ. eigenvalues --  -10.28693 -10.28655 -10.28368 -10.28336 -10.28288
 Alpha  occ. eigenvalues --  -10.28260 -10.28209 -10.28200 -10.28128 -10.27982
 Alpha  occ. eigenvalues --  -10.27764  -3.20746  -1.94334  -1.93854  -1.93747
 Alpha  occ. eigenvalues --   -1.19899  -1.18055  -1.13920  -1.12219  -1.09780
 Alpha  occ. eigenvalues --   -1.09152  -1.05983  -1.04953  -1.04794  -1.03672
 Alpha  occ. eigenvalues --   -0.95185  -0.92556  -0.91624  -0.91151  -0.90895
 Alpha  occ. eigenvalues --   -0.90201  -0.89929  -0.89469  -0.88767  -0.88329
 Alpha  occ. eigenvalues --   -0.87689  -0.87256  -0.86074  -0.85723  -0.85281
 Alpha  occ. eigenvalues --   -0.84347  -0.83910  -0.83101  -0.82551  -0.82127
 Alpha  occ. eigenvalues --   -0.81748  -0.80035  -0.79766  -0.79358  -0.78396
 Alpha  occ. eigenvalues --   -0.78080  -0.77332  -0.76994  -0.76245  -0.76194
 Alpha  occ. eigenvalues --   -0.75509  -0.74358  -0.73893  -0.72700  -0.71070
 Alpha  occ. eigenvalues --   -0.70725  -0.69734  -0.69597  -0.68466  -0.67897
 Alpha  occ. eigenvalues --   -0.67618  -0.67323  -0.67044  -0.66461  -0.65721
 Alpha  occ. eigenvalues --   -0.65560  -0.65219  -0.64298  -0.64076  -0.61852
 Alpha  occ. eigenvalues --   -0.61698  -0.61461  -0.61207  -0.60211  -0.60006
 Alpha  occ. eigenvalues --   -0.59641  -0.59321  -0.58330  -0.58072  -0.57894
 Alpha  occ. eigenvalues --   -0.57601  -0.57086  -0.56585  -0.56547  -0.55722
 Alpha  occ. eigenvalues --   -0.55688  -0.55162  -0.55123  -0.54976  -0.54625
 Alpha  occ. eigenvalues --   -0.54546  -0.54147  -0.53961  -0.53683  -0.53420
 Alpha  occ. eigenvalues --   -0.53156  -0.53116  -0.52736  -0.52486  -0.52294
 Alpha  occ. eigenvalues --   -0.52130  -0.52032  -0.51814  -0.51480  -0.51272
 Alpha  occ. eigenvalues --   -0.51106  -0.51046  -0.50916  -0.50569  -0.50386
 Alpha  occ. eigenvalues --   -0.50271  -0.50116  -0.49925  -0.49653  -0.49516
 Alpha  occ. eigenvalues --   -0.49400  -0.49007  -0.48771  -0.48765  -0.48396
 Alpha  occ. eigenvalues --   -0.48342  -0.48036  -0.47869  -0.47811  -0.47692
 Alpha  occ. eigenvalues --   -0.47652  -0.47260  -0.47115  -0.47032  -0.46769
 Alpha  occ. eigenvalues --   -0.46635  -0.46566  -0.46317  -0.46186  -0.46038
 Alpha  occ. eigenvalues --   -0.45774  -0.45644  -0.45246  -0.45180  -0.45157
 Alpha  occ. eigenvalues --   -0.45024  -0.44865  -0.44655  -0.44513  -0.44086
 Alpha  occ. eigenvalues --   -0.44022  -0.43871  -0.43618  -0.43357  -0.43174
 Alpha  occ. eigenvalues --   -0.43076  -0.42905  -0.42700  -0.42460  -0.42331
 Alpha  occ. eigenvalues --   -0.41755  -0.41555  -0.41254  -0.40824  -0.40517
 Alpha  occ. eigenvalues --   -0.40427  -0.40198  -0.40060  -0.39710  -0.39584
 Alpha  occ. eigenvalues --   -0.39094  -0.38856  -0.38582  -0.38491  -0.38334
 Alpha  occ. eigenvalues --   -0.38249  -0.37176  -0.37052  -0.36469  -0.36365
 Alpha  occ. eigenvalues --   -0.36241  -0.35841  -0.35278  -0.33872  -0.33133
 Alpha  occ. eigenvalues --   -0.32612  -0.31814  -0.31744  -0.30959  -0.26363
 Alpha  occ. eigenvalues --   -0.23547
 Alpha virt. eigenvalues --   -0.07427  -0.00133   0.02676   0.04515   0.05958
 Alpha virt. eigenvalues --    0.07212   0.07615   0.07835   0.08166   0.09148
 Alpha virt. eigenvalues --    0.10976   0.11396   0.11585   0.12099   0.12273

 Mulliken charges:
               1
     1  Mg   0.979525
     2  C   -0.031065
     3  C   -0.098516
     4  C   -0.079321
     5  C   -0.090321
     6  N   -0.340741
     7  C   -0.013767
     8  C   -0.053229
     9  C   -0.139278
    10  C    0.062820
    11  C    0.024759
    12  C    0.028230
    13  C    0.044127
    14  C    0.166820
    15  O   -0.203873
    16  O   -0.383585
    17  N   -0.466494
    18  C    0.192160
    19  C   -0.149474
    20  C   -0.077082
    21  C    0.207487
    22  C    0.091107
    23  C    0.018024
    24  O   -0.215735
    25  C   -0.022026
    26  N   -0.389226
    27  C    0.049499
    28  C   -0.122543
    29  C   -0.071272
    30  C    0.040913
    31  C    0.018856
    32  C   -0.023080
    33  C   -0.060701
    34  N   -0.484289
    35  C    0.172109
    36  C   -0.137148
    37  C   -0.034842
    38  C    0.162121
    39  C    0.082413
    40  C    0.100450
    41  O   -0.247835
    42  C   -0.060457
    43  C    0.274481
    44  O   -0.263482
    45  O   -0.372692
    46  C    0.139170
    47  C    0.234358
    48  C   -0.138275
    49  C   -0.214700
    50  C    0.031399
    51  C    0.057605
    52  C   -0.028939
    53  C    0.019810
    54  C   -0.173430
    55  C    0.000708
    56  C    0.006450
    57  C   -0.035684
    58  C    0.004906
    59  C   -0.191850
    60  C    0.014133
    61  C    0.069936
    62  C   -0.090279
    63  C   -0.004287
    64  C   -0.221999
    65  C   -0.020758
    66  C    0.011704
    67  H   -0.006871
    68  H   -0.022683
    69  H   -0.009945
    70  H    0.032787
    71  H    0.035517
    72  H    0.041699
    73  H    0.052293
    74  H    0.049863
    75  H    0.043417
    76  H    0.036177
    77  H    0.077616
    78  H    0.034153
    79  H    0.055972
    80  H    0.021106
    81  H    0.067065
    82  H    0.058007
    83  H    0.055690
    84  H    0.049192
    85  H    0.051577
    86  H    0.030807
    87  H    0.055424
    88  H    0.032949
    89  H    0.041093
    90  H    0.043764
    91  H    0.036182
    92  H    0.039455
    93  H    0.048560
    94  H    0.046281
    95  H    0.069953
    96  H    0.059451
    97  H    0.022056
    98  H    0.082369
    99  H    0.058520
   100  H    0.077161
   101  H    0.043508
   102  H    0.048776
   103  H    0.068146
   104  H    0.020509
   105  H    0.021062
   106  H    0.023537
   107  H    0.051226
   108  H    0.006299
   109  H    0.033050
   110  H    0.012525
   111  H    0.022995
   112  H    0.024301
   113  H    0.011816
   114  H    0.012231
   115  H    0.032227
   116  H    0.026889
   117  H    0.013633
   118  H    0.013145
   119  H    0.016226
   120  H    0.010033
   121  H    0.023594
   122  H    0.013623
   123  H    0.019086
   124  H    0.011420
   125  H    0.030049
   126  H    0.017597
   127  H    0.025621
   128  H    0.018513
   129  H    0.011856
   130  H    0.030733
   131  H    0.027586
   132  H    0.017656
   133  H    0.023940
   134  H    0.022803
   135  H    0.018075
   136  H    0.034533
   137  H    0.034116
   138  H    0.019167
   139  H    0.036624
   140  H    0.030814
 Sum of Mulliken charges =  -0.00000

 Dipole moment (field-independent basis, Debye):
    X=             -2.1129    Y=              2.9330    Z=              1.3645  Tot=              3.8638
 Quadrupole moment (field-independent basis, Debye-Ang):
   XX=           -423.6736   YY=           -381.0633   ZZ=           -398.7797
   XY=             51.0963   XZ=              0.3343   YZ=             22.8597

 Normal termination of Gaussian 16 at Fri Apr 29 03:38:21 2022.
