 Gaussian 16, Revision A.03,
 Gaussian 16:  ES64L-G16RevA.03 25-Dec-2016

 --------------------
 #p ZINDO=(nstates=5)
 --------------------

 ------------------------------
 step_1851_chromophore_17 ZINDO
 ------------------------------
 Symbolic Z-matrix:
 Charge =  0 Multiplicity = 1

                         Standard orientation:
 ---------------------------------------------------------------------
 Center     Atomic      Atomic             Coordinates (Angstroms)
 Number     Number       Type             X           Y           Z
 ---------------------------------------------------------------------
      1         12           0        4.019521    1.415717   -0.419111
      2          6           0        4.551809   -1.952262   -0.079863
      3          6           0        1.207162    0.615719   -2.350024
      4          6           0        3.118087    4.769142   -0.465747
      5          6           0        6.465857    2.021967    1.937401
      6          7           0        2.984070   -0.475287   -1.074767
      7          6           0        3.461767   -1.734507   -0.887527
      8          6           0        2.585456   -2.833100   -1.641663
      9          6           0        1.686328   -1.867549   -2.584659
     10          6           0        1.887841   -0.480182   -1.885939
     11          6           0        1.982393   -2.017773   -4.118680
     12          6           0        1.733284   -3.834467   -0.790287
     13          6           0        1.329886   -5.227592   -1.380918
     14          6           0       -0.151764   -5.380749   -1.352899
     15          8           0       -0.890941   -5.438770   -2.266971
     16          8           0       -0.492722   -5.484795    0.003017
     17          7           0        2.470222    2.520833   -1.280368
     18          6           0        1.379704    1.998490   -1.993827
     19          6           0        0.588281    3.069545   -2.557347
     20          6           0        1.150424    4.285447   -2.085720
     21          6           0        2.337576    3.891112   -1.239076
     22          6           0       -0.491792    2.800629   -3.631239
     23          6           0        0.658038    5.642035   -2.480027
     24          8           0       -0.379642    5.723677   -3.071598
     25          6           0        1.299389    7.022066   -2.081823
     26          7           0        4.655350    3.186849    0.554700
     27          6           0        4.233605    4.457599    0.355694
     28          6           0        4.909555    5.449649    1.338969
     29          6           0        5.899393    4.500434    2.195167
     30          6           0        5.719882    3.116564    1.494522
     31          6           0        5.621144    6.580932    0.506972
     32          6           0        5.540504    4.556530    3.743009
     33          6           0        6.789528    4.677269    4.698994
     34          7           0        5.325606    0.341419    0.670015
     35          6           0        6.338223    0.704741    1.575633
     36          6           0        7.141273   -0.451221    1.991056
     37          6           0        6.418039   -1.520329    1.324715
     38          6           0        5.355769   -0.988667    0.566270
     39          6           0        8.434427   -0.436965    2.933821
     40          6           0        6.525186   -2.877827    0.972649
     41          8           0        7.448537   -3.678773    1.235533
     42          6           0        5.198766   -3.260347    0.199342
     43          6           0        5.555589   -3.934539   -1.040476
     44          8           0        6.123710   -3.409589   -2.006949
     45          8           0        5.101230   -5.207916   -0.886539
     46          6           0        5.088136   -6.102028   -2.068071
     47          6           0       -1.925690   -5.545460    0.152860
     48          6           0       -2.394016   -4.620464    1.246137
     49          6           0       -3.693339   -4.528562    1.669123
     50          6           0       -4.765223   -5.388953    1.102029
     51          6           0       -4.024185   -3.475772    2.667691
     52          6           0       -5.048320   -2.389729    2.307996
     53          6           0       -6.441595   -2.659095    2.874110
     54          6           0       -7.583354   -2.501464    1.807735
     55          6           0       -8.810309   -3.336655    2.195464
     56          6           0       -7.916495   -1.004693    1.578516
     57          6           0       -7.254272   -0.237374    0.395958
     58          6           0       -6.835711    1.185514    0.777638
     59          6           0       -7.912844    2.230804    0.357409
     60          6           0       -7.269339    3.624905    0.124340
     61          6           0       -9.212824    2.235829    1.235252
     62          6           0      -10.315574    1.452801    0.618005
     63          6           0      -11.690169    2.238236    0.681169
     64          6           0      -12.339796    2.227426   -0.692395
     65          6           0      -11.406897    2.868878   -1.808937
     66          6           0      -13.815111    2.788495   -0.651357
     67          1           0        0.461243    0.343988   -3.100838
     68          1           0        2.868283    5.832179   -0.485787
     69          1           0        7.193828    2.376178    2.671363
     70          1           0        3.222310   -3.352422   -2.357587
     71          1           0        0.609219   -1.943533   -2.432825
     72          1           0        1.016215   -1.641297   -4.453569
     73          1           0        2.198051   -3.013949   -4.505568
     74          1           0        2.811329   -1.400383   -4.465204
     75          1           0        0.936791   -3.234636   -0.347953
     76          1           0        2.335726   -4.137086    0.065850
     77          1           0        1.774990   -6.124352   -0.951418
     78          1           0        1.607370   -5.126702   -2.430170
     79          1           0       -1.481913    3.142755   -3.330854
     80          1           0       -0.721086    1.751337   -3.814174
     81          1           0       -0.155364    3.301789   -4.538890
     82          1           0        0.913947    7.208169   -1.079112
     83          1           0        0.945062    7.849782   -2.696345
     84          1           0        2.383397    7.097248   -2.000449
     85          1           0        4.062973    5.761775    1.950556
     86          1           0        6.915830    4.817066    1.962658
     87          1           0        5.673014    6.347160   -0.556907
     88          1           0        6.619859    6.683144    0.933189
     89          1           0        5.186127    7.568921    0.655535
     90          1           0        5.042262    3.621711    4.001073
     91          1           0        4.844057    5.379559    3.904704
     92          1           0        6.778637    5.722519    5.007345
     93          1           0        7.696742    4.412426    4.155628
     94          1           0        6.596331    4.078877    5.589655
     95          1           0        9.359134   -0.899208    2.589163
     96          1           0        8.117792   -0.911258    3.862999
     97          1           0        8.677562    0.605527    3.137927
     98          1           0        4.552032   -3.836661    0.859766
     99          1           0        4.263827   -6.815303   -2.051634
    100          1           0        6.089427   -6.515977   -2.184279
    101          1           0        4.822449   -5.444733   -2.896464
    102          1           0       -2.139829   -6.599629    0.332655
    103          1           0       -2.533572   -5.265835   -0.707483
    104          1           0       -1.731408   -3.868213    1.674630
    105          1           0       -5.408535   -5.829668    1.865032
    106          1           0       -4.401425   -6.310711    0.647380
    107          1           0       -5.500745   -4.913665    0.453594
    108          1           0       -3.070436   -2.961625    2.784998
    109          1           0       -4.366297   -4.009330    3.554387
    110          1           0       -5.027406   -2.319947    1.220474
    111          1           0       -4.653103   -1.409437    2.573651
    112          1           0       -6.542890   -1.960377    3.704523
    113          1           0       -6.470480   -3.661116    3.303330
    114          1           0       -7.303537   -2.907942    0.835897
    115          1           0       -9.241455   -3.744625    1.282095
    116          1           0       -9.506050   -2.787175    2.830291
    117          1           0       -8.578543   -4.197615    2.823090
    118          1           0       -7.709640   -0.515631    2.530759
    119          1           0       -8.984676   -0.983552    1.364732
    120          1           0       -8.096801   -0.241008   -0.295661
    121          1           0       -6.422227   -0.643334   -0.180287
    122          1           0       -5.956030    1.394617    0.168645
    123          1           0       -6.644791    1.166807    1.850239
    124          1           0       -8.122582    1.807410   -0.624856
    125          1           0       -7.221160    3.830799   -0.945605
    126          1           0       -6.225092    3.655157    0.434284
    127          1           0       -7.729241    4.441823    0.679196
    128          1           0       -9.544173    3.241110    1.495654
    129          1           0       -9.056548    1.719769    2.182432
    130          1           0      -10.530435    0.560788    1.205618
    131          1           0      -10.128385    1.082894   -0.390215
    132          1           0      -11.573197    3.302481    0.889584
    133          1           0      -12.228724    1.779295    1.509125
    134          1           0      -12.360387    1.163648   -0.932925
    135          1           0      -11.959558    3.589021   -2.411941
    136          1           0      -11.055068    2.167431   -2.564261
    137          1           0      -10.578602    3.447684   -1.399750
    138          1           0      -14.012085    3.419262   -1.518695
    139          1           0      -14.065338    3.350981    0.249115
    140          1           0      -14.461467    1.922289   -0.793635
 ---------------------------------------------------------------------

 SCF Done:  E(RZINDO/S) =  -474.069548706     A.U. after   19 cycles

 Excitation energies and oscillator strengths:

 Excited State   1:      Singlet-A      1.3394 eV  925.66 nm  f=0.5687  <S**2>=0.000
     175 ->178         0.16543
     176 ->177         0.67002
 This state for optimization and/or second-order correction.
 Total Energy, E(CIS/TDA) =  -474.020326146
 Copying the excited state density for this state as the 1-particle RhoCI density.

 Excited State   2:      Singlet-A      1.9470 eV  636.79 nm  f=0.0618  <S**2>=0.000
     175 ->177         0.55352
     176 ->178        -0.40446

 Excited State   3:      Singlet-A      2.9359 eV  422.30 nm  f=0.0032  <S**2>=0.000
     168 ->177         0.33598
     168 ->178        -0.15663
     168 ->179        -0.34922
     168 ->180        -0.30253
     168 ->186        -0.23048
     170 ->177        -0.12288

 Excited State   4:      Singlet-A      2.9952 eV  413.95 nm  f=0.0303  <S**2>=0.000
     171 ->177         0.33052
     171 ->179         0.35960
     171 ->180        -0.33395
     171 ->186         0.14451
     171 ->188         0.21342

 Excited State   5:      Singlet-A      3.0548 eV  405.87 nm  f=1.2469  <S**2>=0.000
     175 ->177         0.38386
     176 ->178         0.54585

 The electronic state is 1-A.
 Alpha  occ. eigenvalues --   -1.83859  -1.78947  -1.77688  -1.75472  -1.71868
 Alpha  occ. eigenvalues --   -1.68415  -1.67087  -1.61431  -1.61325  -1.57732
 Alpha  occ. eigenvalues --   -1.55238  -1.51414  -1.48454  -1.47349  -1.46036
 Alpha  occ. eigenvalues --   -1.44642  -1.43547  -1.38663  -1.38191  -1.36496
 Alpha  occ. eigenvalues --   -1.35429  -1.34254  -1.31224  -1.29874  -1.29740
 Alpha  occ. eigenvalues --   -1.28101  -1.26457  -1.22166  -1.19981  -1.18315
 Alpha  occ. eigenvalues --   -1.18068  -1.17446  -1.15499  -1.14172  -1.12705
 Alpha  occ. eigenvalues --   -1.11981  -1.11370  -1.10919  -1.05554  -1.03565
 Alpha  occ. eigenvalues --   -1.02095  -1.01520  -0.99402  -0.97958  -0.96219
 Alpha  occ. eigenvalues --   -0.95509  -0.94383  -0.94054  -0.93121  -0.92547
 Alpha  occ. eigenvalues --   -0.92107  -0.90559  -0.90253  -0.87442  -0.86605
 Alpha  occ. eigenvalues --   -0.85535  -0.84838  -0.83693  -0.81555  -0.80100
 Alpha  occ. eigenvalues --   -0.79199  -0.78622  -0.77791  -0.76615  -0.76133
 Alpha  occ. eigenvalues --   -0.75616  -0.75455  -0.74923  -0.74044  -0.73383
 Alpha  occ. eigenvalues --   -0.73149  -0.72836  -0.72015  -0.70612  -0.70069
 Alpha  occ. eigenvalues --   -0.69382  -0.69096  -0.68783  -0.68203  -0.67763
 Alpha  occ. eigenvalues --   -0.67494  -0.67262  -0.66627  -0.66350  -0.66154
 Alpha  occ. eigenvalues --   -0.65070  -0.64830  -0.64386  -0.64086  -0.63385
 Alpha  occ. eigenvalues --   -0.63301  -0.62529  -0.62486  -0.62114  -0.61989
 Alpha  occ. eigenvalues --   -0.61436  -0.61303  -0.60736  -0.60215  -0.60013
 Alpha  occ. eigenvalues --   -0.59410  -0.59134  -0.58760  -0.58454  -0.58122
 Alpha  occ. eigenvalues --   -0.57703  -0.57300  -0.57104  -0.56999  -0.56081
 Alpha  occ. eigenvalues --   -0.56037  -0.55213  -0.55129  -0.54862  -0.54397
 Alpha  occ. eigenvalues --   -0.54312  -0.53788  -0.53566  -0.53268  -0.53108
 Alpha  occ. eigenvalues --   -0.52760  -0.52687  -0.52114  -0.51912  -0.51513
 Alpha  occ. eigenvalues --   -0.51344  -0.51062  -0.50767  -0.50701  -0.50496
 Alpha  occ. eigenvalues --   -0.50388  -0.50355  -0.49877  -0.49720  -0.49442
 Alpha  occ. eigenvalues --   -0.49335  -0.49137  -0.48843  -0.48571  -0.48340
 Alpha  occ. eigenvalues --   -0.48054  -0.47402  -0.47303  -0.46953  -0.46677
 Alpha  occ. eigenvalues --   -0.46476  -0.46414  -0.46124  -0.45450  -0.45007
 Alpha  occ. eigenvalues --   -0.44914  -0.44632  -0.44579  -0.44146  -0.44070
 Alpha  occ. eigenvalues --   -0.44020  -0.43258  -0.42644  -0.42504  -0.42290
 Alpha  occ. eigenvalues --   -0.41931  -0.41205  -0.41181  -0.39292  -0.39028
 Alpha  occ. eigenvalues --   -0.38159  -0.37529  -0.36059  -0.35321  -0.34189
 Alpha  occ. eigenvalues --   -0.33702  -0.32980  -0.31816  -0.31486  -0.27118
 Alpha  occ. eigenvalues --   -0.22423
 Alpha virt. eigenvalues --   -0.08794  -0.02399  -0.00486   0.01234   0.02244
 Alpha virt. eigenvalues --    0.02272   0.02534   0.02875   0.04530   0.04582
 Alpha virt. eigenvalues --    0.05931   0.06464   0.07079   0.07285   0.07871

 Mulliken charges:
               1
     1  Mg   0.428669
     2  C   -0.022030
     3  C   -0.076410
     4  C   -0.089646
     5  C   -0.037433
     6  N   -0.282190
     7  C    0.103439
     8  C   -0.005987
     9  C   -0.011397
    10  C    0.155643
    11  C   -0.048559
    12  C   -0.017631
    13  C    0.005731
    14  C    0.474927
    15  O   -0.497831
    16  O   -0.284295
    17  N   -0.330839
    18  C    0.134899
    19  C    0.053197
    20  C   -0.038595
    21  C    0.147377
    22  C   -0.035118
    23  C    0.328228
    24  O   -0.506775
    25  C   -0.031894
    26  N   -0.272720
    27  C    0.166384
    28  C   -0.006461
    29  C   -0.008077
    30  C    0.061303
    31  C   -0.050133
    32  C   -0.033850
    33  C   -0.061610
    34  N   -0.314183
    35  C    0.071429
    36  C   -0.002219
    37  C   -0.060076
    38  C    0.121792
    39  C   -0.033466
    40  C    0.325547
    41  O   -0.554219
    42  C    0.057025
    43  C    0.505268
    44  O   -0.538399
    45  O   -0.275653
    46  C    0.067859
    47  C    0.104849
    48  C   -0.100030
    49  C   -0.009046
    50  C   -0.043976
    51  C   -0.020735
    52  C   -0.032314
    53  C   -0.029222
    54  C   -0.012154
    55  C   -0.059358
    56  C   -0.035874
    57  C   -0.045446
    58  C   -0.034883
    59  C   -0.017327
    60  C   -0.061045
    61  C   -0.025368
    62  C   -0.040426
    63  C   -0.038455
    64  C   -0.010660
    65  C   -0.059536
    66  C   -0.060762
    67  H    0.033877
    68  H    0.028064
    69  H    0.026279
    70  H    0.037725
    71  H    0.028522
    72  H    0.020865
    73  H    0.032576
    74  H    0.028973
    75  H    0.034451
    76  H    0.014687
    77  H    0.056561
    78  H    0.027921
    79  H    0.038617
    80  H    0.023487
    81  H    0.043576
    82  H    0.034862
    83  H    0.040155
    84  H    0.028957
    85  H    0.040710
    86  H    0.032742
    87  H    0.031927
    88  H    0.020089
    89  H    0.020339
    90  H    0.023517
    91  H    0.022456
    92  H    0.017805
    93  H    0.031687
    94  H    0.024690
    95  H    0.045129
    96  H    0.031448
    97  H    0.016690
    98  H    0.053763
    99  H    0.037561
   100  H    0.057021
   101  H    0.035784
   102  H    0.040836
   103  H    0.057901
   104  H    0.036686
   105  H    0.013658
   106  H    0.018976
   107  H    0.034847
   108  H    0.017727
   109  H    0.028856
   110  H    0.015347
   111  H    0.016623
   112  H    0.020892
   113  H    0.018848
   114  H    0.019942
   115  H    0.019408
   116  H    0.019761
   117  H    0.010889
   118  H    0.021299
   119  H    0.018067
   120  H    0.013477
   121  H    0.024809
   122  H    0.015750
   123  H    0.025222
   124  H    0.020980
   125  H    0.018872
   126  H    0.012618
   127  H    0.020522
   128  H    0.024230
   129  H    0.015689
   130  H    0.010681
   131  H    0.026767
   132  H    0.016993
   133  H    0.020268
   134  H    0.013929
   135  H    0.010665
   136  H    0.022106
   137  H    0.022541
   138  H    0.016560
   139  H    0.026879
   140  H    0.017117
 Sum of Mulliken charges =  -0.00000

 Dipole moment (field-independent basis, Debye):
    X=             -4.8251    Y=              5.3769    Z=              1.4864  Tot=              7.3758
 N-N= 4.442245786439D+03 E-N= 0.000000000000D+00  KE=-9.558349353455D+03
 Leave Link  601 at Fri Apr 29 03:52:13 2022, MaxMem=  6710886400 cpu:               1.1 elap:               0.1
 (Enter /sw/apps/gaussian-16.0/g16/l9999.exe)
 1\1\GINC-BP1-COMPUTE070\SP\RZINDO CIS\STO-3G\C55H74Mg1N4O6\OF15641\29-
 Apr-2022\0\\#p ZINDO=(nstates=5)\\step_1851_chromophore_17 ZINDO\\0,1\
 Mg,0,29.67,59.687,40.501\C,0,26.47,58.597,39.941\C,0,30.774,56.738,38.
 964\C,0,32.932,60.874,40.604\C,0,28.435,62.759,41.472\N,0,28.7,57.908,
 39.515\C,0,27.365,57.65,39.505\C,0,27.03,56.215,38.895\C,0,28.519,55.5
 73,38.869\C,0,29.409,56.853,39.021\C,0,28.712,54.368,39.856\C,0,26.297
 ,56.134,37.513\C,0,25.458,54.866,37.138\C,0,25.962,54.283,35.863\O,0,2

 Normal termination of Gaussian 16 at Fri Apr 29 03:52:13 2022.
