 Gaussian 16, Revision A.03,
 Gaussian 16:  ES64L-G16RevA.03 25-Dec-2016

 ------------------------------
 #p blyp/Def2SVP td=(nstates=5)
 ------------------------------

 -------------------------------------------------
 step_151_chromophore_1 TDDFT with blyp functional
 -------------------------------------------------
 Symbolic Z-matrix:
 Charge =  0 Multiplicity = 1

                         Standard orientation:
 ---------------------------------------------------------------------
 Center     Atomic      Atomic             Coordinates (Angstroms)
 Number     Number       Type             X           Y           Z
 ---------------------------------------------------------------------
      1         12           0        6.003391    0.463485   -0.218700
      2          6           0        4.001179   -2.324821   -0.386203
      3          6           0        3.299900    2.543247   -0.960746
      4          6           0        8.015914    3.183081    0.166730
      5          6           0        8.803936   -1.505480    0.312505
      6          7           0        3.902558    0.119015   -0.759325
      7          6           0        3.283848   -1.156583   -0.687948
      8          6           0        1.922857   -0.943184   -1.355433
      9          6           0        1.648881    0.603153   -1.373272
     10          6           0        3.009872    1.128869   -1.005612
     11          6           0        1.167250    1.239790   -2.726850
     12          6           0        0.746594   -1.759286   -0.713756
     13          6           0       -0.716076   -1.134177   -0.577743
     14          6           0       -1.937431   -2.043768   -0.575848
     15          8           0       -2.143491   -2.912244   -1.394297
     16          8           0       -2.723254   -1.685865    0.463824
     17          7           0        5.727348    2.489635   -0.334128
     18          6           0        4.550338    3.126094   -0.679126
     19          6           0        4.748929    4.555539   -0.595192
     20          6           0        6.066455    4.808282   -0.042478
     21          6           0        6.670149    3.478213   -0.059715
     22          6           0        3.741203    5.538482   -1.158753
     23          6           0        6.676534    6.250554    0.295771
     24          8           0        7.839137    6.359632    0.774564
     25          6           0        5.805163    7.445649    0.223430
     26          7           0        8.169155    0.815327    0.008652
     27          6           0        8.731430    2.026494    0.265819
     28          6           0       10.311738    1.864651    0.465373
     29          6           0       10.365310    0.350927    0.737450
     30          6           0        9.034836   -0.142022    0.223397
     31          6           0       11.135245    2.471850   -0.755393
     32          6           0       10.597938    0.002428    2.235632
     33          6           0       11.110955   -1.405140    2.466871
     34          7           0        6.446675   -1.470717   -0.163488
     35          6           0        7.612824   -2.156149    0.132462
     36          6           0        7.335582   -3.509876    0.168922
     37          6           0        5.994151   -3.683198    0.027424
     38          6           0        5.429403   -2.392976   -0.157256
     39          6           0        8.413380   -4.533785    0.571929
     40          6           0        4.882646   -4.623880    0.004150
     41          8           0        4.838431   -5.818291    0.265306
     42          6           0        3.585923   -3.762812   -0.345569
     43          6           0        2.571165   -4.099582    0.707697
     44          8           0        2.672222   -3.745883    1.840731
     45          8           0        1.588416   -4.873250    0.185671
     46          6           0        0.328462   -5.025588    0.925772
     47          6           0       -4.055697   -2.185770    0.490125
     48          6           0       -4.916777   -1.548170   -0.577034
     49          6           0       -6.109049   -2.033938   -0.943001
     50          6           0       -6.921998   -3.119931   -0.203577
     51          6           0       -6.891768   -1.286819   -2.002098
     52          6           0       -8.423524   -1.021612   -1.694929
     53          6           0       -8.790839    0.440571   -1.949597
     54          6           0       -8.894165    1.195720   -0.569791
     55          6           0       -7.516381    1.346405    0.096457
     56          6           0      -10.005063    0.652753    0.357727
     57          6           0      -10.811915    1.805373    1.025428
     58          6           0      -11.179846    1.712782    2.520416
     59          6           0      -12.707032    1.969563    2.625986
     60          6           0      -12.978458    2.739930    3.963131
     61          6           0      -13.492330    0.635756    2.491360
     62          6           0      -14.617217    0.705769    1.520205
     63          6           0      -14.224008    0.137993    0.179242
     64          6           0      -15.052781    0.716592   -1.034273
     65          6           0      -15.717848   -0.320103   -1.899623
     66          6           0      -14.255268    1.821392   -1.784877
     67          1           0        2.413113    3.156233   -1.136025
     68          1           0        8.644980    4.062492    0.319665
     69          1           0        9.740388   -2.055633    0.415436
     70          1           0        2.108158   -1.288101   -2.373279
     71          1           0        0.920448    0.933406   -0.633660
     72          1           0        1.786580    2.047678   -3.118948
     73          1           0        0.168307    1.667419   -2.645509
     74          1           0        1.146234    0.417039   -3.440872
     75          1           0        0.947286   -1.892937    0.349363
     76          1           0        0.541830   -2.716147   -1.193791
     77          1           0       -0.864267   -0.322649   -1.290385
     78          1           0       -0.694465   -0.649162    0.398238
     79          1           0        3.047402    4.999135   -1.802982
     80          1           0        4.109782    6.408759   -1.701375
     81          1           0        3.137908    5.995766   -0.374291
     82          1           0        4.859236    7.075532    0.619081
     83          1           0        5.592368    7.716844   -0.810563
     84          1           0        6.021813    8.362234    0.772875
     85          1           0       10.469585    2.449875    1.370581
     86          1           0       11.120395   -0.184439    0.160974
     87          1           0       11.667513    3.336832   -0.357412
     88          1           0       10.469529    2.932316   -1.485107
     89          1           0       11.871731    1.750978   -1.110577
     90          1           0        9.685183    0.103274    2.821205
     91          1           0       11.315458    0.751243    2.571061
     92          1           0       10.336617   -2.062439    2.862003
     93          1           0       11.927800   -1.359819    3.187159
     94          1           0       11.461047   -1.891954    1.556579
     95          1           0        9.125707   -4.492360   -0.252484
     96          1           0        7.822963   -5.417960    0.812602
     97          1           0        8.989294   -4.209778    1.438396
     98          1           0        3.149038   -4.071369   -1.294724
     99          1           0        0.115202   -4.302855    1.713248
    100          1           0        0.340062   -6.070018    1.237833
    101          1           0       -0.459189   -4.883904    0.185845
    102          1           0       -4.529388   -2.057764    1.463893
    103          1           0       -4.194684   -3.257871    0.349539
    104          1           0       -4.489584   -0.674778   -1.069321
    105          1           0       -6.197810   -3.806234    0.233583
    106          1           0       -7.468363   -3.659842   -0.977000
    107          1           0       -7.415263   -2.700236    0.673239
    108          1           0       -6.881004   -1.981651   -2.841402
    109          1           0       -6.352427   -0.413651   -2.368305
    110          1           0       -8.771012   -1.362668   -0.719720
    111          1           0       -8.935800   -1.671881   -2.404469
    112          1           0       -9.608339    0.537605   -2.664838
    113          1           0       -7.924033    0.947162   -2.373327
    114          1           0       -9.112591    2.193950   -0.947972
    115          1           0       -6.980472    0.468079    0.455975
    116          1           0       -7.564907    2.046153    0.930875
    117          1           0       -6.838954    1.688745   -0.685908
    118          1           0       -9.608822    0.105682    1.212914
    119          1           0      -10.699722    0.071408   -0.248457
    120          1           0      -11.722165    1.759903    0.427405
    121          1           0      -10.310178    2.734804    0.755333
    122          1           0      -10.585066    2.434667    3.078832
    123          1           0      -10.965004    0.751415    2.988359
    124          1           0      -13.039512    2.649517    1.841541
    125          1           0      -12.109826    2.847537    4.611512
    126          1           0      -13.875282    2.451905    4.511539
    127          1           0      -13.089289    3.767819    3.618485
    128          1           0      -13.882103    0.547818    3.505313
    129          1           0      -12.895708   -0.272991    2.407318
    130          1           0      -14.979049    1.724158    1.377678
    131          1           0      -15.415400    0.157134    2.019242
    132          1           0      -14.420428   -0.932713    0.220734
    133          1           0      -13.160780    0.164948   -0.057531
    134          1           0      -15.830948    1.375042   -0.649002
    135          1           0      -15.549603   -0.023137   -2.935058
    136          1           0      -16.780214   -0.428283   -1.679212
    137          1           0      -15.189542   -1.272464   -1.854669
    138          1           0      -13.313738    2.171257   -1.362783
    139          1           0      -14.927991    2.675619   -1.864033
    140          1           0      -14.059701    1.445364   -2.788735
 ---------------------------------------------------------------------

 SCF Done:  E(RB-LYP) =  -3007.35493522     A.U. after   21 cycles

 Excitation energies and oscillator strengths:

 Excited State   1:      Singlet-A      1.7920 eV  691.87 nm  f=0.2770  <S**2>=0.000
     245 -> 248       -0.18340
     246 -> 247        0.68858
     246 <- 247       -0.15166
 This state for optimization and/or second-order correction.
 Total Energy, E(TD-HF/TD-DFT) =  -3007.28908026
 Copying the excited state density for this state as the 1-particle RhoCI density.

 Excited State   2:      Singlet-A      2.0364 eV  608.84 nm  f=0.0505  <S**2>=0.000
     243 -> 247        0.36230
     244 -> 247        0.13967
     245 -> 247        0.53681
     246 -> 248        0.21284

 Excited State   3:      Singlet-A      2.0411 eV  607.44 nm  f=0.0030  <S**2>=0.000
     244 -> 247        0.69177
     245 -> 247       -0.10822

 Excited State   4:      Singlet-A      2.0777 eV  596.75 nm  f=0.0197  <S**2>=0.000
     243 -> 247        0.60095
     245 -> 247       -0.32503
     246 -> 248       -0.16138

 Excited State   5:      Singlet-A      2.3286 eV  532.45 nm  f=0.0001  <S**2>=0.000
     242 -> 247        0.70707

 The electronic state is 1-A.
 Alpha  occ. eigenvalues --  -46.25747 -18.83494 -18.81254 -18.77571 -18.75999
 Alpha  occ. eigenvalues --  -18.75755 -18.75671 -14.03256 -14.02265 -14.01148
 Alpha  occ. eigenvalues --  -14.00346 -10.04855 -10.02780 -10.01188  -9.99660
 Alpha  occ. eigenvalues --   -9.98343  -9.97339  -9.97120  -9.96862  -9.96092
 Alpha  occ. eigenvalues --   -9.95730  -9.95621  -9.95086  -9.95039  -9.94781
 Alpha  occ. eigenvalues --   -9.94535  -9.94191  -9.94121  -9.94028  -9.93881
 Alpha  occ. eigenvalues --   -9.93643  -9.93581  -9.93296  -9.93289  -9.93224
 Alpha  occ. eigenvalues --   -9.93153  -9.93067  -9.93031  -9.93005  -9.92774
 Alpha  occ. eigenvalues --   -9.92716  -9.92557  -9.92451  -9.92267  -9.92143
 Alpha  occ. eigenvalues --   -9.91955  -9.91904  -9.91781  -9.91701  -9.91689
 Alpha  occ. eigenvalues --   -9.91676  -9.91654  -9.91515  -9.91450  -9.91261
 Alpha  occ. eigenvalues --   -9.91144  -9.91087  -9.91068  -9.90929  -9.90918
 Alpha  occ. eigenvalues --   -9.90882  -9.90854  -9.90788  -9.90729  -9.90624
 Alpha  occ. eigenvalues --   -9.90537  -2.90562  -1.70996  -1.70434  -1.70283
 Alpha  occ. eigenvalues --   -0.99894  -0.97611  -0.91713  -0.91130  -0.90127
 Alpha  occ. eigenvalues --   -0.89775  -0.86939  -0.85715  -0.85019  -0.84234
 Alpha  occ. eigenvalues --   -0.75134  -0.73885  -0.73411  -0.72652  -0.72463
 Alpha  occ. eigenvalues --   -0.72049  -0.71449  -0.71046  -0.70787  -0.70195
 Alpha  occ. eigenvalues --   -0.69779  -0.69374  -0.68207  -0.67576  -0.67295
 Alpha  occ. eigenvalues --   -0.66592  -0.66382  -0.65680  -0.65136  -0.64841
 Alpha  occ. eigenvalues --   -0.64028  -0.62650  -0.62375  -0.61781  -0.61201
 Alpha  occ. eigenvalues --   -0.60611  -0.60450  -0.59855  -0.59648  -0.59454
 Alpha  occ. eigenvalues --   -0.58912  -0.57862  -0.57091  -0.55840  -0.54533
 Alpha  occ. eigenvalues --   -0.54115  -0.53613  -0.53001  -0.52260  -0.51580
 Alpha  occ. eigenvalues --   -0.51389  -0.51310  -0.50728  -0.50199  -0.49893
 Alpha  occ. eigenvalues --   -0.49816  -0.49226  -0.47971  -0.47949  -0.47019
 Alpha  occ. eigenvalues --   -0.46892  -0.46323  -0.45385  -0.45063  -0.44482
 Alpha  occ. eigenvalues --   -0.44186  -0.43541  -0.43038  -0.42856  -0.42229
 Alpha  occ. eigenvalues --   -0.42091  -0.41883  -0.41756  -0.41288  -0.41189
 Alpha  occ. eigenvalues --   -0.40762  -0.40617  -0.40415  -0.40253  -0.39998
 Alpha  occ. eigenvalues --   -0.39901  -0.39776  -0.39587  -0.39491  -0.39270
 Alpha  occ. eigenvalues --   -0.39131  -0.38903  -0.38792  -0.38727  -0.38515
 Alpha  occ. eigenvalues --   -0.38270  -0.38077  -0.37833  -0.37587  -0.37485
 Alpha  occ. eigenvalues --   -0.37325  -0.37075  -0.37020  -0.36839  -0.36414
 Alpha  occ. eigenvalues --   -0.36251  -0.36089  -0.35966  -0.35708  -0.35588
 Alpha  occ. eigenvalues --   -0.35559  -0.35387  -0.35339  -0.35007  -0.34833
 Alpha  occ. eigenvalues --   -0.34780  -0.34712  -0.34370  -0.34179  -0.34070
 Alpha  occ. eigenvalues --   -0.33698  -0.33619  -0.33453  -0.33249  -0.33025
 Alpha  occ. eigenvalues --   -0.32888  -0.32825  -0.32682  -0.32554  -0.32342
 Alpha  occ. eigenvalues --   -0.32140  -0.32012  -0.31822  -0.31733  -0.31461
 Alpha  occ. eigenvalues --   -0.31292  -0.31008  -0.30783  -0.30607  -0.30475
 Alpha  occ. eigenvalues --   -0.30372  -0.30219  -0.30161  -0.30013  -0.29827
 Alpha  occ. eigenvalues --   -0.29687  -0.29517  -0.29306  -0.29235  -0.29103
 Alpha  occ. eigenvalues --   -0.29014  -0.28710  -0.28345  -0.28147  -0.27802
 Alpha  occ. eigenvalues --   -0.27785  -0.27509  -0.26927  -0.26527  -0.26381
 Alpha  occ. eigenvalues --   -0.26281  -0.26258  -0.25776  -0.25381  -0.25230
 Alpha  occ. eigenvalues --   -0.25071  -0.24838  -0.24263  -0.23674  -0.23134
 Alpha  occ. eigenvalues --   -0.23084  -0.22673  -0.22149  -0.21110  -0.20834
 Alpha  occ. eigenvalues --   -0.20335  -0.19977  -0.18927  -0.18821  -0.17413
 Alpha  occ. eigenvalues --   -0.15628
 Alpha virt. eigenvalues --   -0.11420  -0.07060  -0.06379  -0.04473  -0.03290
 Alpha virt. eigenvalues --   -0.01713  -0.01440  -0.01025  -0.00757  -0.00163
 Alpha virt. eigenvalues --    0.01272   0.01401   0.01659   0.02423   0.02491

 Mulliken charges:
               1
     1  Mg   0.694833
     2  C    0.069754
     3  C   -0.090286
     4  C   -0.032468
     5  C   -0.111531
     6  N   -0.256246
     7  C   -0.048233
     8  C    0.062545
     9  C   -0.014667
    10  C    0.009338
    11  C    0.113682
    12  C    0.067286
    13  C    0.076319
    14  C    0.080567
    15  O   -0.174403
    16  O   -0.226872
    17  N   -0.306965
    18  C    0.205467
    19  C   -0.144950
    20  C   -0.000714
    21  C    0.110613
    22  C    0.155078
    23  C   -0.008888
    24  O   -0.194004
    25  C    0.134495
    26  N   -0.157077
    27  C   -0.052473
    28  C    0.043578
    29  C   -0.002883
    30  C    0.001390
    31  C    0.144664
    32  C    0.099881
    33  C    0.075355
    34  N   -0.327196
    35  C    0.207463
    36  C   -0.234982
    37  C    0.131597
    38  C    0.044070
    39  C    0.188793
    40  C   -0.035717
    41  O   -0.126719
    42  C    0.050551
    43  C    0.069178
    44  O   -0.152097
    45  O   -0.267446
    46  C    0.201999
    47  C    0.320418
    48  C   -0.139751
    49  C   -0.164522
    50  C    0.172790
    51  C    0.132490
    52  C    0.066963
    53  C    0.083842
    54  C   -0.077314
    55  C    0.092731
    56  C    0.116118
    57  C    0.035986
    58  C    0.137067
    59  C   -0.116788
    60  C    0.112759
    61  C    0.126248
    62  C    0.097336
    63  C    0.113114
    64  C   -0.116337
    65  C    0.139036
    66  C    0.086640
    67  H   -0.058495
    68  H   -0.057348
    69  H   -0.076332
    70  H   -0.010171
    71  H   -0.012445
    72  H    0.002295
    73  H   -0.009974
    74  H   -0.011421
    75  H    0.000130
    76  H    0.008094
    77  H    0.001221
    78  H   -0.010275
    79  H   -0.009862
    80  H   -0.006406
    81  H   -0.007171
    82  H    0.002407
    83  H    0.012436
    84  H    0.004128
    85  H   -0.022486
    86  H   -0.042834
    87  H   -0.009827
    88  H    0.002726
    89  H    0.000920
    90  H   -0.017179
    91  H   -0.019213
    92  H    0.001722
    93  H   -0.012288
    94  H   -0.008213
    95  H   -0.003060
    96  H    0.019961
    97  H   -0.007382
    98  H   -0.012055
    99  H    0.022856
   100  H    0.023751
   101  H    0.019067
   102  H   -0.004884
   103  H   -0.002791
   104  H   -0.034823
   105  H   -0.034904
   106  H    0.001727
   107  H    0.022382
   108  H   -0.023966
   109  H   -0.037026
   110  H   -0.012209
   111  H   -0.045262
   112  H   -0.026661
   113  H   -0.039936
   114  H   -0.039255
   115  H   -0.013421
   116  H   -0.014467
   117  H   -0.028678
   118  H   -0.033425
   119  H   -0.019123
   120  H   -0.018572
   121  H   -0.028173
   122  H   -0.041775
   123  H   -0.032913
   124  H   -0.026791
   125  H   -0.019654
   126  H   -0.012644
   127  H   -0.029400
   128  H   -0.062284
   129  H   -0.034840
   130  H   -0.029403
   131  H   -0.034468
   132  H   -0.049364
   133  H   -0.031967
   134  H   -0.038635
   135  H   -0.034826
   136  H   -0.001816
   137  H   -0.021566
   138  H   -0.010398
   139  H   -0.015418
   140  H   -0.026154
 Sum of Mulliken charges =  -0.00000

 Dipole moment (field-independent basis, Debye):
    X=             -4.2927    Y=              4.2415    Z=             -1.3037  Tot=              6.1739
 Quadrupole moment (field-independent basis, Debye-Ang):
   XX=           -367.1440   YY=           -433.3758   ZZ=           -408.8106
   XY=              4.9334   XZ=             -7.6356   YZ=             -8.8452

 Normal termination of Gaussian 16 at Thu Apr 28 09:27:32 2022.
