 Gaussian 16, Revision A.03,
 Gaussian 16:  ES64L-G16RevA.03 25-Dec-2016

 -----------------------------------
 #p cam-b3lyp/Def2SVP td=(nstates=5)
 -----------------------------------

 ------------------------------------------------------
 step_151_chromophore_1 TDDFT with cam-b3lyp functional
 ------------------------------------------------------
 Symbolic Z-matrix:
 Charge =  0 Multiplicity = 1

                         Standard orientation:
 ---------------------------------------------------------------------
 Center     Atomic      Atomic             Coordinates (Angstroms)
 Number     Number       Type             X           Y           Z
 ---------------------------------------------------------------------
      1         12           0        6.003391    0.463485   -0.218700
      2          6           0        4.001179   -2.324821   -0.386203
      3          6           0        3.299900    2.543247   -0.960746
      4          6           0        8.015914    3.183081    0.166730
      5          6           0        8.803936   -1.505480    0.312505
      6          7           0        3.902558    0.119015   -0.759325
      7          6           0        3.283848   -1.156583   -0.687948
      8          6           0        1.922857   -0.943184   -1.355433
      9          6           0        1.648881    0.603153   -1.373272
     10          6           0        3.009872    1.128869   -1.005612
     11          6           0        1.167250    1.239790   -2.726850
     12          6           0        0.746594   -1.759286   -0.713756
     13          6           0       -0.716076   -1.134177   -0.577743
     14          6           0       -1.937431   -2.043768   -0.575848
     15          8           0       -2.143491   -2.912244   -1.394297
     16          8           0       -2.723254   -1.685865    0.463824
     17          7           0        5.727348    2.489635   -0.334128
     18          6           0        4.550338    3.126094   -0.679126
     19          6           0        4.748929    4.555539   -0.595192
     20          6           0        6.066455    4.808282   -0.042478
     21          6           0        6.670149    3.478213   -0.059715
     22          6           0        3.741203    5.538482   -1.158753
     23          6           0        6.676534    6.250554    0.295771
     24          8           0        7.839137    6.359632    0.774564
     25          6           0        5.805163    7.445649    0.223430
     26          7           0        8.169155    0.815327    0.008652
     27          6           0        8.731430    2.026494    0.265819
     28          6           0       10.311738    1.864651    0.465373
     29          6           0       10.365310    0.350927    0.737450
     30          6           0        9.034836   -0.142022    0.223397
     31          6           0       11.135245    2.471850   -0.755393
     32          6           0       10.597938    0.002428    2.235632
     33          6           0       11.110955   -1.405140    2.466871
     34          7           0        6.446675   -1.470717   -0.163488
     35          6           0        7.612824   -2.156149    0.132462
     36          6           0        7.335582   -3.509876    0.168922
     37          6           0        5.994151   -3.683198    0.027424
     38          6           0        5.429403   -2.392976   -0.157256
     39          6           0        8.413380   -4.533785    0.571929
     40          6           0        4.882646   -4.623880    0.004150
     41          8           0        4.838431   -5.818291    0.265306
     42          6           0        3.585923   -3.762812   -0.345569
     43          6           0        2.571165   -4.099582    0.707697
     44          8           0        2.672222   -3.745883    1.840731
     45          8           0        1.588416   -4.873250    0.185671
     46          6           0        0.328462   -5.025588    0.925772
     47          6           0       -4.055697   -2.185770    0.490125
     48          6           0       -4.916777   -1.548170   -0.577034
     49          6           0       -6.109049   -2.033938   -0.943001
     50          6           0       -6.921998   -3.119931   -0.203577
     51          6           0       -6.891768   -1.286819   -2.002098
     52          6           0       -8.423524   -1.021612   -1.694929
     53          6           0       -8.790839    0.440571   -1.949597
     54          6           0       -8.894165    1.195720   -0.569791
     55          6           0       -7.516381    1.346405    0.096457
     56          6           0      -10.005063    0.652753    0.357727
     57          6           0      -10.811915    1.805373    1.025428
     58          6           0      -11.179846    1.712782    2.520416
     59          6           0      -12.707032    1.969563    2.625986
     60          6           0      -12.978458    2.739930    3.963131
     61          6           0      -13.492330    0.635756    2.491360
     62          6           0      -14.617217    0.705769    1.520205
     63          6           0      -14.224008    0.137993    0.179242
     64          6           0      -15.052781    0.716592   -1.034273
     65          6           0      -15.717848   -0.320103   -1.899623
     66          6           0      -14.255268    1.821392   -1.784877
     67          1           0        2.413113    3.156233   -1.136025
     68          1           0        8.644980    4.062492    0.319665
     69          1           0        9.740388   -2.055633    0.415436
     70          1           0        2.108158   -1.288101   -2.373279
     71          1           0        0.920448    0.933406   -0.633660
     72          1           0        1.786580    2.047678   -3.118948
     73          1           0        0.168307    1.667419   -2.645509
     74          1           0        1.146234    0.417039   -3.440872
     75          1           0        0.947286   -1.892937    0.349363
     76          1           0        0.541830   -2.716147   -1.193791
     77          1           0       -0.864267   -0.322649   -1.290385
     78          1           0       -0.694465   -0.649162    0.398238
     79          1           0        3.047402    4.999135   -1.802982
     80          1           0        4.109782    6.408759   -1.701375
     81          1           0        3.137908    5.995766   -0.374291
     82          1           0        4.859236    7.075532    0.619081
     83          1           0        5.592368    7.716844   -0.810563
     84          1           0        6.021813    8.362234    0.772875
     85          1           0       10.469585    2.449875    1.370581
     86          1           0       11.120395   -0.184439    0.160974
     87          1           0       11.667513    3.336832   -0.357412
     88          1           0       10.469529    2.932316   -1.485107
     89          1           0       11.871731    1.750978   -1.110577
     90          1           0        9.685183    0.103274    2.821205
     91          1           0       11.315458    0.751243    2.571061
     92          1           0       10.336617   -2.062439    2.862003
     93          1           0       11.927800   -1.359819    3.187159
     94          1           0       11.461047   -1.891954    1.556579
     95          1           0        9.125707   -4.492360   -0.252484
     96          1           0        7.822963   -5.417960    0.812602
     97          1           0        8.989294   -4.209778    1.438396
     98          1           0        3.149038   -4.071369   -1.294724
     99          1           0        0.115202   -4.302855    1.713248
    100          1           0        0.340062   -6.070018    1.237833
    101          1           0       -0.459189   -4.883904    0.185845
    102          1           0       -4.529388   -2.057764    1.463893
    103          1           0       -4.194684   -3.257871    0.349539
    104          1           0       -4.489584   -0.674778   -1.069321
    105          1           0       -6.197810   -3.806234    0.233583
    106          1           0       -7.468363   -3.659842   -0.977000
    107          1           0       -7.415263   -2.700236    0.673239
    108          1           0       -6.881004   -1.981651   -2.841402
    109          1           0       -6.352427   -0.413651   -2.368305
    110          1           0       -8.771012   -1.362668   -0.719720
    111          1           0       -8.935800   -1.671881   -2.404469
    112          1           0       -9.608339    0.537605   -2.664838
    113          1           0       -7.924033    0.947162   -2.373327
    114          1           0       -9.112591    2.193950   -0.947972
    115          1           0       -6.980472    0.468079    0.455975
    116          1           0       -7.564907    2.046153    0.930875
    117          1           0       -6.838954    1.688745   -0.685908
    118          1           0       -9.608822    0.105682    1.212914
    119          1           0      -10.699722    0.071408   -0.248457
    120          1           0      -11.722165    1.759903    0.427405
    121          1           0      -10.310178    2.734804    0.755333
    122          1           0      -10.585066    2.434667    3.078832
    123          1           0      -10.965004    0.751415    2.988359
    124          1           0      -13.039512    2.649517    1.841541
    125          1           0      -12.109826    2.847537    4.611512
    126          1           0      -13.875282    2.451905    4.511539
    127          1           0      -13.089289    3.767819    3.618485
    128          1           0      -13.882103    0.547818    3.505313
    129          1           0      -12.895708   -0.272991    2.407318
    130          1           0      -14.979049    1.724158    1.377678
    131          1           0      -15.415400    0.157134    2.019242
    132          1           0      -14.420428   -0.932713    0.220734
    133          1           0      -13.160780    0.164948   -0.057531
    134          1           0      -15.830948    1.375042   -0.649002
    135          1           0      -15.549603   -0.023137   -2.935058
    136          1           0      -16.780214   -0.428283   -1.679212
    137          1           0      -15.189542   -1.272464   -1.854669
    138          1           0      -13.313738    2.171257   -1.362783
    139          1           0      -14.927991    2.675619   -1.864033
    140          1           0      -14.059701    1.445364   -2.788735
 ---------------------------------------------------------------------

 SCF Done:  E(RCAM-B3LYP) =  -3007.15722651     A.U. after   19 cycles

 Excitation energies and oscillator strengths:

 Excited State   1:      Singlet-A      1.6937 eV  732.04 nm  f=0.3613  <S**2>=0.000
     245 -> 248       -0.17887
     246 -> 247        0.68483
     245 <- 248       -0.10790
 This state for optimization and/or second-order correction.
 Total Energy, E(TD-HF/TD-DFT) =  -3007.09498516
 Copying the excited state density for this state as the 1-particle RhoCI density.

 Excited State   2:      Singlet-A      2.2739 eV  545.24 nm  f=0.0838  <S**2>=0.000
     245 -> 247        0.61676
     246 -> 248        0.33142

 Excited State   3:      Singlet-A      3.4119 eV  363.39 nm  f=0.0674  <S**2>=0.000
     242 -> 247        0.22882
     243 -> 247        0.60636
     246 -> 248       -0.23526

 Excited State   4:      Singlet-A      3.4668 eV  357.63 nm  f=0.5468  <S**2>=0.000
     242 -> 247       -0.19057
     243 -> 247        0.31036
     245 -> 247       -0.27866
     246 -> 248        0.53352

 Excited State   5:      Singlet-A      3.6260 eV  341.93 nm  f=0.1132  <S**2>=0.000
     239 -> 247       -0.21277
     239 -> 248        0.10040
     239 -> 249        0.21344
     239 -> 250        0.11347
     240 -> 247       -0.11550
     241 -> 247       -0.23813
     241 -> 249       -0.14956
     241 -> 250        0.14355
     242 -> 247        0.43748
     243 -> 247       -0.11633
     245 -> 247       -0.10873
     246 -> 248        0.13295

 The electronic state is 1-A.
 Alpha  occ. eigenvalues --  -46.87209 -19.26440 -19.24132 -19.20619 -19.19420
 Alpha  occ. eigenvalues --  -19.18870 -19.18714 -14.42139 -14.41136 -14.39696
 Alpha  occ. eigenvalues --  -14.38690 -10.40179 -10.38063 -10.36701 -10.34956
 Alpha  occ. eigenvalues --  -10.32366 -10.31645 -10.31571 -10.31325 -10.30668
 Alpha  occ. eigenvalues --  -10.30301 -10.30134 -10.29233 -10.29123 -10.29050
 Alpha  occ. eigenvalues --  -10.28838 -10.28615 -10.28428 -10.28397 -10.28045
 Alpha  occ. eigenvalues --  -10.27913 -10.27668 -10.27465 -10.27445 -10.27373
 Alpha  occ. eigenvalues --  -10.27298 -10.26945 -10.26903 -10.26901 -10.26830
 Alpha  occ. eigenvalues --  -10.26769 -10.26440 -10.26171 -10.26145 -10.25901
 Alpha  occ. eigenvalues --  -10.25744 -10.25654 -10.25647 -10.25605 -10.25565
 Alpha  occ. eigenvalues --  -10.25518 -10.25379 -10.25263 -10.25245 -10.24968
 Alpha  occ. eigenvalues --  -10.24806 -10.24776 -10.24706 -10.24674 -10.24571
 Alpha  occ. eigenvalues --  -10.24487 -10.24470 -10.24464 -10.24412 -10.24222
 Alpha  occ. eigenvalues --  -10.24141  -3.15938  -1.90845  -1.90376  -1.90270
 Alpha  occ. eigenvalues --   -1.18442  -1.16168  -1.09720  -1.09450  -1.08279
 Alpha  occ. eigenvalues --   -1.08069  -1.04676  -1.03277  -1.02709  -1.01825
 Alpha  occ. eigenvalues --   -0.92228  -0.90812  -0.90239  -0.89363  -0.89224
 Alpha  occ. eigenvalues --   -0.88778  -0.88156  -0.87627  -0.87376  -0.86904
 Alpha  occ. eigenvalues --   -0.86301  -0.85715  -0.84503  -0.83755  -0.83451
 Alpha  occ. eigenvalues --   -0.82714  -0.82665  -0.81641  -0.80940  -0.80716
 Alpha  occ. eigenvalues --   -0.79783  -0.78288  -0.78175  -0.77265  -0.76633
 Alpha  occ. eigenvalues --   -0.76024  -0.75810  -0.75141  -0.74938  -0.74720
 Alpha  occ. eigenvalues --   -0.74030  -0.72901  -0.72076  -0.70696  -0.69094
 Alpha  occ. eigenvalues --   -0.68695  -0.68123  -0.67477  -0.66796  -0.65711
 Alpha  occ. eigenvalues --   -0.65674  -0.65455  -0.64848  -0.64069  -0.63897
 Alpha  occ. eigenvalues --   -0.63670  -0.63190  -0.61756  -0.61574  -0.60707
 Alpha  occ. eigenvalues --   -0.60630  -0.59894  -0.59004  -0.58474  -0.57950
 Alpha  occ. eigenvalues --   -0.57447  -0.57162  -0.56438  -0.56242  -0.55523
 Alpha  occ. eigenvalues --   -0.55322  -0.54894  -0.54698  -0.54259  -0.54091
 Alpha  occ. eigenvalues --   -0.53585  -0.53336  -0.53134  -0.52947  -0.52864
 Alpha  occ. eigenvalues --   -0.52632  -0.52430  -0.52359  -0.52236  -0.51899
 Alpha  occ. eigenvalues --   -0.51593  -0.51516  -0.51288  -0.51260  -0.50880
 Alpha  occ. eigenvalues --   -0.50766  -0.50648  -0.50312  -0.50088  -0.49688
 Alpha  occ. eigenvalues --   -0.49572  -0.49490  -0.49231  -0.49179  -0.49073
 Alpha  occ. eigenvalues --   -0.48712  -0.48516  -0.48423  -0.48065  -0.47881
 Alpha  occ. eigenvalues --   -0.47638  -0.47374  -0.47183  -0.46868  -0.46785
 Alpha  occ. eigenvalues --   -0.46697  -0.46559  -0.46254  -0.46017  -0.45872
 Alpha  occ. eigenvalues --   -0.45607  -0.45372  -0.45332  -0.45174  -0.44782
 Alpha  occ. eigenvalues --   -0.44585  -0.44378  -0.44319  -0.44166  -0.44019
 Alpha  occ. eigenvalues --   -0.43732  -0.43648  -0.43577  -0.43328  -0.43094
 Alpha  occ. eigenvalues --   -0.42780  -0.42554  -0.42440  -0.41989  -0.41920
 Alpha  occ. eigenvalues --   -0.41758  -0.41562  -0.41381  -0.41289  -0.41255
 Alpha  occ. eigenvalues --   -0.41128  -0.40838  -0.40659  -0.40438  -0.40329
 Alpha  occ. eigenvalues --   -0.40254  -0.39846  -0.39310  -0.39246  -0.38977
 Alpha  occ. eigenvalues --   -0.38729  -0.38364  -0.37931  -0.37783  -0.37159
 Alpha  occ. eigenvalues --   -0.36974  -0.36907  -0.36537  -0.36363  -0.36269
 Alpha  occ. eigenvalues --   -0.35740  -0.35626  -0.35384  -0.34905  -0.34026
 Alpha  occ. eigenvalues --   -0.33768  -0.33434  -0.32897  -0.31601  -0.31102
 Alpha  occ. eigenvalues --   -0.30771  -0.30181  -0.29741  -0.29638  -0.24269
 Alpha  occ. eigenvalues --   -0.20874
 Alpha virt. eigenvalues --   -0.08488  -0.01917   0.00120   0.02503   0.04048
 Alpha virt. eigenvalues --    0.04553   0.05283   0.05993   0.06435   0.07018
 Alpha virt. eigenvalues --    0.07753   0.07832   0.08495   0.08667   0.09028

 Mulliken charges:
               1
     1  Mg   0.831070
     2  C    0.037858
     3  C   -0.108817
     4  C   -0.055637
     5  C   -0.118460
     6  N   -0.328826
     7  C   -0.001003
     8  C    0.011790
     9  C   -0.076231
    10  C    0.039702
    11  C    0.056450
    12  C    0.014014
    13  C    0.011246
    14  C    0.160159
    15  O   -0.212854
    16  O   -0.292951
    17  N   -0.396107
    18  C    0.213538
    19  C   -0.154390
    20  C   -0.054482
    21  C    0.133065
    22  C    0.091732
    23  C    0.071335
    24  O   -0.232254
    25  C    0.049051
    26  N   -0.226253
    27  C   -0.030356
    28  C   -0.009103
    29  C   -0.066913
    30  C    0.027958
    31  C    0.086386
    32  C    0.049581
    33  C    0.007915
    34  N   -0.417754
    35  C    0.204317
    36  C   -0.220086
    37  C    0.041154
    38  C    0.079015
    39  C    0.136550
    40  C    0.065236
    41  O   -0.165805
    42  C   -0.020849
    43  C    0.154992
    44  O   -0.188334
    45  O   -0.331316
    46  C    0.165439
    47  C    0.284560
    48  C   -0.160557
    49  C   -0.178128
    50  C    0.105794
    51  C    0.073953
    52  C    0.003569
    53  C    0.034143
    54  C   -0.134178
    55  C    0.042951
    56  C    0.061051
    57  C   -0.007669
    58  C    0.080467
    59  C   -0.169312
    60  C    0.053194
    61  C    0.066744
    62  C    0.042436
    63  C    0.057869
    64  C   -0.173764
    65  C    0.075641
    66  C    0.032157
    67  H   -0.022289
    68  H   -0.016817
    69  H   -0.038440
    70  H    0.025410
    71  H    0.022032
    72  H    0.028663
    73  H    0.013901
    74  H    0.014652
    75  H    0.027842
    76  H    0.039458
    77  H    0.028835
    78  H    0.024845
    79  H    0.018090
    80  H    0.021297
    81  H    0.021472
    82  H    0.028205
    83  H    0.039625
    84  H    0.039909
    85  H    0.013156
    86  H   -0.006528
    87  H    0.014380
    88  H    0.028310
    89  H    0.024897
    90  H    0.012234
    91  H    0.008899
    92  H    0.024444
    93  H    0.014359
    94  H    0.012593
    95  H    0.021667
    96  H    0.046325
    97  H    0.016032
    98  H    0.031964
    99  H    0.046053
   100  H    0.047698
   101  H    0.038437
   102  H    0.024059
   103  H    0.026412
   104  H   -0.001845
   105  H   -0.008754
   106  H    0.027761
   107  H    0.045323
   108  H    0.006604
   109  H   -0.007711
   110  H    0.014494
   111  H   -0.012535
   112  H    0.003151
   113  H   -0.012239
   114  H   -0.006382
   115  H    0.007958
   116  H    0.009633
   117  H   -0.006437
   118  H   -0.006516
   119  H    0.006929
   120  H   -0.000682
   121  H    0.000293
   122  H   -0.011123
   123  H   -0.004571
   124  H    0.004093
   125  H    0.004902
   126  H    0.011445
   127  H   -0.004582
   128  H   -0.028895
   129  H   -0.005587
   130  H   -0.002977
   131  H   -0.004372
   132  H   -0.018285
   133  H   -0.008877
   134  H   -0.005884
   135  H   -0.009400
   136  H    0.022258
   137  H    0.002781
   138  H    0.011209
   139  H    0.007923
   140  H   -0.002878
 Sum of Mulliken charges =  -0.00000

 Dipole moment (field-independent basis, Debye):
    X=             -4.4739    Y=              5.0932    Z=             -1.4234  Tot=              6.9270
 Quadrupole moment (field-independent basis, Debye-Ang):
   XX=           -368.6878   YY=           -429.4562   ZZ=           -409.0209
   XY=              8.6575   XZ=             -8.0189   YZ=             -9.5120

 Normal termination of Gaussian 16 at Thu Apr 28 08:27:13 2022.
