 Gaussian 16, Revision A.03,
 Gaussian 16:  ES64L-G16RevA.03 25-Dec-2016

 ---------------------------------
 #p PBE1PBE/Def2SVP td=(nstates=5)
 ---------------------------------

 ----------------------------------------------------
 step_151_chromophore_1 TDDFT with PBE1PBE functional
 ----------------------------------------------------
 Symbolic Z-matrix:
 Charge =  0 Multiplicity = 1

                         Standard orientation:
 ---------------------------------------------------------------------
 Center     Atomic      Atomic             Coordinates (Angstroms)
 Number     Number       Type             X           Y           Z
 ---------------------------------------------------------------------
      1         12           0        6.003391    0.463485   -0.218700
      2          6           0        4.001179   -2.324821   -0.386203
      3          6           0        3.299900    2.543247   -0.960746
      4          6           0        8.015914    3.183081    0.166730
      5          6           0        8.803936   -1.505480    0.312505
      6          7           0        3.902558    0.119015   -0.759325
      7          6           0        3.283848   -1.156583   -0.687948
      8          6           0        1.922857   -0.943184   -1.355433
      9          6           0        1.648881    0.603153   -1.373272
     10          6           0        3.009872    1.128869   -1.005612
     11          6           0        1.167250    1.239790   -2.726850
     12          6           0        0.746594   -1.759286   -0.713756
     13          6           0       -0.716076   -1.134177   -0.577743
     14          6           0       -1.937431   -2.043768   -0.575848
     15          8           0       -2.143491   -2.912244   -1.394297
     16          8           0       -2.723254   -1.685865    0.463824
     17          7           0        5.727348    2.489635   -0.334128
     18          6           0        4.550338    3.126094   -0.679126
     19          6           0        4.748929    4.555539   -0.595192
     20          6           0        6.066455    4.808282   -0.042478
     21          6           0        6.670149    3.478213   -0.059715
     22          6           0        3.741203    5.538482   -1.158753
     23          6           0        6.676534    6.250554    0.295771
     24          8           0        7.839137    6.359632    0.774564
     25          6           0        5.805163    7.445649    0.223430
     26          7           0        8.169155    0.815327    0.008652
     27          6           0        8.731430    2.026494    0.265819
     28          6           0       10.311738    1.864651    0.465373
     29          6           0       10.365310    0.350927    0.737450
     30          6           0        9.034836   -0.142022    0.223397
     31          6           0       11.135245    2.471850   -0.755393
     32          6           0       10.597938    0.002428    2.235632
     33          6           0       11.110955   -1.405140    2.466871
     34          7           0        6.446675   -1.470717   -0.163488
     35          6           0        7.612824   -2.156149    0.132462
     36          6           0        7.335582   -3.509876    0.168922
     37          6           0        5.994151   -3.683198    0.027424
     38          6           0        5.429403   -2.392976   -0.157256
     39          6           0        8.413380   -4.533785    0.571929
     40          6           0        4.882646   -4.623880    0.004150
     41          8           0        4.838431   -5.818291    0.265306
     42          6           0        3.585923   -3.762812   -0.345569
     43          6           0        2.571165   -4.099582    0.707697
     44          8           0        2.672222   -3.745883    1.840731
     45          8           0        1.588416   -4.873250    0.185671
     46          6           0        0.328462   -5.025588    0.925772
     47          6           0       -4.055697   -2.185770    0.490125
     48          6           0       -4.916777   -1.548170   -0.577034
     49          6           0       -6.109049   -2.033938   -0.943001
     50          6           0       -6.921998   -3.119931   -0.203577
     51          6           0       -6.891768   -1.286819   -2.002098
     52          6           0       -8.423524   -1.021612   -1.694929
     53          6           0       -8.790839    0.440571   -1.949597
     54          6           0       -8.894165    1.195720   -0.569791
     55          6           0       -7.516381    1.346405    0.096457
     56          6           0      -10.005063    0.652753    0.357727
     57          6           0      -10.811915    1.805373    1.025428
     58          6           0      -11.179846    1.712782    2.520416
     59          6           0      -12.707032    1.969563    2.625986
     60          6           0      -12.978458    2.739930    3.963131
     61          6           0      -13.492330    0.635756    2.491360
     62          6           0      -14.617217    0.705769    1.520205
     63          6           0      -14.224008    0.137993    0.179242
     64          6           0      -15.052781    0.716592   -1.034273
     65          6           0      -15.717848   -0.320103   -1.899623
     66          6           0      -14.255268    1.821392   -1.784877
     67          1           0        2.413113    3.156233   -1.136025
     68          1           0        8.644980    4.062492    0.319665
     69          1           0        9.740388   -2.055633    0.415436
     70          1           0        2.108158   -1.288101   -2.373279
     71          1           0        0.920448    0.933406   -0.633660
     72          1           0        1.786580    2.047678   -3.118948
     73          1           0        0.168307    1.667419   -2.645509
     74          1           0        1.146234    0.417039   -3.440872
     75          1           0        0.947286   -1.892937    0.349363
     76          1           0        0.541830   -2.716147   -1.193791
     77          1           0       -0.864267   -0.322649   -1.290385
     78          1           0       -0.694465   -0.649162    0.398238
     79          1           0        3.047402    4.999135   -1.802982
     80          1           0        4.109782    6.408759   -1.701375
     81          1           0        3.137908    5.995766   -0.374291
     82          1           0        4.859236    7.075532    0.619081
     83          1           0        5.592368    7.716844   -0.810563
     84          1           0        6.021813    8.362234    0.772875
     85          1           0       10.469585    2.449875    1.370581
     86          1           0       11.120395   -0.184439    0.160974
     87          1           0       11.667513    3.336832   -0.357412
     88          1           0       10.469529    2.932316   -1.485107
     89          1           0       11.871731    1.750978   -1.110577
     90          1           0        9.685183    0.103274    2.821205
     91          1           0       11.315458    0.751243    2.571061
     92          1           0       10.336617   -2.062439    2.862003
     93          1           0       11.927800   -1.359819    3.187159
     94          1           0       11.461047   -1.891954    1.556579
     95          1           0        9.125707   -4.492360   -0.252484
     96          1           0        7.822963   -5.417960    0.812602
     97          1           0        8.989294   -4.209778    1.438396
     98          1           0        3.149038   -4.071369   -1.294724
     99          1           0        0.115202   -4.302855    1.713248
    100          1           0        0.340062   -6.070018    1.237833
    101          1           0       -0.459189   -4.883904    0.185845
    102          1           0       -4.529388   -2.057764    1.463893
    103          1           0       -4.194684   -3.257871    0.349539
    104          1           0       -4.489584   -0.674778   -1.069321
    105          1           0       -6.197810   -3.806234    0.233583
    106          1           0       -7.468363   -3.659842   -0.977000
    107          1           0       -7.415263   -2.700236    0.673239
    108          1           0       -6.881004   -1.981651   -2.841402
    109          1           0       -6.352427   -0.413651   -2.368305
    110          1           0       -8.771012   -1.362668   -0.719720
    111          1           0       -8.935800   -1.671881   -2.404469
    112          1           0       -9.608339    0.537605   -2.664838
    113          1           0       -7.924033    0.947162   -2.373327
    114          1           0       -9.112591    2.193950   -0.947972
    115          1           0       -6.980472    0.468079    0.455975
    116          1           0       -7.564907    2.046153    0.930875
    117          1           0       -6.838954    1.688745   -0.685908
    118          1           0       -9.608822    0.105682    1.212914
    119          1           0      -10.699722    0.071408   -0.248457
    120          1           0      -11.722165    1.759903    0.427405
    121          1           0      -10.310178    2.734804    0.755333
    122          1           0      -10.585066    2.434667    3.078832
    123          1           0      -10.965004    0.751415    2.988359
    124          1           0      -13.039512    2.649517    1.841541
    125          1           0      -12.109826    2.847537    4.611512
    126          1           0      -13.875282    2.451905    4.511539
    127          1           0      -13.089289    3.767819    3.618485
    128          1           0      -13.882103    0.547818    3.505313
    129          1           0      -12.895708   -0.272991    2.407318
    130          1           0      -14.979049    1.724158    1.377678
    131          1           0      -15.415400    0.157134    2.019242
    132          1           0      -14.420428   -0.932713    0.220734
    133          1           0      -13.160780    0.164948   -0.057531
    134          1           0      -15.830948    1.375042   -0.649002
    135          1           0      -15.549603   -0.023137   -2.935058
    136          1           0      -16.780214   -0.428283   -1.679212
    137          1           0      -15.189542   -1.272464   -1.854669
    138          1           0      -13.313738    2.171257   -1.362783
    139          1           0      -14.927991    2.675619   -1.864033
    140          1           0      -14.059701    1.445364   -2.788735
 ---------------------------------------------------------------------

 SCF Done:  E(RPBE1PBE) =  -3005.34533026     A.U. after   15 cycles

 Excitation energies and oscillator strengths:

 Excited State   1:      Singlet-A      1.8464 eV  671.50 nm  f=0.3475  <S**2>=0.000
     245 -> 248       -0.17174
     246 -> 247        0.69250
     246 <- 247       -0.11008
 This state for optimization and/or second-order correction.
 Total Energy, E(TD-HF/TD-DFT) =  -3005.27747714
 Copying the excited state density for this state as the 1-particle RhoCI density.

 Excited State   2:      Singlet-A      2.2787 eV  544.11 nm  f=0.0876  <S**2>=0.000
     245 -> 247        0.63186
     246 -> 248        0.30287

 Excited State   3:      Singlet-A      3.0830 eV  402.15 nm  f=0.0005  <S**2>=0.000
     241 -> 247        0.11852
     242 -> 247        0.16423
     243 -> 247        0.66473

 Excited State   4:      Singlet-A      3.1199 eV  397.39 nm  f=0.0003  <S**2>=0.000
     241 -> 247        0.23124
     242 -> 247        0.60058
     243 -> 247       -0.20444

 Excited State   5:      Singlet-A      3.1993 eV  387.53 nm  f=0.0627  <S**2>=0.000
     240 -> 247       -0.14382
     240 -> 249        0.10014
     241 -> 247        0.52185
     242 -> 247       -0.17955
     245 -> 247        0.11415
     246 -> 248       -0.33655
     246 -> 249       -0.12006

 The electronic state is 1-A.
 Alpha  occ. eigenvalues --  -46.90626 -19.27130 -19.24812 -19.20861 -19.19558
 Alpha  occ. eigenvalues --  -19.19178 -19.18944 -14.41743 -14.40583 -14.39341
 Alpha  occ. eigenvalues --  -14.38425 -10.37186 -10.35104 -10.33784 -10.32190
 Alpha  occ. eigenvalues --  -10.29766 -10.29472 -10.29204 -10.28559 -10.28266
 Alpha  occ. eigenvalues --  -10.27851 -10.27820 -10.27021 -10.26949 -10.26877
 Alpha  occ. eigenvalues --  -10.26424 -10.26408 -10.26298 -10.26020 -10.25867
 Alpha  occ. eigenvalues --  -10.25739 -10.25203 -10.25138 -10.25129 -10.25003
 Alpha  occ. eigenvalues --  -10.24693 -10.24671 -10.24554 -10.24391 -10.24215
 Alpha  occ. eigenvalues --  -10.24176 -10.24163 -10.23840 -10.23624 -10.23619
 Alpha  occ. eigenvalues --  -10.23365 -10.23245 -10.23236 -10.23199 -10.23124
 Alpha  occ. eigenvalues --  -10.23119 -10.23055 -10.22826 -10.22752 -10.22570
 Alpha  occ. eigenvalues --  -10.22501 -10.22370 -10.22332 -10.22124 -10.22076
 Alpha  occ. eigenvalues --  -10.22023 -10.21911 -10.21892 -10.21845 -10.21694
 Alpha  occ. eigenvalues --  -10.21640  -3.12931  -1.85781  -1.85288  -1.85188
 Alpha  occ. eigenvalues --   -1.13274  -1.10965  -1.04573  -1.04270  -1.02934
 Alpha  occ. eigenvalues --   -1.02903  -0.99314  -0.98006  -0.97301  -0.96437
 Alpha  occ. eigenvalues --   -0.86627  -0.84917  -0.84331  -0.83672  -0.83397
 Alpha  occ. eigenvalues --   -0.82936  -0.82443  -0.81770  -0.81690  -0.81133
 Alpha  occ. eigenvalues --   -0.80675  -0.79971  -0.78695  -0.78022  -0.77735
 Alpha  occ. eigenvalues --   -0.76913  -0.76812  -0.75889  -0.75227  -0.75042
 Alpha  occ. eigenvalues --   -0.73973  -0.72580  -0.72433  -0.71592  -0.70787
 Alpha  occ. eigenvalues --   -0.70355  -0.69911  -0.69499  -0.69092  -0.68884
 Alpha  occ. eigenvalues --   -0.68332  -0.67369  -0.66454  -0.65052  -0.63523
 Alpha  occ. eigenvalues --   -0.63036  -0.62488  -0.61674  -0.61182  -0.60157
 Alpha  occ. eigenvalues --   -0.59994  -0.59826  -0.59311  -0.58672  -0.58174
 Alpha  occ. eigenvalues --   -0.58010  -0.57385  -0.56170  -0.55984  -0.55136
 Alpha  occ. eigenvalues --   -0.55049  -0.54476  -0.53503  -0.53039  -0.52514
 Alpha  occ. eigenvalues --   -0.52089  -0.51600  -0.50972  -0.50818  -0.50059
 Alpha  occ. eigenvalues --   -0.49851  -0.49486  -0.49101  -0.48801  -0.48602
 Alpha  occ. eigenvalues --   -0.48050  -0.47904  -0.47717  -0.47455  -0.47340
 Alpha  occ. eigenvalues --   -0.47154  -0.46914  -0.46719  -0.46618  -0.46426
 Alpha  occ. eigenvalues --   -0.46068  -0.46036  -0.45986  -0.45842  -0.45464
 Alpha  occ. eigenvalues --   -0.45291  -0.45240  -0.44890  -0.44721  -0.44237
 Alpha  occ. eigenvalues --   -0.44126  -0.44015  -0.43838  -0.43777  -0.43679
 Alpha  occ. eigenvalues --   -0.43338  -0.43102  -0.43052  -0.42736  -0.42521
 Alpha  occ. eigenvalues --   -0.42319  -0.42044  -0.41804  -0.41531  -0.41400
 Alpha  occ. eigenvalues --   -0.41399  -0.41136  -0.41018  -0.40763  -0.40470
 Alpha  occ. eigenvalues --   -0.40329  -0.40071  -0.40001  -0.39895  -0.39529
 Alpha  occ. eigenvalues --   -0.39358  -0.39127  -0.38996  -0.38923  -0.38713
 Alpha  occ. eigenvalues --   -0.38502  -0.38394  -0.38273  -0.38094  -0.37949
 Alpha  occ. eigenvalues --   -0.37640  -0.37376  -0.37290  -0.36836  -0.36658
 Alpha  occ. eigenvalues --   -0.36481  -0.36453  -0.36222  -0.36128  -0.36036
 Alpha  occ. eigenvalues --   -0.35995  -0.35745  -0.35521  -0.35341  -0.35157
 Alpha  occ. eigenvalues --   -0.35114  -0.34780  -0.34227  -0.34093  -0.33811
 Alpha  occ. eigenvalues --   -0.33681  -0.33174  -0.32923  -0.32584  -0.31999
 Alpha  occ. eigenvalues --   -0.31930  -0.31821  -0.31444  -0.31379  -0.31149
 Alpha  occ. eigenvalues --   -0.30702  -0.30540  -0.30237  -0.29709  -0.29209
 Alpha  occ. eigenvalues --   -0.28992  -0.28407  -0.28166  -0.26843  -0.26215
 Alpha  occ. eigenvalues --   -0.25842  -0.25643  -0.25321  -0.24910  -0.21171
 Alpha  occ. eigenvalues --   -0.18547
 Alpha virt. eigenvalues --   -0.10995  -0.05409  -0.04102  -0.01904  -0.00101
 Alpha virt. eigenvalues --    0.01040   0.01462   0.01558   0.02151   0.02710
 Alpha virt. eigenvalues --    0.03874   0.04513   0.04570   0.05252   0.05413

 Mulliken charges:
               1
     1  Mg   0.987260
     2  C    0.017367
     3  C   -0.095111
     4  C   -0.056297
     5  C   -0.111663
     6  N   -0.430611
     7  C    0.078738
     8  C   -0.067826
     9  C   -0.157893
    10  C    0.083596
    11  C    0.001337
    12  C   -0.031423
    13  C   -0.071141
    14  C    0.233574
    15  O   -0.246824
    16  O   -0.328429
    17  N   -0.512811
    18  C    0.230225
    19  C   -0.186387
    20  C   -0.081464
    21  C    0.148160
    22  C    0.028269
    23  C    0.116409
    24  O   -0.267903
    25  C   -0.024062
    26  N   -0.332455
    27  C    0.009746
    28  C   -0.084010
    29  C   -0.151963
    30  C    0.085214
    31  C    0.027949
    32  C   -0.005421
    33  C   -0.067904
    34  N   -0.545967
    35  C    0.221394
    36  C   -0.227544
    37  C   -0.020156
    38  C    0.133531
    39  C    0.077738
    40  C    0.161947
    41  O   -0.211085
    42  C   -0.124557
    43  C    0.251235
    44  O   -0.224443
    45  O   -0.366537
    46  C    0.110475
    47  C    0.241590
    48  C   -0.171652
    49  C   -0.216555
    50  C    0.035033
    51  C    0.013522
    52  C   -0.057211
    53  C   -0.024921
    54  C   -0.224115
    55  C   -0.012788
    56  C    0.002545
    57  C   -0.077311
    58  C    0.028632
    59  C   -0.257552
    60  C   -0.006450
    61  C    0.014115
    62  C   -0.023480
    63  C   -0.005830
    64  C   -0.261203
    65  C    0.012685
    66  C   -0.031784
    67  H    0.009647
    68  H    0.015895
    69  H   -0.006491
    70  H    0.062963
    71  H    0.059112
    72  H    0.055823
    73  H    0.040153
    74  H    0.042470
    75  H    0.062150
    76  H    0.071706
    77  H    0.063593
    78  H    0.057317
    79  H    0.044801
    80  H    0.049442
    81  H    0.049672
    82  H    0.055929
    83  H    0.066219
    84  H    0.066445
    85  H    0.049735
    86  H    0.031376
    87  H    0.042008
    88  H    0.055880
    89  H    0.051733
    90  H    0.045558
    91  H    0.042657
    92  H    0.053346
    93  H    0.043713
    94  H    0.038902
    95  H    0.050290
    96  H    0.074365
    97  H    0.045233
    98  H    0.069142
    99  H    0.066205
   100  H    0.069857
   101  H    0.061131
   102  H    0.051615
   103  H    0.053827
   104  H    0.028098
   105  H    0.020408
   106  H    0.055660
   107  H    0.071649
   108  H    0.041867
   109  H    0.021634
   110  H    0.046861
   111  H    0.021427
   112  H    0.034619
   113  H    0.021650
   114  H    0.032286
   115  H    0.038766
   116  H    0.038231
   117  H    0.020497
   118  H    0.026332
   119  H    0.041723
   120  H    0.042645
   121  H    0.032746
   122  H    0.021751
   123  H    0.026781
   124  H    0.041073
   125  H    0.031875
   126  H    0.037741
   127  H    0.024082
   128  H    0.005847
   129  H    0.025464
   130  H    0.029383
   131  H    0.028571
   132  H    0.016060
   133  H    0.029798
   134  H    0.032363
   135  H    0.018253
   136  H    0.049249
   137  H    0.030220
   138  H    0.041740
   139  H    0.035095
   140  H    0.024590
 Sum of Mulliken charges =  -0.00000

 Dipole moment (field-independent basis, Debye):
    X=             -4.4467    Y=              4.8842    Z=             -1.3881  Tot=              6.7494
 Quadrupole moment (field-independent basis, Debye-Ang):
   XX=           -362.0790   YY=           -427.1769   ZZ=           -406.3793
   XY=              6.9870   XZ=             -7.2521   YZ=             -9.8340

 Normal termination of Gaussian 16 at Thu Apr 28 08:47:51 2022.
