 Gaussian 16, Revision A.03,
 Gaussian 16:  ES64L-G16RevA.03 25-Dec-2016

 --------------------------------
 #p wB97XD/Def2SVP td=(nstates=5)
 --------------------------------

 ---------------------------------------------------
 step_151_chromophore_1 TDDFT with wB97XD functional
 ---------------------------------------------------
 Symbolic Z-matrix:
 Charge =  0 Multiplicity = 1

                         Standard orientation:
 ---------------------------------------------------------------------
 Center     Atomic      Atomic             Coordinates (Angstroms)
 Number     Number       Type             X           Y           Z
 ---------------------------------------------------------------------
      1         12           0        6.003391    0.463485   -0.218700
      2          6           0        4.001179   -2.324821   -0.386203
      3          6           0        3.299900    2.543247   -0.960746
      4          6           0        8.015914    3.183081    0.166730
      5          6           0        8.803936   -1.505480    0.312505
      6          7           0        3.902558    0.119015   -0.759325
      7          6           0        3.283848   -1.156583   -0.687948
      8          6           0        1.922857   -0.943184   -1.355433
      9          6           0        1.648881    0.603153   -1.373272
     10          6           0        3.009872    1.128869   -1.005612
     11          6           0        1.167250    1.239790   -2.726850
     12          6           0        0.746594   -1.759286   -0.713756
     13          6           0       -0.716076   -1.134177   -0.577743
     14          6           0       -1.937431   -2.043768   -0.575848
     15          8           0       -2.143491   -2.912244   -1.394297
     16          8           0       -2.723254   -1.685865    0.463824
     17          7           0        5.727348    2.489635   -0.334128
     18          6           0        4.550338    3.126094   -0.679126
     19          6           0        4.748929    4.555539   -0.595192
     20          6           0        6.066455    4.808282   -0.042478
     21          6           0        6.670149    3.478213   -0.059715
     22          6           0        3.741203    5.538482   -1.158753
     23          6           0        6.676534    6.250554    0.295771
     24          8           0        7.839137    6.359632    0.774564
     25          6           0        5.805163    7.445649    0.223430
     26          7           0        8.169155    0.815327    0.008652
     27          6           0        8.731430    2.026494    0.265819
     28          6           0       10.311738    1.864651    0.465373
     29          6           0       10.365310    0.350927    0.737450
     30          6           0        9.034836   -0.142022    0.223397
     31          6           0       11.135245    2.471850   -0.755393
     32          6           0       10.597938    0.002428    2.235632
     33          6           0       11.110955   -1.405140    2.466871
     34          7           0        6.446675   -1.470717   -0.163488
     35          6           0        7.612824   -2.156149    0.132462
     36          6           0        7.335582   -3.509876    0.168922
     37          6           0        5.994151   -3.683198    0.027424
     38          6           0        5.429403   -2.392976   -0.157256
     39          6           0        8.413380   -4.533785    0.571929
     40          6           0        4.882646   -4.623880    0.004150
     41          8           0        4.838431   -5.818291    0.265306
     42          6           0        3.585923   -3.762812   -0.345569
     43          6           0        2.571165   -4.099582    0.707697
     44          8           0        2.672222   -3.745883    1.840731
     45          8           0        1.588416   -4.873250    0.185671
     46          6           0        0.328462   -5.025588    0.925772
     47          6           0       -4.055697   -2.185770    0.490125
     48          6           0       -4.916777   -1.548170   -0.577034
     49          6           0       -6.109049   -2.033938   -0.943001
     50          6           0       -6.921998   -3.119931   -0.203577
     51          6           0       -6.891768   -1.286819   -2.002098
     52          6           0       -8.423524   -1.021612   -1.694929
     53          6           0       -8.790839    0.440571   -1.949597
     54          6           0       -8.894165    1.195720   -0.569791
     55          6           0       -7.516381    1.346405    0.096457
     56          6           0      -10.005063    0.652753    0.357727
     57          6           0      -10.811915    1.805373    1.025428
     58          6           0      -11.179846    1.712782    2.520416
     59          6           0      -12.707032    1.969563    2.625986
     60          6           0      -12.978458    2.739930    3.963131
     61          6           0      -13.492330    0.635756    2.491360
     62          6           0      -14.617217    0.705769    1.520205
     63          6           0      -14.224008    0.137993    0.179242
     64          6           0      -15.052781    0.716592   -1.034273
     65          6           0      -15.717848   -0.320103   -1.899623
     66          6           0      -14.255268    1.821392   -1.784877
     67          1           0        2.413113    3.156233   -1.136025
     68          1           0        8.644980    4.062492    0.319665
     69          1           0        9.740388   -2.055633    0.415436
     70          1           0        2.108158   -1.288101   -2.373279
     71          1           0        0.920448    0.933406   -0.633660
     72          1           0        1.786580    2.047678   -3.118948
     73          1           0        0.168307    1.667419   -2.645509
     74          1           0        1.146234    0.417039   -3.440872
     75          1           0        0.947286   -1.892937    0.349363
     76          1           0        0.541830   -2.716147   -1.193791
     77          1           0       -0.864267   -0.322649   -1.290385
     78          1           0       -0.694465   -0.649162    0.398238
     79          1           0        3.047402    4.999135   -1.802982
     80          1           0        4.109782    6.408759   -1.701375
     81          1           0        3.137908    5.995766   -0.374291
     82          1           0        4.859236    7.075532    0.619081
     83          1           0        5.592368    7.716844   -0.810563
     84          1           0        6.021813    8.362234    0.772875
     85          1           0       10.469585    2.449875    1.370581
     86          1           0       11.120395   -0.184439    0.160974
     87          1           0       11.667513    3.336832   -0.357412
     88          1           0       10.469529    2.932316   -1.485107
     89          1           0       11.871731    1.750978   -1.110577
     90          1           0        9.685183    0.103274    2.821205
     91          1           0       11.315458    0.751243    2.571061
     92          1           0       10.336617   -2.062439    2.862003
     93          1           0       11.927800   -1.359819    3.187159
     94          1           0       11.461047   -1.891954    1.556579
     95          1           0        9.125707   -4.492360   -0.252484
     96          1           0        7.822963   -5.417960    0.812602
     97          1           0        8.989294   -4.209778    1.438396
     98          1           0        3.149038   -4.071369   -1.294724
     99          1           0        0.115202   -4.302855    1.713248
    100          1           0        0.340062   -6.070018    1.237833
    101          1           0       -0.459189   -4.883904    0.185845
    102          1           0       -4.529388   -2.057764    1.463893
    103          1           0       -4.194684   -3.257871    0.349539
    104          1           0       -4.489584   -0.674778   -1.069321
    105          1           0       -6.197810   -3.806234    0.233583
    106          1           0       -7.468363   -3.659842   -0.977000
    107          1           0       -7.415263   -2.700236    0.673239
    108          1           0       -6.881004   -1.981651   -2.841402
    109          1           0       -6.352427   -0.413651   -2.368305
    110          1           0       -8.771012   -1.362668   -0.719720
    111          1           0       -8.935800   -1.671881   -2.404469
    112          1           0       -9.608339    0.537605   -2.664838
    113          1           0       -7.924033    0.947162   -2.373327
    114          1           0       -9.112591    2.193950   -0.947972
    115          1           0       -6.980472    0.468079    0.455975
    116          1           0       -7.564907    2.046153    0.930875
    117          1           0       -6.838954    1.688745   -0.685908
    118          1           0       -9.608822    0.105682    1.212914
    119          1           0      -10.699722    0.071408   -0.248457
    120          1           0      -11.722165    1.759903    0.427405
    121          1           0      -10.310178    2.734804    0.755333
    122          1           0      -10.585066    2.434667    3.078832
    123          1           0      -10.965004    0.751415    2.988359
    124          1           0      -13.039512    2.649517    1.841541
    125          1           0      -12.109826    2.847537    4.611512
    126          1           0      -13.875282    2.451905    4.511539
    127          1           0      -13.089289    3.767819    3.618485
    128          1           0      -13.882103    0.547818    3.505313
    129          1           0      -12.895708   -0.272991    2.407318
    130          1           0      -14.979049    1.724158    1.377678
    131          1           0      -15.415400    0.157134    2.019242
    132          1           0      -14.420428   -0.932713    0.220734
    133          1           0      -13.160780    0.164948   -0.057531
    134          1           0      -15.830948    1.375042   -0.649002
    135          1           0      -15.549603   -0.023137   -2.935058
    136          1           0      -16.780214   -0.428283   -1.679212
    137          1           0      -15.189542   -1.272464   -1.854669
    138          1           0      -13.313738    2.171257   -1.362783
    139          1           0      -14.927991    2.675619   -1.864033
    140          1           0      -14.059701    1.445364   -2.788735
 ---------------------------------------------------------------------

 SCF Done:  E(RwB97XD) =  -3007.85992483     A.U. after   17 cycles

 Excitation energies and oscillator strengths:

 Excited State   1:      Singlet-A      1.6381 eV  756.88 nm  f=0.3599  <S**2>=0.000
     245 -> 248       -0.18435
     246 -> 247        0.68283
     245 <- 248       -0.11696
 This state for optimization and/or second-order correction.
 Total Energy, E(TD-HF/TD-DFT) =  -3007.79972600
 Copying the excited state density for this state as the 1-particle RhoCI density.

 Excited State   2:      Singlet-A      2.2182 eV  558.93 nm  f=0.0826  <S**2>=0.000
     245 -> 247        0.61633
     246 -> 248        0.33103

 Excited State   3:      Singlet-A      3.4231 eV  362.19 nm  f=0.0882  <S**2>=0.000
     242 -> 247       -0.28972
     243 -> 247        0.56383
     246 -> 248        0.26037

 Excited State   4:      Singlet-A      3.4829 eV  355.98 nm  f=0.5297  <S**2>=0.000
     242 -> 247       -0.15734
     243 -> 247       -0.35269
     245 -> 247       -0.26980
     246 -> 248        0.51777

 Excited State   5:      Singlet-A      3.6504 eV  339.65 nm  f=0.1049  <S**2>=0.000
     239 -> 247       -0.24964
     239 -> 248        0.12036
     239 -> 249        0.26489
     239 -> 250        0.13696
     240 -> 247       -0.20498
     240 -> 249        0.20554
     242 -> 247        0.37306
     243 -> 247        0.14869
     245 -> 247       -0.10268
     246 -> 248        0.12461

 The electronic state is 1-A.
 Alpha  occ. eigenvalues --  -46.93557 -19.31699 -19.29353 -19.25558 -19.24508
 Alpha  occ. eigenvalues --  -19.23895 -19.23640 -14.46766 -14.45737 -14.44357
 Alpha  occ. eigenvalues --  -14.43293 -10.43999 -10.41906 -10.40741 -10.38965
 Alpha  occ. eigenvalues --  -10.36249 -10.35706 -10.35641 -10.35067 -10.34757
 Alpha  occ. eigenvalues --  -10.34403 -10.34193 -10.33201 -10.33172 -10.33055
 Alpha  occ. eigenvalues --  -10.33042 -10.32681 -10.32576 -10.32554 -10.31995
 Alpha  occ. eigenvalues --  -10.31982 -10.31626 -10.31532 -10.31493 -10.31400
 Alpha  occ. eigenvalues --  -10.31289 -10.30891 -10.30860 -10.30841 -10.30808
 Alpha  occ. eigenvalues --  -10.30627 -10.30490 -10.30092 -10.30011 -10.29899
 Alpha  occ. eigenvalues --  -10.29767 -10.29616 -10.29598 -10.29589 -10.29507
 Alpha  occ. eigenvalues --  -10.29477 -10.29321 -10.29198 -10.29112 -10.28913
 Alpha  occ. eigenvalues --  -10.28739 -10.28711 -10.28678 -10.28558 -10.28495
 Alpha  occ. eigenvalues --  -10.28402 -10.28303 -10.28296 -10.28267 -10.28056
 Alpha  occ. eigenvalues --  -10.28051  -3.19698  -1.93303  -1.92808  -1.92703
 Alpha  occ. eigenvalues --   -1.20655  -1.18330  -1.11922  -1.11667  -1.10539
 Alpha  occ. eigenvalues --   -1.10262  -1.06679  -1.05294  -1.04755  -1.03885
 Alpha  occ. eigenvalues --   -0.94189  -0.92600  -0.91997  -0.91250  -0.91056
 Alpha  occ. eigenvalues --   -0.90593  -0.90091  -0.89407  -0.89293  -0.88872
 Alpha  occ. eigenvalues --   -0.88250  -0.87615  -0.86352  -0.85654  -0.85357
 Alpha  occ. eigenvalues --   -0.84648  -0.84531  -0.83542  -0.82845  -0.82667
 Alpha  occ. eigenvalues --   -0.81634  -0.80209  -0.80161  -0.79179  -0.78476
 Alpha  occ. eigenvalues --   -0.77957  -0.77596  -0.77087  -0.76773  -0.76541
 Alpha  occ. eigenvalues --   -0.75948  -0.74887  -0.74033  -0.72649  -0.71033
 Alpha  occ. eigenvalues --   -0.70629  -0.70056  -0.69325  -0.68823  -0.67652
 Alpha  occ. eigenvalues --   -0.67506  -0.67440  -0.66849  -0.66074  -0.65705
 Alpha  occ. eigenvalues --   -0.65627  -0.65017  -0.63612  -0.63553  -0.62676
 Alpha  occ. eigenvalues --   -0.62592  -0.61868  -0.60984  -0.60423  -0.59919
 Alpha  occ. eigenvalues --   -0.59444  -0.59109  -0.58418  -0.58242  -0.57491
 Alpha  occ. eigenvalues --   -0.57260  -0.56844  -0.56580  -0.56170  -0.56004
 Alpha  occ. eigenvalues --   -0.55471  -0.55280  -0.55051  -0.54854  -0.54767
 Alpha  occ. eigenvalues --   -0.54544  -0.54322  -0.54287  -0.54104  -0.53810
 Alpha  occ. eigenvalues --   -0.53464  -0.53436  -0.53240  -0.53153  -0.52789
 Alpha  occ. eigenvalues --   -0.52714  -0.52555  -0.52255  -0.52013  -0.51602
 Alpha  occ. eigenvalues --   -0.51521  -0.51413  -0.51156  -0.51086  -0.50993
 Alpha  occ. eigenvalues --   -0.50634  -0.50473  -0.50329  -0.49977  -0.49786
 Alpha  occ. eigenvalues --   -0.49539  -0.49279  -0.49049  -0.48853  -0.48648
 Alpha  occ. eigenvalues --   -0.48635  -0.48395  -0.48164  -0.47933  -0.47721
 Alpha  occ. eigenvalues --   -0.47558  -0.47286  -0.47227  -0.47084  -0.46702
 Alpha  occ. eigenvalues --   -0.46515  -0.46309  -0.46205  -0.46078  -0.45888
 Alpha  occ. eigenvalues --   -0.45659  -0.45609  -0.45446  -0.45265  -0.45030
 Alpha  occ. eigenvalues --   -0.44694  -0.44484  -0.44388  -0.43919  -0.43781
 Alpha  occ. eigenvalues --   -0.43607  -0.43547  -0.43316  -0.43234  -0.43200
 Alpha  occ. eigenvalues --   -0.43052  -0.42760  -0.42579  -0.42364  -0.42194
 Alpha  occ. eigenvalues --   -0.42133  -0.41743  -0.41197  -0.41151  -0.40905
 Alpha  occ. eigenvalues --   -0.40620  -0.40219  -0.39864  -0.39641  -0.39065
 Alpha  occ. eigenvalues --   -0.38998  -0.38826  -0.38417  -0.38283  -0.38150
 Alpha  occ. eigenvalues --   -0.37750  -0.37451  -0.37232  -0.36829  -0.36021
 Alpha  occ. eigenvalues --   -0.35840  -0.35271  -0.35049  -0.33633  -0.33269
 Alpha  occ. eigenvalues --   -0.32742  -0.32351  -0.31926  -0.31652  -0.26197
 Alpha  occ. eigenvalues --   -0.22692
 Alpha virt. eigenvalues --   -0.06845  -0.00011   0.02172   0.04600   0.06736
 Alpha virt. eigenvalues --    0.07121   0.07773   0.08254   0.08911   0.09269
 Alpha virt. eigenvalues --    0.10296   0.11187   0.11445   0.11958   0.12075

 Mulliken charges:
               1
     1  Mg   0.975268
     2  C    0.017357
     3  C   -0.119671
     4  C   -0.069198
     5  C   -0.119823
     6  N   -0.399880
     7  C    0.043851
     8  C   -0.040737
     9  C   -0.130081
    10  C    0.073409
    11  C    0.010901
    12  C   -0.019403
    13  C   -0.047196
    14  C    0.216744
    15  O   -0.241749
    16  O   -0.326559
    17  N   -0.481601
    18  C    0.228643
    19  C   -0.174802
    20  C   -0.082083
    21  C    0.149354
    22  C    0.041594
    23  C    0.113128
    24  O   -0.261494
    25  C   -0.010097
    26  N   -0.296297
    27  C   -0.006925
    28  C   -0.059475
    29  C   -0.116491
    30  C    0.056003
    31  C    0.038519
    32  C    0.004713
    33  C   -0.050788
    34  N   -0.510292
    35  C    0.215784
    36  C   -0.225955
    37  C   -0.012728
    38  C    0.114928
    39  C    0.090196
    40  C    0.142609
    41  O   -0.202305
    42  C   -0.085913
    43  C    0.222485
    44  O   -0.217996
    45  O   -0.362792
    46  C    0.124778
    47  C    0.260288
    48  C   -0.181393
    49  C   -0.204657
    50  C    0.052298
    51  C    0.031002
    52  C   -0.042288
    53  C   -0.004846
    54  C   -0.189517
    55  C    0.002229
    56  C    0.016353
    57  C   -0.042661
    58  C    0.038833
    59  C   -0.222088
    60  C    0.005706
    61  C    0.025881
    62  C   -0.003814
    63  C    0.016338
    64  C   -0.232852
    65  C    0.025789
    66  C   -0.018243
    67  H    0.002718
    68  H    0.010642
    69  H   -0.018067
    70  H    0.052570
    71  H    0.047389
    72  H    0.049439
    73  H    0.035472
    74  H    0.037073
    75  H    0.050927
    76  H    0.062044
    77  H    0.053424
    78  H    0.050865
    79  H    0.040035
    80  H    0.044052
    81  H    0.045151
    82  H    0.046733
    83  H    0.060938
    84  H    0.066674
    85  H    0.039718
    86  H    0.018613
    87  H    0.036362
    88  H    0.049693
    89  H    0.047036
    90  H    0.037570
    91  H    0.033792
    92  H    0.046037
    93  H    0.039323
    94  H    0.031294
    95  H    0.044254
    96  H    0.070992
    97  H    0.038050
    98  H    0.062884
    99  H    0.062721
   100  H    0.067175
   101  H    0.056782
   102  H    0.047334
   103  H    0.045590
   104  H    0.024082
   105  H    0.013720
   106  H    0.050520
   107  H    0.065954
   108  H    0.033438
   109  H    0.012623
   110  H    0.032387
   111  H    0.014875
   112  H    0.029433
   113  H    0.008497
   114  H    0.020124
   115  H    0.025126
   116  H    0.032881
   117  H    0.012761
   118  H    0.015865
   119  H    0.031103
   120  H    0.012182
   121  H    0.023805
   122  H    0.014111
   123  H    0.017752
   124  H    0.025799
   125  H    0.025606
   126  H    0.032496
   127  H    0.017777
   128  H   -0.003732
   129  H    0.016861
   130  H    0.017910
   131  H    0.022221
   132  H    0.006972
   133  H    0.010566
   134  H    0.020083
   135  H    0.011272
   136  H    0.044781
   137  H    0.023695
   138  H    0.035818
   139  H    0.029721
   140  H    0.017333
 Sum of Mulliken charges =  -0.00000

 Dipole moment (field-independent basis, Debye):
    X=             -4.5264    Y=              5.2703    Z=             -1.4058  Tot=              7.0881
 Quadrupole moment (field-independent basis, Debye-Ang):
   XX=           -363.8293   YY=           -425.0725   ZZ=           -406.1174
   XY=              9.2384   XZ=             -7.7248   YZ=             -9.8880

 Normal termination of Gaussian 16 at Thu Apr 28 09:15:00 2022.
