 Gaussian 16, Revision A.03,
 Gaussian 16:  ES64L-G16RevA.03 25-Dec-2016

 --------------------
 #p ZINDO=(nstates=5)
 --------------------

 ----------------------------
 step_151_chromophore_1 ZINDO
 ----------------------------
 Symbolic Z-matrix:
 Charge =  0 Multiplicity = 1

                         Standard orientation:
 ---------------------------------------------------------------------
 Center     Atomic      Atomic             Coordinates (Angstroms)
 Number     Number       Type             X           Y           Z
 ---------------------------------------------------------------------
      1         12           0        6.003391    0.463485   -0.218700
      2          6           0        4.001179   -2.324821   -0.386203
      3          6           0        3.299900    2.543247   -0.960746
      4          6           0        8.015914    3.183081    0.166730
      5          6           0        8.803936   -1.505480    0.312505
      6          7           0        3.902558    0.119015   -0.759325
      7          6           0        3.283848   -1.156583   -0.687948
      8          6           0        1.922857   -0.943184   -1.355433
      9          6           0        1.648881    0.603153   -1.373272
     10          6           0        3.009872    1.128869   -1.005612
     11          6           0        1.167250    1.239790   -2.726850
     12          6           0        0.746594   -1.759286   -0.713756
     13          6           0       -0.716076   -1.134177   -0.577743
     14          6           0       -1.937431   -2.043768   -0.575848
     15          8           0       -2.143491   -2.912244   -1.394297
     16          8           0       -2.723254   -1.685865    0.463824
     17          7           0        5.727348    2.489635   -0.334128
     18          6           0        4.550338    3.126094   -0.679126
     19          6           0        4.748929    4.555539   -0.595192
     20          6           0        6.066455    4.808282   -0.042478
     21          6           0        6.670149    3.478213   -0.059715
     22          6           0        3.741203    5.538482   -1.158753
     23          6           0        6.676534    6.250554    0.295771
     24          8           0        7.839137    6.359632    0.774564
     25          6           0        5.805163    7.445649    0.223430
     26          7           0        8.169155    0.815327    0.008652
     27          6           0        8.731430    2.026494    0.265819
     28          6           0       10.311738    1.864651    0.465373
     29          6           0       10.365310    0.350927    0.737450
     30          6           0        9.034836   -0.142022    0.223397
     31          6           0       11.135245    2.471850   -0.755393
     32          6           0       10.597938    0.002428    2.235632
     33          6           0       11.110955   -1.405140    2.466871
     34          7           0        6.446675   -1.470717   -0.163488
     35          6           0        7.612824   -2.156149    0.132462
     36          6           0        7.335582   -3.509876    0.168922
     37          6           0        5.994151   -3.683198    0.027424
     38          6           0        5.429403   -2.392976   -0.157256
     39          6           0        8.413380   -4.533785    0.571929
     40          6           0        4.882646   -4.623880    0.004150
     41          8           0        4.838431   -5.818291    0.265306
     42          6           0        3.585923   -3.762812   -0.345569
     43          6           0        2.571165   -4.099582    0.707697
     44          8           0        2.672222   -3.745883    1.840731
     45          8           0        1.588416   -4.873250    0.185671
     46          6           0        0.328462   -5.025588    0.925772
     47          6           0       -4.055697   -2.185770    0.490125
     48          6           0       -4.916777   -1.548170   -0.577034
     49          6           0       -6.109049   -2.033938   -0.943001
     50          6           0       -6.921998   -3.119931   -0.203577
     51          6           0       -6.891768   -1.286819   -2.002098
     52          6           0       -8.423524   -1.021612   -1.694929
     53          6           0       -8.790839    0.440571   -1.949597
     54          6           0       -8.894165    1.195720   -0.569791
     55          6           0       -7.516381    1.346405    0.096457
     56          6           0      -10.005063    0.652753    0.357727
     57          6           0      -10.811915    1.805373    1.025428
     58          6           0      -11.179846    1.712782    2.520416
     59          6           0      -12.707032    1.969563    2.625986
     60          6           0      -12.978458    2.739930    3.963131
     61          6           0      -13.492330    0.635756    2.491360
     62          6           0      -14.617217    0.705769    1.520205
     63          6           0      -14.224008    0.137993    0.179242
     64          6           0      -15.052781    0.716592   -1.034273
     65          6           0      -15.717848   -0.320103   -1.899623
     66          6           0      -14.255268    1.821392   -1.784877
     67          1           0        2.413113    3.156233   -1.136025
     68          1           0        8.644980    4.062492    0.319665
     69          1           0        9.740388   -2.055633    0.415436
     70          1           0        2.108158   -1.288101   -2.373279
     71          1           0        0.920448    0.933406   -0.633660
     72          1           0        1.786580    2.047678   -3.118948
     73          1           0        0.168307    1.667419   -2.645509
     74          1           0        1.146234    0.417039   -3.440872
     75          1           0        0.947286   -1.892937    0.349363
     76          1           0        0.541830   -2.716147   -1.193791
     77          1           0       -0.864267   -0.322649   -1.290385
     78          1           0       -0.694465   -0.649162    0.398238
     79          1           0        3.047402    4.999135   -1.802982
     80          1           0        4.109782    6.408759   -1.701375
     81          1           0        3.137908    5.995766   -0.374291
     82          1           0        4.859236    7.075532    0.619081
     83          1           0        5.592368    7.716844   -0.810563
     84          1           0        6.021813    8.362234    0.772875
     85          1           0       10.469585    2.449875    1.370581
     86          1           0       11.120395   -0.184439    0.160974
     87          1           0       11.667513    3.336832   -0.357412
     88          1           0       10.469529    2.932316   -1.485107
     89          1           0       11.871731    1.750978   -1.110577
     90          1           0        9.685183    0.103274    2.821205
     91          1           0       11.315458    0.751243    2.571061
     92          1           0       10.336617   -2.062439    2.862003
     93          1           0       11.927800   -1.359819    3.187159
     94          1           0       11.461047   -1.891954    1.556579
     95          1           0        9.125707   -4.492360   -0.252484
     96          1           0        7.822963   -5.417960    0.812602
     97          1           0        8.989294   -4.209778    1.438396
     98          1           0        3.149038   -4.071369   -1.294724
     99          1           0        0.115202   -4.302855    1.713248
    100          1           0        0.340062   -6.070018    1.237833
    101          1           0       -0.459189   -4.883904    0.185845
    102          1           0       -4.529388   -2.057764    1.463893
    103          1           0       -4.194684   -3.257871    0.349539
    104          1           0       -4.489584   -0.674778   -1.069321
    105          1           0       -6.197810   -3.806234    0.233583
    106          1           0       -7.468363   -3.659842   -0.977000
    107          1           0       -7.415263   -2.700236    0.673239
    108          1           0       -6.881004   -1.981651   -2.841402
    109          1           0       -6.352427   -0.413651   -2.368305
    110          1           0       -8.771012   -1.362668   -0.719720
    111          1           0       -8.935800   -1.671881   -2.404469
    112          1           0       -9.608339    0.537605   -2.664838
    113          1           0       -7.924033    0.947162   -2.373327
    114          1           0       -9.112591    2.193950   -0.947972
    115          1           0       -6.980472    0.468079    0.455975
    116          1           0       -7.564907    2.046153    0.930875
    117          1           0       -6.838954    1.688745   -0.685908
    118          1           0       -9.608822    0.105682    1.212914
    119          1           0      -10.699722    0.071408   -0.248457
    120          1           0      -11.722165    1.759903    0.427405
    121          1           0      -10.310178    2.734804    0.755333
    122          1           0      -10.585066    2.434667    3.078832
    123          1           0      -10.965004    0.751415    2.988359
    124          1           0      -13.039512    2.649517    1.841541
    125          1           0      -12.109826    2.847537    4.611512
    126          1           0      -13.875282    2.451905    4.511539
    127          1           0      -13.089289    3.767819    3.618485
    128          1           0      -13.882103    0.547818    3.505313
    129          1           0      -12.895708   -0.272991    2.407318
    130          1           0      -14.979049    1.724158    1.377678
    131          1           0      -15.415400    0.157134    2.019242
    132          1           0      -14.420428   -0.932713    0.220734
    133          1           0      -13.160780    0.164948   -0.057531
    134          1           0      -15.830948    1.375042   -0.649002
    135          1           0      -15.549603   -0.023137   -2.935058
    136          1           0      -16.780214   -0.428283   -1.679212
    137          1           0      -15.189542   -1.272464   -1.854669
    138          1           0      -13.313738    2.171257   -1.362783
    139          1           0      -14.927991    2.675619   -1.864033
    140          1           0      -14.059701    1.445364   -2.788735
 ---------------------------------------------------------------------

 SCF Done:  E(RZINDO/S) =  -474.445586453     A.U. after   19 cycles

 Excitation energies and oscillator strengths:

 Excited State   1:      Singlet-A      1.2372 eV 1002.14 nm  f=0.5771  <S**2>=0.000
     175 ->178         0.19125
     176 ->177         0.66227
 This state for optimization and/or second-order correction.
 Total Energy, E(CIS/TDA) =  -474.400120539
 Copying the excited state density for this state as the 1-particle RhoCI density.

 Excited State   2:      Singlet-A      1.9438 eV  637.84 nm  f=0.0146  <S**2>=0.000
     175 ->177         0.51104
     176 ->178        -0.46601

 Excited State   3:      Singlet-A      2.9575 eV  419.23 nm  f=0.1326  <S**2>=0.000
     175 ->177         0.15257
     176 ->178         0.16974
     176 ->179         0.59048
     176 ->180         0.16116

 Excited State   4:      Singlet-A      3.0112 eV  411.75 nm  f=0.8076  <S**2>=0.000
     167 ->179         0.15993
     168 ->177        -0.11631
     168 ->179         0.18633
     168 ->180        -0.10607
     175 ->177         0.35959
     176 ->178         0.41368
     176 ->179        -0.14621
     176 ->180         0.11789

 Excited State   5:      Singlet-A      3.0248 eV  409.89 nm  f=0.3105  <S**2>=0.000
     167 ->177        -0.13584
     167 ->179         0.23276
     167 ->180        -0.14143
     168 ->177        -0.15931
     168 ->179         0.30828
     168 ->180        -0.17699
     168 ->185         0.12546
     175 ->177        -0.20011
     176 ->178        -0.22940
     176 ->179         0.24959

 The electronic state is 1-A.
 Alpha  occ. eigenvalues --   -1.85735  -1.81596  -1.79308  -1.75249  -1.72801
 Alpha  occ. eigenvalues --   -1.70744  -1.67084  -1.62589  -1.58040  -1.55597
 Alpha  occ. eigenvalues --   -1.54781  -1.51751  -1.49097  -1.48780  -1.48233
 Alpha  occ. eigenvalues --   -1.45138  -1.43302  -1.40411  -1.39700  -1.39382
 Alpha  occ. eigenvalues --   -1.35982  -1.34071  -1.33786  -1.31529  -1.28654
 Alpha  occ. eigenvalues --   -1.27532  -1.25679  -1.22890  -1.20176  -1.17539
 Alpha  occ. eigenvalues --   -1.17263  -1.16761  -1.15712  -1.14829  -1.13104
 Alpha  occ. eigenvalues --   -1.12459  -1.12391  -1.10206  -1.05558  -1.04239
 Alpha  occ. eigenvalues --   -1.03151  -1.01124  -0.99130  -0.98491  -0.97567
 Alpha  occ. eigenvalues --   -0.97047  -0.95026  -0.94022  -0.92510  -0.92079
 Alpha  occ. eigenvalues --   -0.91094  -0.90755  -0.88653  -0.87887  -0.86154
 Alpha  occ. eigenvalues --   -0.85034  -0.83868  -0.82883  -0.80916  -0.80364
 Alpha  occ. eigenvalues --   -0.80047  -0.79381  -0.77880  -0.77072  -0.76511
 Alpha  occ. eigenvalues --   -0.75832  -0.75510  -0.73821  -0.73225  -0.72991
 Alpha  occ. eigenvalues --   -0.72582  -0.72494  -0.72321  -0.71315  -0.70529
 Alpha  occ. eigenvalues --   -0.70502  -0.69602  -0.68793  -0.67936  -0.67584
 Alpha  occ. eigenvalues --   -0.67457  -0.66713  -0.66306  -0.66130  -0.65769
 Alpha  occ. eigenvalues --   -0.65715  -0.65376  -0.64684  -0.64494  -0.63744
 Alpha  occ. eigenvalues --   -0.63561  -0.63342  -0.62835  -0.62556  -0.62045
 Alpha  occ. eigenvalues --   -0.61509  -0.60875  -0.60486  -0.60131  -0.59988
 Alpha  occ. eigenvalues --   -0.59418  -0.59194  -0.58992  -0.58909  -0.58129
 Alpha  occ. eigenvalues --   -0.57672  -0.57501  -0.57280  -0.56597  -0.56325
 Alpha  occ. eigenvalues --   -0.55966  -0.55547  -0.55394  -0.54558  -0.54235
 Alpha  occ. eigenvalues --   -0.53992  -0.53877  -0.53813  -0.53227  -0.52744
 Alpha  occ. eigenvalues --   -0.52482  -0.52322  -0.52117  -0.51769  -0.51441
 Alpha  occ. eigenvalues --   -0.51232  -0.50972  -0.50671  -0.50596  -0.50186
 Alpha  occ. eigenvalues --   -0.50064  -0.49882  -0.49407  -0.49278  -0.49074
 Alpha  occ. eigenvalues --   -0.48784  -0.48403  -0.48265  -0.48009  -0.47542
 Alpha  occ. eigenvalues --   -0.47353  -0.46999  -0.46926  -0.46530  -0.46439
 Alpha  occ. eigenvalues --   -0.46155  -0.45982  -0.45394  -0.45176  -0.44713
 Alpha  occ. eigenvalues --   -0.44640  -0.44536  -0.44255  -0.44111  -0.43822
 Alpha  occ. eigenvalues --   -0.43287  -0.43043  -0.42751  -0.42742  -0.41913
 Alpha  occ. eigenvalues --   -0.41535  -0.40972  -0.40633  -0.39126  -0.38876
 Alpha  occ. eigenvalues --   -0.37658  -0.36741  -0.36269  -0.34991  -0.34653
 Alpha  occ. eigenvalues --   -0.33424  -0.32735  -0.32364  -0.32037  -0.26844
 Alpha  occ. eigenvalues --   -0.21531
 Alpha virt. eigenvalues --   -0.08308  -0.02238  -0.00665   0.01295   0.02012
 Alpha virt. eigenvalues --    0.02861   0.03606   0.03802   0.04693   0.04972
 Alpha virt. eigenvalues --    0.06011   0.06170   0.06872   0.07507   0.08123

 Mulliken charges:
               1
     1  Mg   0.420499
     2  C   -0.027044
     3  C   -0.097354
     4  C   -0.050897
     5  C   -0.063267
     6  N   -0.298564
     7  C    0.094503
     8  C    0.021580
     9  C    0.004505
    10  C    0.149674
    11  C   -0.053453
    12  C   -0.037462
    13  C   -0.009718
    14  C    0.481127
    15  O   -0.514290
    16  O   -0.259225
    17  N   -0.333160
    18  C    0.126994
    19  C    0.004696
    20  C   -0.048876
    21  C    0.148894
    22  C   -0.044369
    23  C    0.335236
    24  O   -0.525140
    25  C   -0.021193
    26  N   -0.257351
    27  C    0.124304
    28  C   -0.003044
    29  C    0.004957
    30  C    0.123054
    31  C   -0.052230
    32  C   -0.021711
    33  C   -0.054999
    34  N   -0.327827
    35  C    0.092715
    36  C    0.027694
    37  C   -0.043981
    38  C    0.100497
    39  C   -0.054592
    40  C    0.335998
    41  O   -0.512112
    42  C    0.058059
    43  C    0.498033
    44  O   -0.521335
    45  O   -0.274695
    46  C    0.073952
    47  C    0.101681
    48  C   -0.082158
    49  C   -0.017266
    50  C   -0.047032
    51  C   -0.028352
    52  C   -0.034692
    53  C   -0.040962
    54  C   -0.008091
    55  C   -0.055826
    56  C   -0.035920
    57  C   -0.050150
    58  C   -0.030069
    59  C   -0.011470
    60  C   -0.068344
    61  C   -0.034134
    62  C   -0.021839
    63  C   -0.032233
    64  C   -0.018763
    65  C   -0.051172
    66  C   -0.061231
    67  H    0.031810
    68  H    0.029400
    69  H    0.028256
    70  H    0.038628
    71  H    0.037307
    72  H    0.028523
    73  H    0.017915
    74  H    0.021713
    75  H    0.031242
    76  H    0.036338
    77  H    0.042935
    78  H    0.023883
    79  H    0.021928
    80  H    0.028983
    81  H    0.027186
    82  H    0.028160
    83  H    0.040291
    84  H    0.046249
    85  H    0.032986
    86  H    0.025405
    87  H    0.017257
    88  H    0.034706
    89  H    0.030815
    90  H    0.027503
    91  H    0.016817
    92  H    0.021039
    93  H    0.015779
    94  H    0.020064
    95  H    0.034622
    96  H    0.043428
    97  H    0.025624
    98  H    0.049059
    99  H    0.051624
   100  H    0.045437
   101  H    0.032362
   102  H    0.035201
   103  H    0.050131
   104  H    0.036091
   105  H    0.013971
   106  H    0.036104
   107  H    0.041271
   108  H    0.019974
   109  H    0.026496
   110  H    0.029191
   111  H    0.008339
   112  H    0.026222
   113  H    0.013018
   114  H    0.012847
   115  H    0.021872
   116  H    0.016978
   117  H    0.011899
   118  H    0.023359
   119  H    0.022024
   120  H    0.015135
   121  H    0.021824
   122  H    0.016474
   123  H    0.022084
   124  H    0.024117
   125  H    0.022245
   126  H    0.025438
   127  H    0.006745
   128  H    0.004021
   129  H    0.024386
   130  H    0.020713
   131  H    0.016427
   132  H    0.008264
   133  H    0.025912
   134  H    0.013828
   135  H    0.014660
   136  H    0.025970
   137  H    0.017735
   138  H    0.023572
   139  H    0.014239
   140  H    0.014890
 Sum of Mulliken charges =  -0.00000

 Dipole moment (field-independent basis, Debye):
    X=             -5.2183    Y=              7.5892    Z=             -3.0417  Tot=              9.6994
 N-N= 4.263863169377D+03 E-N= 0.000000000000D+00  KE=-9.202215509716D+03
 Leave Link  601 at Thu Apr 28 09:27:40 2022, MaxMem=  6710886400 cpu:               3.2 elap:               0.2
 (Enter /sw/apps/gaussian-16.0/g16/l9999.exe)
 1\1\GINC-BP1-COMPUTE155\SP\RZINDO CIS\STO-3G\C55H74Mg1N4O6\OF15641\28-
 Apr-2022\0\\#p ZINDO=(nstates=5)\\step_151_chromophore_1 ZINDO\\0,1\Mg
 ,0,-2.11,17.152,26.999\C,0,-1.817,14.861,29.544\C,0,-2.304,19.782,29.2
 86\C,0,-2.191,19.367,24.414\C,0,-2.144,14.616,24.639\N,0,-2.197,17.28,
 29.19\C,0,-1.98,16.164,30.04\C,0,-2.353,16.683,31.431\C,0,-2.336,18.25
 2,31.364\C,0,-2.267,18.464,29.876\C,0,-3.569,19.018,31.966\C,0,-1.469,
 16.117,32.597\C,0,-1.041,17.035,33.831\C,0,-0.772,16.407,35.192\O,0,-1

 Normal termination of Gaussian 16 at Thu Apr 28 09:27:40 2022.
