 Gaussian 16, Revision A.03,
 Gaussian 16:  ES64L-G16RevA.03 25-Dec-2016

 ------------------------------
 #p blyp/Def2SVP td=(nstates=5)
 ------------------------------

 --------------------------------------------------
 step_1151_chromophore_6 TDDFT with blyp functional
 --------------------------------------------------
 Symbolic Z-matrix:
 Charge =  0 Multiplicity = 1

                         Standard orientation:
 ---------------------------------------------------------------------
 Center     Atomic      Atomic             Coordinates (Angstroms)
 Number     Number       Type             X           Y           Z
 ---------------------------------------------------------------------
      1         12           0       -5.511579    0.899214   -0.206536
      2          6           0       -4.375521   -2.339249    0.096166
      3          6           0       -2.276503    2.057352   -0.290155
      4          6           0       -6.654984    4.117038   -0.262115
      5          6           0       -8.699571   -0.222449    0.420830
      6          7           0       -3.567270   -0.020063    0.091983
      7          6           0       -3.324916   -1.367198    0.039025
      8          6           0       -1.822139   -1.603324   -0.077040
      9          6           0       -1.194093   -0.190264    0.142103
     10          6           0       -2.427409    0.671514   -0.064247
     11          6           0       -0.518778    0.016386    1.587963
     12          6           0       -1.337523   -2.258798   -1.438654
     13          6           0       -0.462574   -3.520368   -1.262125
     14          6           0        0.690810   -3.474892   -0.299733
     15          8           0        0.884068   -4.195417    0.655532
     16          8           0        1.506221   -2.494906   -0.738998
     17          7           0       -4.630235    2.762590   -0.480758
     18          6           0       -3.272879    3.015482   -0.492325
     19          6           0       -3.044508    4.382109   -0.792334
     20          6           0       -4.286493    5.119466   -0.681178
     21          6           0       -5.288110    3.987588   -0.575194
     22          6           0       -1.663665    4.845737   -1.082599
     23          6           0       -4.561906    6.500484   -0.622468
     24          8           0       -5.751062    6.902385   -0.591137
     25          6           0       -3.359380    7.502931   -0.591249
     26          7           0       -7.338791    1.812726    0.261697
     27          6           0       -7.548917    3.159358    0.219466
     28          6           0       -8.961621    3.541265    0.652473
     29          6           0       -9.692402    2.170713    0.474801
     30          6           0       -8.528976    1.200937    0.379142
     31          6           0       -9.150391    4.143895    2.031226
     32          6           0      -10.724111    2.085537   -0.655451
     33          6           0      -12.024867    2.807155   -0.331417
     34          7           0       -6.425208   -0.875781    0.086648
     35          6           0       -7.726653   -1.154169    0.327912
     36          6           0       -7.912557   -2.612510    0.301676
     37          6           0       -6.584422   -3.154653    0.193548
     38          6           0       -5.739841   -2.042162    0.118960
     39          6           0       -9.159908   -3.399008    0.390603
     40          6           0       -5.791318   -4.371685    0.155241
     41          8           0       -6.162536   -5.560735    0.095512
     42          6           0       -4.299276   -3.891517    0.072830
     43          6           0       -3.611381   -4.443191    1.299729
     44          8           0       -3.601101   -3.933196    2.412821
     45          8           0       -2.982061   -5.670204    0.985828
     46          6           0       -2.289570   -6.294139    2.121693
     47          6           0        2.615901   -2.156821    0.167864
     48          6           0        3.886837   -2.248277   -0.643811
     49          6           0        4.546593   -3.365782   -0.959856
     50          6           0        4.323763   -4.773131   -0.358038
     51          6           0        5.637131   -3.300455   -2.096809
     52          6           0        7.075198   -3.459580   -1.559905
     53          6           0        8.124731   -2.464538   -2.152254
     54          6           0        7.907887   -1.078655   -1.580093
     55          6           0        8.005544    0.042180   -2.548548
     56          6           0        8.877047   -0.856635   -0.372046
     57          6           0       10.325909   -0.619606   -0.934649
     58          6           0       10.904546    0.743814   -0.576494
     59          6           0       12.109710    0.718428    0.417671
     60          6           0       11.677310    1.242894    1.731159
     61          6           0       13.239725    1.617395   -0.268573
     62          6           0       14.539331    1.472193    0.453651
     63          6           0       15.554448    2.653392    0.389586
     64          6           0       16.275173    2.836307    1.733813
     65          6           0       17.607645    3.666528    1.451286
     66          6           0       15.323235    3.611118    2.682132
     67          1           0       -1.235890    2.361511   -0.413332
     68          1           0       -7.119491    5.105091   -0.277641
     69          1           0       -9.698714   -0.641012    0.555712
     70          1           0       -1.472755   -2.232832    0.741613
     71          1           0       -0.538674    0.123457   -0.671059
     72          1           0        0.230984    0.797353    1.464641
     73          1           0       -0.137899   -0.948804    1.923517
     74          1           0       -1.256523    0.383163    2.301473
     75          1           0       -0.924711   -1.573274   -2.178973
     76          1           0       -2.314653   -2.493518   -1.859854
     77          1           0       -0.120716   -3.687292   -2.283858
     78          1           0       -1.065413   -4.285530   -0.773455
     79          1           0       -1.776115    5.716620   -1.728284
     80          1           0       -1.042188    4.191843   -1.694234
     81          1           0       -1.264948    5.227006   -0.142386
     82          1           0       -3.043022    7.775307   -1.598201
     83          1           0       -2.561398    7.055817    0.001497
     84          1           0       -3.557643    8.462044   -0.114753
     85          1           0       -9.349337    4.186007   -0.135642
     86          1           0      -10.325520    1.966258    1.338007
     87          1           0       -9.797599    3.516929    2.643969
     88          1           0       -9.582081    5.117548    1.801127
     89          1           0       -8.166425    4.253675    2.487443
     90          1           0      -10.996786    1.060445   -0.903084
     91          1           0      -10.218684    2.477158   -1.539348
     92          1           0      -12.051449    3.608189   -1.070573
     93          1           0      -11.945379    3.211502    0.677816
     94          1           0      -12.897956    2.162912   -0.435257
     95          1           0       -9.368469   -3.896894   -0.556467
     96          1           0       -9.919686   -2.643841    0.594649
     97          1           0       -9.133277   -4.019262    1.286611
     98          1           0       -3.872374   -4.301922   -0.841922
     99          1           0       -2.579783   -7.344126    2.157571
    100          1           0       -2.329361   -5.898738    3.135971
    101          1           0       -1.217828   -6.398410    1.953331
    102          1           0        2.750980   -2.813226    1.028399
    103          1           0        2.548789   -1.140548    0.553574
    104          1           0        3.998230   -1.237766   -1.036591
    105          1           0        4.135650   -5.521438   -1.127409
    106          1           0        3.463024   -4.742884    0.309200
    107          1           0        5.263794   -4.948663    0.164758
    108          1           0        5.574968   -2.361859   -2.647562
    109          1           0        5.424955   -4.170834   -2.717572
    110          1           0        7.449460   -4.441079   -1.852520
    111          1           0        7.136381   -3.451134   -0.471680
    112          1           0        8.093880   -2.513677   -3.240921
    113          1           0        9.055833   -2.925475   -1.822380
    114          1           0        6.891215   -0.968337   -1.202655
    115          1           0        8.171538   -0.245516   -3.587585
    116          1           0        8.690388    0.813843   -2.196687
    117          1           0        7.074315    0.606503   -2.585702
    118          1           0        8.738731   -1.668542    0.342118
    119          1           0        8.512897    0.007263    0.183782
    120          1           0       10.379050   -0.717762   -2.018360
    121          1           0       10.934795   -1.383404   -0.452786
    122          1           0       10.122283    1.341753   -0.109557
    123          1           0       11.220763    1.187827   -1.521263
    124          1           0       12.514124   -0.281146    0.574170
    125          1           0       11.701079    2.330324    1.674627
    126          1           0       12.405531    0.902850    2.466965
    127          1           0       10.688560    0.912546    2.050940
    128          1           0       12.978447    2.672622   -0.341604
    129          1           0       13.457978    1.298953   -1.289123
    130          1           0       15.010815    0.605820   -0.010879
    131          1           0       14.468096    1.291968    1.526300
    132          1           0       15.102226    3.589322    0.060288
    133          1           0       16.305203    2.397237   -0.357502
    134          1           0       16.646793    1.902214    2.154943
    135          1           0       17.374755    4.431562    0.710858
    136          1           0       18.359261    2.959051    1.101772
    137          1           0       17.839158    4.111703    2.419012
    138          1           0       15.768110    4.591193    2.854468
    139          1           0       15.214233    3.058049    3.614959
    140          1           0       14.318834    3.599191    2.258399
 ---------------------------------------------------------------------

 SCF Done:  E(RB-LYP) =  -3007.39591414     A.U. after   22 cycles

 Excitation energies and oscillator strengths:

 Excited State   1:      Singlet-A      1.7466 eV  709.85 nm  f=0.2867  <S**2>=0.000
     245 -> 248        0.17269
     246 -> 247        0.68595
     246 <- 247       -0.15426
 This state for optimization and/or second-order correction.
 Total Energy, E(TD-HF/TD-DFT) =  -3007.33172678
 Copying the excited state density for this state as the 1-particle RhoCI density.

 Excited State   2:      Singlet-A      1.7847 eV  694.71 nm  f=0.0126  <S**2>=0.000
     244 -> 247        0.65956
     245 -> 247        0.23528

 Excited State   3:      Singlet-A      1.9806 eV  626.00 nm  f=0.0522  <S**2>=0.000
     243 -> 247        0.21066
     244 -> 247       -0.22382
     245 -> 247        0.57376
     246 -> 248       -0.22318
     246 -> 249        0.11797

 Excited State   4:      Singlet-A      2.0442 eV  606.52 nm  f=0.0050  <S**2>=0.000
     243 -> 247        0.67380
     245 -> 247       -0.17258

 Excited State   5:      Singlet-A      2.5082 eV  494.31 nm  f=0.0000  <S**2>=0.000
     240 -> 247        0.67836
     242 -> 247        0.19195

 The electronic state is 1-A.
 Alpha  occ. eigenvalues --  -46.26068 -18.82791 -18.81885 -18.77759 -18.76911
 Alpha  occ. eigenvalues --  -18.75955 -18.74650 -14.03450 -14.03190 -14.01278
 Alpha  occ. eigenvalues --  -14.00616 -10.04383 -10.04023 -10.00121  -9.99172
 Alpha  occ. eigenvalues --   -9.97419  -9.97237  -9.96743  -9.96249  -9.96215
 Alpha  occ. eigenvalues --   -9.96153  -9.95949  -9.95280  -9.95091  -9.94764
 Alpha  occ. eigenvalues --   -9.94584  -9.94072  -9.94064  -9.93921  -9.93839
 Alpha  occ. eigenvalues --   -9.93795  -9.93747  -9.93672  -9.93518  -9.93228
 Alpha  occ. eigenvalues --   -9.93212  -9.92927  -9.92917  -9.92761  -9.92669
 Alpha  occ. eigenvalues --   -9.92511  -9.92484  -9.92431  -9.92388  -9.92301
 Alpha  occ. eigenvalues --   -9.92103  -9.91962  -9.91961  -9.91785  -9.91748
 Alpha  occ. eigenvalues --   -9.91716  -9.91627  -9.91491  -9.91289  -9.91283
 Alpha  occ. eigenvalues --   -9.91269  -9.91243  -9.91013  -9.90976  -9.90842
 Alpha  occ. eigenvalues --   -9.90821  -9.90671  -9.90634  -9.90465  -9.90421
 Alpha  occ. eigenvalues --   -9.90405  -2.90955  -1.71370  -1.70832  -1.70680
 Alpha  occ. eigenvalues --   -0.99151  -0.96248  -0.91194  -0.90184  -0.89316
 Alpha  occ. eigenvalues --   -0.89200  -0.87209  -0.86631  -0.86056  -0.84432
 Alpha  occ. eigenvalues --   -0.75679  -0.73951  -0.73269  -0.72962  -0.72833
 Alpha  occ. eigenvalues --   -0.72086  -0.72030  -0.71104  -0.70904  -0.70767
 Alpha  occ. eigenvalues --   -0.70145  -0.69325  -0.68091  -0.68021  -0.67243
 Alpha  occ. eigenvalues --   -0.66547  -0.65891  -0.65117  -0.64761  -0.64296
 Alpha  occ. eigenvalues --   -0.64110  -0.62707  -0.62364  -0.62003  -0.60696
 Alpha  occ. eigenvalues --   -0.60585  -0.60140  -0.59849  -0.59757  -0.58974
 Alpha  occ. eigenvalues --   -0.58341  -0.57324  -0.57164  -0.56122  -0.54565
 Alpha  occ. eigenvalues --   -0.54307  -0.53882  -0.53407  -0.52217  -0.51906
 Alpha  occ. eigenvalues --   -0.51426  -0.50666  -0.50534  -0.50310  -0.50140
 Alpha  occ. eigenvalues --   -0.49664  -0.48396  -0.48232  -0.47747  -0.46649
 Alpha  occ. eigenvalues --   -0.46553  -0.46292  -0.45823  -0.45352  -0.44795
 Alpha  occ. eigenvalues --   -0.44461  -0.43847  -0.43058  -0.42791  -0.42474
 Alpha  occ. eigenvalues --   -0.42128  -0.41912  -0.41646  -0.41448  -0.41219
 Alpha  occ. eigenvalues --   -0.40731  -0.40632  -0.40366  -0.40131  -0.40007
 Alpha  occ. eigenvalues --   -0.39840  -0.39687  -0.39670  -0.39406  -0.39342
 Alpha  occ. eigenvalues --   -0.39139  -0.38921  -0.38767  -0.38630  -0.38360
 Alpha  occ. eigenvalues --   -0.38176  -0.38088  -0.37900  -0.37664  -0.37568
 Alpha  occ. eigenvalues --   -0.37420  -0.37208  -0.36977  -0.36828  -0.36776
 Alpha  occ. eigenvalues --   -0.36299  -0.36004  -0.35788  -0.35735  -0.35361
 Alpha  occ. eigenvalues --   -0.35328  -0.35147  -0.34993  -0.34931  -0.34641
 Alpha  occ. eigenvalues --   -0.34523  -0.34092  -0.34026  -0.33840  -0.33739
 Alpha  occ. eigenvalues --   -0.33656  -0.33338  -0.33296  -0.33272  -0.33246
 Alpha  occ. eigenvalues --   -0.33135  -0.32898  -0.32644  -0.32393  -0.32294
 Alpha  occ. eigenvalues --   -0.32129  -0.31750  -0.31588  -0.31512  -0.31418
 Alpha  occ. eigenvalues --   -0.31233  -0.31152  -0.30960  -0.30884  -0.30755
 Alpha  occ. eigenvalues --   -0.30592  -0.30217  -0.29946  -0.29891  -0.29817
 Alpha  occ. eigenvalues --   -0.29735  -0.29515  -0.29408  -0.29221  -0.29175
 Alpha  occ. eigenvalues --   -0.28843  -0.28281  -0.28237  -0.27935  -0.27713
 Alpha  occ. eigenvalues --   -0.27656  -0.27559  -0.27314  -0.26960  -0.26453
 Alpha  occ. eigenvalues --   -0.26442  -0.26409  -0.26195  -0.25848  -0.25432
 Alpha  occ. eigenvalues --   -0.25180  -0.24971  -0.24135  -0.24095  -0.23856
 Alpha  occ. eigenvalues --   -0.23217  -0.22786  -0.22136  -0.21830  -0.20855
 Alpha  occ. eigenvalues --   -0.20561  -0.20301  -0.19011  -0.18106  -0.17464
 Alpha  occ. eigenvalues --   -0.15695
 Alpha virt. eigenvalues --   -0.11633  -0.07511  -0.06835  -0.05078  -0.03459
 Alpha virt. eigenvalues --   -0.02596  -0.02310  -0.01957  -0.01779   0.00407
 Alpha virt. eigenvalues --    0.01273   0.01689   0.02379   0.02785   0.02968

 Mulliken charges:
               1
     1  Mg   0.717109
     2  C    0.013705
     3  C   -0.080521
     4  C   -0.039489
     5  C   -0.130997
     6  N   -0.206969
     7  C   -0.046934
     8  C   -0.029180
     9  C   -0.012987
    10  C   -0.005677
    11  C    0.126561
    12  C    0.127472
    13  C    0.149537
    14  C    0.059842
    15  O   -0.173949
    16  O   -0.259371
    17  N   -0.297717
    18  C    0.170656
    19  C   -0.167246
    20  C    0.075627
    21  C    0.119362
    22  C    0.193904
    23  C   -0.096588
    24  O   -0.199321
    25  C    0.102598
    26  N   -0.210769
    27  C    0.008326
    28  C   -0.000909
    29  C   -0.005905
    30  C    0.061455
    31  C    0.179354
    32  C    0.058663
    33  C    0.089676
    34  N   -0.269670
    35  C    0.174766
    36  C   -0.217933
    37  C    0.112801
    38  C    0.083716
    39  C    0.208308
    40  C   -0.068132
    41  O   -0.148465
    42  C    0.054659
    43  C    0.140057
    44  O   -0.173323
    45  O   -0.283130
    46  C    0.210486
    47  C    0.287210
    48  C   -0.125232
    49  C   -0.127966
    50  C    0.137096
    51  C    0.161285
    52  C    0.027291
    53  C    0.128283
    54  C   -0.079468
    55  C    0.131653
    56  C    0.081688
    57  C    0.066364
    58  C    0.122912
    59  C   -0.079519
    60  C    0.122665
    61  C    0.090586
    62  C    0.066962
    63  C    0.099386
    64  C   -0.144999
    65  C    0.098108
    66  C    0.123247
    67  H   -0.068235
    68  H   -0.041064
    69  H   -0.064819
    70  H   -0.008098
    71  H   -0.028251
    72  H   -0.003861
    73  H    0.014205
    74  H    0.002833
    75  H   -0.016845
    76  H   -0.030293
    77  H    0.006315
    78  H   -0.002764
    79  H   -0.018128
    80  H    0.003642
    81  H    0.013522
    82  H    0.019268
    83  H   -0.010879
    84  H   -0.013456
    85  H   -0.026792
    86  H   -0.041263
    87  H   -0.005169
    88  H    0.002293
    89  H   -0.003237
    90  H   -0.028454
    91  H   -0.025559
    92  H   -0.002864
    93  H   -0.009034
    94  H   -0.000918
    95  H    0.023654
    96  H   -0.043758
    97  H    0.016774
    98  H    0.009303
    99  H    0.002578
   100  H    0.023057
   101  H    0.006149
   102  H    0.004733
   103  H   -0.017510
   104  H   -0.038963
   105  H    0.003108
   106  H    0.006730
   107  H    0.006484
   108  H   -0.023305
   109  H   -0.028887
   110  H   -0.041641
   111  H   -0.018846
   112  H   -0.038838
   113  H   -0.030411
   114  H   -0.038310
   115  H   -0.022500
   116  H   -0.023182
   117  H   -0.038291
   118  H   -0.041290
   119  H   -0.040889
   120  H   -0.014558
   121  H   -0.030659
   122  H   -0.035129
   123  H   -0.036624
   124  H   -0.038189
   125  H   -0.014985
   126  H   -0.018001
   127  H   -0.013553
   128  H   -0.034271
   129  H   -0.034526
   130  H   -0.034991
   131  H   -0.033501
   132  H   -0.034063
   133  H   -0.048568
   134  H   -0.030114
   135  H   -0.011245
   136  H   -0.007228
   137  H   -0.017980
   138  H   -0.011642
   139  H   -0.019188
   140  H   -0.010039
 Sum of Mulliken charges =  -0.00000

 Dipole moment (field-independent basis, Debye):
    X=              3.0727    Y=              1.8568    Z=             -1.9694  Tot=              4.0948
 Quadrupole moment (field-independent basis, Debye-Ang):
   XX=           -379.6896   YY=           -444.5637   ZZ=           -404.6019
   XY=            -15.6102   XZ=              1.4449   YZ=              6.2742

 Normal termination of Gaussian 16 at Wed May  4 01:41:35 2022.
