 Gaussian 16, Revision A.03,
 Gaussian 16:  ES64L-G16RevA.03 25-Dec-2016

 -----------------------------------
 #p cam-b3lyp/Def2SVP td=(nstates=5)
 -----------------------------------

 -------------------------------------------------------
 step_1151_chromophore_6 TDDFT with cam-b3lyp functional
 -------------------------------------------------------
 Symbolic Z-matrix:
 Charge =  0 Multiplicity = 1

                         Standard orientation:
 ---------------------------------------------------------------------
 Center     Atomic      Atomic             Coordinates (Angstroms)
 Number     Number       Type             X           Y           Z
 ---------------------------------------------------------------------
      1         12           0       -5.511579    0.899214   -0.206536
      2          6           0       -4.375521   -2.339249    0.096166
      3          6           0       -2.276503    2.057352   -0.290155
      4          6           0       -6.654984    4.117038   -0.262115
      5          6           0       -8.699571   -0.222449    0.420830
      6          7           0       -3.567270   -0.020063    0.091983
      7          6           0       -3.324916   -1.367198    0.039025
      8          6           0       -1.822139   -1.603324   -0.077040
      9          6           0       -1.194093   -0.190264    0.142103
     10          6           0       -2.427409    0.671514   -0.064247
     11          6           0       -0.518778    0.016386    1.587963
     12          6           0       -1.337523   -2.258798   -1.438654
     13          6           0       -0.462574   -3.520368   -1.262125
     14          6           0        0.690810   -3.474892   -0.299733
     15          8           0        0.884068   -4.195417    0.655532
     16          8           0        1.506221   -2.494906   -0.738998
     17          7           0       -4.630235    2.762590   -0.480758
     18          6           0       -3.272879    3.015482   -0.492325
     19          6           0       -3.044508    4.382109   -0.792334
     20          6           0       -4.286493    5.119466   -0.681178
     21          6           0       -5.288110    3.987588   -0.575194
     22          6           0       -1.663665    4.845737   -1.082599
     23          6           0       -4.561906    6.500484   -0.622468
     24          8           0       -5.751062    6.902385   -0.591137
     25          6           0       -3.359380    7.502931   -0.591249
     26          7           0       -7.338791    1.812726    0.261697
     27          6           0       -7.548917    3.159358    0.219466
     28          6           0       -8.961621    3.541265    0.652473
     29          6           0       -9.692402    2.170713    0.474801
     30          6           0       -8.528976    1.200937    0.379142
     31          6           0       -9.150391    4.143895    2.031226
     32          6           0      -10.724111    2.085537   -0.655451
     33          6           0      -12.024867    2.807155   -0.331417
     34          7           0       -6.425208   -0.875781    0.086648
     35          6           0       -7.726653   -1.154169    0.327912
     36          6           0       -7.912557   -2.612510    0.301676
     37          6           0       -6.584422   -3.154653    0.193548
     38          6           0       -5.739841   -2.042162    0.118960
     39          6           0       -9.159908   -3.399008    0.390603
     40          6           0       -5.791318   -4.371685    0.155241
     41          8           0       -6.162536   -5.560735    0.095512
     42          6           0       -4.299276   -3.891517    0.072830
     43          6           0       -3.611381   -4.443191    1.299729
     44          8           0       -3.601101   -3.933196    2.412821
     45          8           0       -2.982061   -5.670204    0.985828
     46          6           0       -2.289570   -6.294139    2.121693
     47          6           0        2.615901   -2.156821    0.167864
     48          6           0        3.886837   -2.248277   -0.643811
     49          6           0        4.546593   -3.365782   -0.959856
     50          6           0        4.323763   -4.773131   -0.358038
     51          6           0        5.637131   -3.300455   -2.096809
     52          6           0        7.075198   -3.459580   -1.559905
     53          6           0        8.124731   -2.464538   -2.152254
     54          6           0        7.907887   -1.078655   -1.580093
     55          6           0        8.005544    0.042180   -2.548548
     56          6           0        8.877047   -0.856635   -0.372046
     57          6           0       10.325909   -0.619606   -0.934649
     58          6           0       10.904546    0.743814   -0.576494
     59          6           0       12.109710    0.718428    0.417671
     60          6           0       11.677310    1.242894    1.731159
     61          6           0       13.239725    1.617395   -0.268573
     62          6           0       14.539331    1.472193    0.453651
     63          6           0       15.554448    2.653392    0.389586
     64          6           0       16.275173    2.836307    1.733813
     65          6           0       17.607645    3.666528    1.451286
     66          6           0       15.323235    3.611118    2.682132
     67          1           0       -1.235890    2.361511   -0.413332
     68          1           0       -7.119491    5.105091   -0.277641
     69          1           0       -9.698714   -0.641012    0.555712
     70          1           0       -1.472755   -2.232832    0.741613
     71          1           0       -0.538674    0.123457   -0.671059
     72          1           0        0.230984    0.797353    1.464641
     73          1           0       -0.137899   -0.948804    1.923517
     74          1           0       -1.256523    0.383163    2.301473
     75          1           0       -0.924711   -1.573274   -2.178973
     76          1           0       -2.314653   -2.493518   -1.859854
     77          1           0       -0.120716   -3.687292   -2.283858
     78          1           0       -1.065413   -4.285530   -0.773455
     79          1           0       -1.776115    5.716620   -1.728284
     80          1           0       -1.042188    4.191843   -1.694234
     81          1           0       -1.264948    5.227006   -0.142386
     82          1           0       -3.043022    7.775307   -1.598201
     83          1           0       -2.561398    7.055817    0.001497
     84          1           0       -3.557643    8.462044   -0.114753
     85          1           0       -9.349337    4.186007   -0.135642
     86          1           0      -10.325520    1.966258    1.338007
     87          1           0       -9.797599    3.516929    2.643969
     88          1           0       -9.582081    5.117548    1.801127
     89          1           0       -8.166425    4.253675    2.487443
     90          1           0      -10.996786    1.060445   -0.903084
     91          1           0      -10.218684    2.477158   -1.539348
     92          1           0      -12.051449    3.608189   -1.070573
     93          1           0      -11.945379    3.211502    0.677816
     94          1           0      -12.897956    2.162912   -0.435257
     95          1           0       -9.368469   -3.896894   -0.556467
     96          1           0       -9.919686   -2.643841    0.594649
     97          1           0       -9.133277   -4.019262    1.286611
     98          1           0       -3.872374   -4.301922   -0.841922
     99          1           0       -2.579783   -7.344126    2.157571
    100          1           0       -2.329361   -5.898738    3.135971
    101          1           0       -1.217828   -6.398410    1.953331
    102          1           0        2.750980   -2.813226    1.028399
    103          1           0        2.548789   -1.140548    0.553574
    104          1           0        3.998230   -1.237766   -1.036591
    105          1           0        4.135650   -5.521438   -1.127409
    106          1           0        3.463024   -4.742884    0.309200
    107          1           0        5.263794   -4.948663    0.164758
    108          1           0        5.574968   -2.361859   -2.647562
    109          1           0        5.424955   -4.170834   -2.717572
    110          1           0        7.449460   -4.441079   -1.852520
    111          1           0        7.136381   -3.451134   -0.471680
    112          1           0        8.093880   -2.513677   -3.240921
    113          1           0        9.055833   -2.925475   -1.822380
    114          1           0        6.891215   -0.968337   -1.202655
    115          1           0        8.171538   -0.245516   -3.587585
    116          1           0        8.690388    0.813843   -2.196687
    117          1           0        7.074315    0.606503   -2.585702
    118          1           0        8.738731   -1.668542    0.342118
    119          1           0        8.512897    0.007263    0.183782
    120          1           0       10.379050   -0.717762   -2.018360
    121          1           0       10.934795   -1.383404   -0.452786
    122          1           0       10.122283    1.341753   -0.109557
    123          1           0       11.220763    1.187827   -1.521263
    124          1           0       12.514124   -0.281146    0.574170
    125          1           0       11.701079    2.330324    1.674627
    126          1           0       12.405531    0.902850    2.466965
    127          1           0       10.688560    0.912546    2.050940
    128          1           0       12.978447    2.672622   -0.341604
    129          1           0       13.457978    1.298953   -1.289123
    130          1           0       15.010815    0.605820   -0.010879
    131          1           0       14.468096    1.291968    1.526300
    132          1           0       15.102226    3.589322    0.060288
    133          1           0       16.305203    2.397237   -0.357502
    134          1           0       16.646793    1.902214    2.154943
    135          1           0       17.374755    4.431562    0.710858
    136          1           0       18.359261    2.959051    1.101772
    137          1           0       17.839158    4.111703    2.419012
    138          1           0       15.768110    4.591193    2.854468
    139          1           0       15.214233    3.058049    3.614959
    140          1           0       14.318834    3.599191    2.258399
 ---------------------------------------------------------------------

 SCF Done:  E(RCAM-B3LYP) =  -3007.19481694     A.U. after   19 cycles

 Excitation energies and oscillator strengths:

 Excited State   1:      Singlet-A      1.6578 eV  747.87 nm  f=0.3794  <S**2>=0.000
     245 -> 248        0.17916
     246 -> 247        0.68419
     245 <- 248        0.10712
 This state for optimization and/or second-order correction.
 Total Energy, E(TD-HF/TD-DFT) =  -3007.13389256
 Copying the excited state density for this state as the 1-particle RhoCI density.

 Excited State   2:      Singlet-A      2.2268 eV  556.78 nm  f=0.0662  <S**2>=0.000
     245 -> 247        0.61410
     246 -> 248       -0.33238

 Excited State   3:      Singlet-A      3.3211 eV  373.33 nm  f=0.4093  <S**2>=0.000
     244 -> 247        0.30840
     245 -> 247        0.26797
     246 -> 248        0.55640

 Excited State   4:      Singlet-A      3.3459 eV  370.56 nm  f=0.0666  <S**2>=0.000
     240 -> 247        0.12623
     242 -> 247        0.41889
     242 -> 248        0.19645
     242 -> 249        0.24516
     242 -> 250        0.20910
     244 -> 247       -0.29786
     246 -> 248        0.16059

 Excited State   5:      Singlet-A      3.4217 eV  362.34 nm  f=0.0374  <S**2>=0.000
     242 -> 247       -0.23444
     242 -> 249       -0.10539
     243 -> 247        0.43711
     244 -> 247       -0.42274
     246 -> 248        0.11588

 The electronic state is 1-A.
 Alpha  occ. eigenvalues --  -46.87521 -19.25687 -19.24897 -19.20736 -19.20218
 Alpha  occ. eigenvalues --  -19.19390 -19.17683 -14.42311 -14.42092 -14.39675
 Alpha  occ. eigenvalues --  -14.39043 -10.39745 -10.39628 -10.35735 -10.34329
 Alpha  occ. eigenvalues --  -10.31928 -10.31565 -10.31301 -10.30492 -10.30459
 Alpha  occ. eigenvalues --  -10.30221 -10.30217 -10.29667 -10.29342 -10.29129
 Alpha  occ. eigenvalues --  -10.29074 -10.28732 -10.28410 -10.28213 -10.28164
 Alpha  occ. eigenvalues --  -10.27881 -10.27787 -10.27763 -10.27452 -10.27115
 Alpha  occ. eigenvalues --  -10.27029 -10.26795 -10.26739 -10.26718 -10.26651
 Alpha  occ. eigenvalues --  -10.26608 -10.26258 -10.26194 -10.26114 -10.26093
 Alpha  occ. eigenvalues --  -10.26054 -10.25710 -10.25636 -10.25566 -10.25562
 Alpha  occ. eigenvalues --  -10.25533 -10.25441 -10.25389 -10.25308 -10.24987
 Alpha  occ. eigenvalues --  -10.24945 -10.24925 -10.24670 -10.24659 -10.24484
 Alpha  occ. eigenvalues --  -10.24427 -10.24319 -10.24229 -10.24138 -10.24065
 Alpha  occ. eigenvalues --  -10.23993  -3.16322  -1.91210  -1.90776  -1.90646
 Alpha  occ. eigenvalues --   -1.17657  -1.14896  -1.09088  -1.08746  -1.07498
 Alpha  occ. eigenvalues --   -1.07217  -1.05016  -1.04335  -1.03714  -1.01795
 Alpha  occ. eigenvalues --   -0.92979  -0.90845  -0.90092  -0.89646  -0.89619
 Alpha  occ. eigenvalues --   -0.88806  -0.88720  -0.87729  -0.87508  -0.87380
 Alpha  occ. eigenvalues --   -0.86758  -0.85665  -0.84356  -0.84257  -0.83420
 Alpha  occ. eigenvalues --   -0.82625  -0.81988  -0.81004  -0.80683  -0.80109
 Alpha  occ. eigenvalues --   -0.79978  -0.78472  -0.77981  -0.77527  -0.76098
 Alpha  occ. eigenvalues --   -0.76010  -0.75409  -0.75201  -0.75075  -0.74213
 Alpha  occ. eigenvalues --   -0.73408  -0.72360  -0.72092  -0.70989  -0.69299
 Alpha  occ. eigenvalues --   -0.68913  -0.68518  -0.67895  -0.66517  -0.66099
 Alpha  occ. eigenvalues --   -0.65480  -0.64901  -0.64491  -0.64327  -0.63982
 Alpha  occ. eigenvalues --   -0.63694  -0.62303  -0.62026  -0.61489  -0.60257
 Alpha  occ. eigenvalues --   -0.60115  -0.59978  -0.59180  -0.58887  -0.58349
 Alpha  occ. eigenvalues --   -0.58078  -0.57181  -0.56283  -0.55928  -0.55543
 Alpha  occ. eigenvalues --   -0.55261  -0.54897  -0.54540  -0.54375  -0.54197
 Alpha  occ. eigenvalues --   -0.53849  -0.53675  -0.53136  -0.52937  -0.52862
 Alpha  occ. eigenvalues --   -0.52610  -0.52511  -0.52221  -0.52106  -0.52010
 Alpha  occ. eigenvalues --   -0.51803  -0.51478  -0.51319  -0.51107  -0.50902
 Alpha  occ. eigenvalues --   -0.50585  -0.50396  -0.50349  -0.49929  -0.49896
 Alpha  occ. eigenvalues --   -0.49845  -0.49391  -0.49250  -0.49199  -0.48939
 Alpha  occ. eigenvalues --   -0.48616  -0.48497  -0.48107  -0.48025  -0.47677
 Alpha  occ. eigenvalues --   -0.47361  -0.47170  -0.47060  -0.46899  -0.46734
 Alpha  occ. eigenvalues --   -0.46258  -0.46088  -0.45885  -0.45706  -0.45597
 Alpha  occ. eigenvalues --   -0.45435  -0.45198  -0.45103  -0.44879  -0.44875
 Alpha  occ. eigenvalues --   -0.44781  -0.44731  -0.44241  -0.43995  -0.43926
 Alpha  occ. eigenvalues --   -0.43756  -0.43378  -0.43298  -0.43103  -0.43002
 Alpha  occ. eigenvalues --   -0.42959  -0.42727  -0.42407  -0.42352  -0.42094
 Alpha  occ. eigenvalues --   -0.42067  -0.41907  -0.41422  -0.41316  -0.41238
 Alpha  occ. eigenvalues --   -0.41095  -0.40697  -0.40667  -0.40340  -0.40314
 Alpha  occ. eigenvalues --   -0.39855  -0.39248  -0.39179  -0.38912  -0.38754
 Alpha  occ. eigenvalues --   -0.38586  -0.38444  -0.38385  -0.37754  -0.37730
 Alpha  occ. eigenvalues --   -0.37228  -0.37112  -0.36902  -0.36665  -0.36161
 Alpha  occ. eigenvalues --   -0.36107  -0.35709  -0.35598  -0.35117  -0.34800
 Alpha  occ. eigenvalues --   -0.34514  -0.33549  -0.33046  -0.31333  -0.30973
 Alpha  occ. eigenvalues --   -0.30640  -0.30404  -0.29977  -0.29370  -0.24312
 Alpha  occ. eigenvalues --   -0.20864
 Alpha virt. eigenvalues --   -0.08664  -0.02323  -0.00648   0.01649   0.02853
 Alpha virt. eigenvalues --    0.04174   0.04953   0.05201   0.05665   0.06982
 Alpha virt. eigenvalues --    0.08064   0.08196   0.08908   0.09128   0.09453

 Mulliken charges:
               1
     1  Mg   0.852515
     2  C   -0.018200
     3  C   -0.090621
     4  C   -0.058724
     5  C   -0.133513
     6  N   -0.278215
     7  C   -0.000586
     8  C   -0.083765
     9  C   -0.062815
    10  C    0.012309
    11  C    0.076169
    12  C    0.082096
    13  C    0.077560
    14  C    0.137124
    15  O   -0.217114
    16  O   -0.319816
    17  N   -0.384189
    18  C    0.173774
    19  C   -0.167307
    20  C    0.001150
    21  C    0.150315
    22  C    0.123654
    23  C   -0.023479
    24  O   -0.244566
    25  C    0.028466
    26  N   -0.282678
    27  C    0.025908
    28  C   -0.058151
    29  C   -0.059775
    30  C    0.077456
    31  C    0.118296
    32  C    0.008735
    33  C    0.025458
    34  N   -0.364308
    35  C    0.175749
    36  C   -0.207721
    37  C    0.034584
    38  C    0.118751
    39  C    0.156252
    40  C    0.031854
    41  O   -0.184665
    42  C   -0.015647
    43  C    0.226913
    44  O   -0.208951
    45  O   -0.346877
    46  C    0.171315
    47  C    0.251966
    48  C   -0.145976
    49  C   -0.147760
    50  C    0.080663
    51  C    0.101494
    52  C   -0.021000
    53  C    0.068644
    54  C   -0.138891
    55  C    0.068879
    56  C    0.038660
    57  C    0.003378
    58  C    0.069288
    59  C   -0.134412
    60  C    0.064441
    61  C    0.038278
    62  C    0.014995
    63  C    0.043154
    64  C   -0.203263
    65  C    0.041317
    66  C    0.062534
    67  H   -0.031889
    68  H    0.000726
    69  H   -0.028793
    70  H    0.024024
    71  H    0.005593
    72  H    0.017946
    73  H    0.032579
    74  H    0.028769
    75  H    0.014470
    76  H    0.001094
    77  H    0.040464
    78  H    0.024570
    79  H    0.009826
    80  H    0.032154
    81  H    0.040402
    82  H    0.046905
    83  H    0.016621
    84  H    0.021260
    85  H    0.008572
    86  H   -0.005879
    87  H    0.018350
    88  H    0.025840
    89  H    0.023378
    90  H    0.001014
    91  H    0.002548
    92  H    0.020794
    93  H    0.012889
    94  H    0.023485
    95  H    0.050675
    96  H   -0.018082
    97  H    0.044485
    98  H    0.051371
    99  H    0.025211
   100  H    0.049386
   101  H    0.027888
   102  H    0.036467
   103  H    0.009659
   104  H   -0.006584
   105  H    0.027164
   106  H    0.030330
   107  H    0.028973
   108  H    0.005694
   109  H    0.001492
   110  H   -0.011104
   111  H    0.005434
   112  H   -0.008993
   113  H   -0.000625
   114  H   -0.006621
   115  H    0.003649
   116  H    0.000251
   117  H   -0.011517
   118  H   -0.012266
   119  H   -0.012732
   120  H    0.014116
   121  H   -0.001569
   122  H   -0.007695
   123  H   -0.006498
   124  H   -0.006441
   125  H    0.007602
   126  H    0.005900
   127  H    0.010725
   128  H   -0.007300
   129  H   -0.004846
   130  H   -0.005731
   131  H   -0.008020
   132  H   -0.005609
   133  H   -0.017428
   134  H    0.001588
   135  H    0.011405
   136  H    0.016435
   137  H    0.005862
   138  H    0.013169
   139  H    0.005407
   140  H    0.010507
 Sum of Mulliken charges =  -0.00000

 Dipole moment (field-independent basis, Debye):
    X=              3.2143    Y=              1.9018    Z=             -2.0514  Tot=              4.2611
 Quadrupole moment (field-independent basis, Debye-Ang):
   XX=           -378.0344   YY=           -441.6514   ZZ=           -404.6330
   XY=            -13.6735   XZ=              1.2543   YZ=              5.8716

 Normal termination of Gaussian 16 at Wed May  4 00:39:21 2022.
