 Gaussian 16, Revision A.03,
 Gaussian 16:  ES64L-G16RevA.03 25-Dec-2016

 ---------------------------------
 #p PBE1PBE/Def2SVP td=(nstates=5)
 ---------------------------------

 -----------------------------------------------------
 step_1151_chromophore_6 TDDFT with PBE1PBE functional
 -----------------------------------------------------
 Symbolic Z-matrix:
 Charge =  0 Multiplicity = 1

                         Standard orientation:
 ---------------------------------------------------------------------
 Center     Atomic      Atomic             Coordinates (Angstroms)
 Number     Number       Type             X           Y           Z
 ---------------------------------------------------------------------
      1         12           0       -5.511579    0.899214   -0.206536
      2          6           0       -4.375521   -2.339249    0.096166
      3          6           0       -2.276503    2.057352   -0.290155
      4          6           0       -6.654984    4.117038   -0.262115
      5          6           0       -8.699571   -0.222449    0.420830
      6          7           0       -3.567270   -0.020063    0.091983
      7          6           0       -3.324916   -1.367198    0.039025
      8          6           0       -1.822139   -1.603324   -0.077040
      9          6           0       -1.194093   -0.190264    0.142103
     10          6           0       -2.427409    0.671514   -0.064247
     11          6           0       -0.518778    0.016386    1.587963
     12          6           0       -1.337523   -2.258798   -1.438654
     13          6           0       -0.462574   -3.520368   -1.262125
     14          6           0        0.690810   -3.474892   -0.299733
     15          8           0        0.884068   -4.195417    0.655532
     16          8           0        1.506221   -2.494906   -0.738998
     17          7           0       -4.630235    2.762590   -0.480758
     18          6           0       -3.272879    3.015482   -0.492325
     19          6           0       -3.044508    4.382109   -0.792334
     20          6           0       -4.286493    5.119466   -0.681178
     21          6           0       -5.288110    3.987588   -0.575194
     22          6           0       -1.663665    4.845737   -1.082599
     23          6           0       -4.561906    6.500484   -0.622468
     24          8           0       -5.751062    6.902385   -0.591137
     25          6           0       -3.359380    7.502931   -0.591249
     26          7           0       -7.338791    1.812726    0.261697
     27          6           0       -7.548917    3.159358    0.219466
     28          6           0       -8.961621    3.541265    0.652473
     29          6           0       -9.692402    2.170713    0.474801
     30          6           0       -8.528976    1.200937    0.379142
     31          6           0       -9.150391    4.143895    2.031226
     32          6           0      -10.724111    2.085537   -0.655451
     33          6           0      -12.024867    2.807155   -0.331417
     34          7           0       -6.425208   -0.875781    0.086648
     35          6           0       -7.726653   -1.154169    0.327912
     36          6           0       -7.912557   -2.612510    0.301676
     37          6           0       -6.584422   -3.154653    0.193548
     38          6           0       -5.739841   -2.042162    0.118960
     39          6           0       -9.159908   -3.399008    0.390603
     40          6           0       -5.791318   -4.371685    0.155241
     41          8           0       -6.162536   -5.560735    0.095512
     42          6           0       -4.299276   -3.891517    0.072830
     43          6           0       -3.611381   -4.443191    1.299729
     44          8           0       -3.601101   -3.933196    2.412821
     45          8           0       -2.982061   -5.670204    0.985828
     46          6           0       -2.289570   -6.294139    2.121693
     47          6           0        2.615901   -2.156821    0.167864
     48          6           0        3.886837   -2.248277   -0.643811
     49          6           0        4.546593   -3.365782   -0.959856
     50          6           0        4.323763   -4.773131   -0.358038
     51          6           0        5.637131   -3.300455   -2.096809
     52          6           0        7.075198   -3.459580   -1.559905
     53          6           0        8.124731   -2.464538   -2.152254
     54          6           0        7.907887   -1.078655   -1.580093
     55          6           0        8.005544    0.042180   -2.548548
     56          6           0        8.877047   -0.856635   -0.372046
     57          6           0       10.325909   -0.619606   -0.934649
     58          6           0       10.904546    0.743814   -0.576494
     59          6           0       12.109710    0.718428    0.417671
     60          6           0       11.677310    1.242894    1.731159
     61          6           0       13.239725    1.617395   -0.268573
     62          6           0       14.539331    1.472193    0.453651
     63          6           0       15.554448    2.653392    0.389586
     64          6           0       16.275173    2.836307    1.733813
     65          6           0       17.607645    3.666528    1.451286
     66          6           0       15.323235    3.611118    2.682132
     67          1           0       -1.235890    2.361511   -0.413332
     68          1           0       -7.119491    5.105091   -0.277641
     69          1           0       -9.698714   -0.641012    0.555712
     70          1           0       -1.472755   -2.232832    0.741613
     71          1           0       -0.538674    0.123457   -0.671059
     72          1           0        0.230984    0.797353    1.464641
     73          1           0       -0.137899   -0.948804    1.923517
     74          1           0       -1.256523    0.383163    2.301473
     75          1           0       -0.924711   -1.573274   -2.178973
     76          1           0       -2.314653   -2.493518   -1.859854
     77          1           0       -0.120716   -3.687292   -2.283858
     78          1           0       -1.065413   -4.285530   -0.773455
     79          1           0       -1.776115    5.716620   -1.728284
     80          1           0       -1.042188    4.191843   -1.694234
     81          1           0       -1.264948    5.227006   -0.142386
     82          1           0       -3.043022    7.775307   -1.598201
     83          1           0       -2.561398    7.055817    0.001497
     84          1           0       -3.557643    8.462044   -0.114753
     85          1           0       -9.349337    4.186007   -0.135642
     86          1           0      -10.325520    1.966258    1.338007
     87          1           0       -9.797599    3.516929    2.643969
     88          1           0       -9.582081    5.117548    1.801127
     89          1           0       -8.166425    4.253675    2.487443
     90          1           0      -10.996786    1.060445   -0.903084
     91          1           0      -10.218684    2.477158   -1.539348
     92          1           0      -12.051449    3.608189   -1.070573
     93          1           0      -11.945379    3.211502    0.677816
     94          1           0      -12.897956    2.162912   -0.435257
     95          1           0       -9.368469   -3.896894   -0.556467
     96          1           0       -9.919686   -2.643841    0.594649
     97          1           0       -9.133277   -4.019262    1.286611
     98          1           0       -3.872374   -4.301922   -0.841922
     99          1           0       -2.579783   -7.344126    2.157571
    100          1           0       -2.329361   -5.898738    3.135971
    101          1           0       -1.217828   -6.398410    1.953331
    102          1           0        2.750980   -2.813226    1.028399
    103          1           0        2.548789   -1.140548    0.553574
    104          1           0        3.998230   -1.237766   -1.036591
    105          1           0        4.135650   -5.521438   -1.127409
    106          1           0        3.463024   -4.742884    0.309200
    107          1           0        5.263794   -4.948663    0.164758
    108          1           0        5.574968   -2.361859   -2.647562
    109          1           0        5.424955   -4.170834   -2.717572
    110          1           0        7.449460   -4.441079   -1.852520
    111          1           0        7.136381   -3.451134   -0.471680
    112          1           0        8.093880   -2.513677   -3.240921
    113          1           0        9.055833   -2.925475   -1.822380
    114          1           0        6.891215   -0.968337   -1.202655
    115          1           0        8.171538   -0.245516   -3.587585
    116          1           0        8.690388    0.813843   -2.196687
    117          1           0        7.074315    0.606503   -2.585702
    118          1           0        8.738731   -1.668542    0.342118
    119          1           0        8.512897    0.007263    0.183782
    120          1           0       10.379050   -0.717762   -2.018360
    121          1           0       10.934795   -1.383404   -0.452786
    122          1           0       10.122283    1.341753   -0.109557
    123          1           0       11.220763    1.187827   -1.521263
    124          1           0       12.514124   -0.281146    0.574170
    125          1           0       11.701079    2.330324    1.674627
    126          1           0       12.405531    0.902850    2.466965
    127          1           0       10.688560    0.912546    2.050940
    128          1           0       12.978447    2.672622   -0.341604
    129          1           0       13.457978    1.298953   -1.289123
    130          1           0       15.010815    0.605820   -0.010879
    131          1           0       14.468096    1.291968    1.526300
    132          1           0       15.102226    3.589322    0.060288
    133          1           0       16.305203    2.397237   -0.357502
    134          1           0       16.646793    1.902214    2.154943
    135          1           0       17.374755    4.431562    0.710858
    136          1           0       18.359261    2.959051    1.101772
    137          1           0       17.839158    4.111703    2.419012
    138          1           0       15.768110    4.591193    2.854468
    139          1           0       15.214233    3.058049    3.614959
    140          1           0       14.318834    3.599191    2.258399
 ---------------------------------------------------------------------

 SCF Done:  E(RPBE1PBE) =  -3005.38501763     A.U. after   16 cycles

 Excitation energies and oscillator strengths:

 Excited State   1:      Singlet-A      1.8044 eV  687.14 nm  f=0.3651  <S**2>=0.000
     245 -> 248        0.16821
     246 -> 247        0.69280
     246 <- 247       -0.11186
 This state for optimization and/or second-order correction.
 Total Energy, E(TD-HF/TD-DFT) =  -3005.31870881
 Copying the excited state density for this state as the 1-particle RhoCI density.

 Excited State   2:      Singlet-A      2.2190 eV  558.73 nm  f=0.0725  <S**2>=0.000
     245 -> 247        0.63351
     246 -> 248       -0.28840

 Excited State   3:      Singlet-A      2.8652 eV  432.72 nm  f=0.0030  <S**2>=0.000
     242 -> 247        0.12394
     243 -> 247        0.34081
     243 -> 248        0.10485
     244 -> 247        0.54857
     244 -> 248        0.10420
     244 -> 249        0.10765

 Excited State   4:      Singlet-A      3.0599 eV  405.19 nm  f=0.0043  <S**2>=0.000
     240 -> 247       -0.25896
     243 -> 247        0.52414
     244 -> 247       -0.33671
     246 -> 248        0.13920

 Excited State   5:      Singlet-A      3.0760 eV  403.07 nm  f=0.0424  <S**2>=0.000
     240 -> 247        0.55981
     240 -> 249       -0.18492
     243 -> 247        0.14614
     244 -> 247       -0.14435
     246 -> 248        0.27388

 The electronic state is 1-A.
 Alpha  occ. eigenvalues --  -46.90940 -19.26340 -19.25513 -19.20995 -19.20352
 Alpha  occ. eigenvalues --  -19.19518 -19.18047 -14.41827 -14.41570 -14.39420
 Alpha  occ. eigenvalues --  -14.38664 -10.36689 -10.36614 -10.32791 -10.31505
 Alpha  occ. eigenvalues --  -10.29596 -10.28965 -10.28947 -10.28303 -10.28301
 Alpha  occ. eigenvalues --  -10.28045 -10.27441 -10.27224 -10.26950 -10.26900
 Alpha  occ. eigenvalues --  -10.26633 -10.26250 -10.26227 -10.25976 -10.25963
 Alpha  occ. eigenvalues --  -10.25640 -10.25573 -10.25386 -10.24956 -10.24934
 Alpha  occ. eigenvalues --  -10.24871 -10.24619 -10.24484 -10.24217 -10.24204
 Alpha  occ. eigenvalues --  -10.24124 -10.23731 -10.23611 -10.23590 -10.23579
 Alpha  occ. eigenvalues --  -10.23409 -10.23407 -10.23220 -10.23183 -10.23145
 Alpha  occ. eigenvalues --  -10.23136 -10.22996 -10.22940 -10.22880 -10.22630
 Alpha  occ. eigenvalues --  -10.22584 -10.22500 -10.22238 -10.22220 -10.21905
 Alpha  occ. eigenvalues --  -10.21881 -10.21815 -10.21718 -10.21593 -10.21583
 Alpha  occ. eigenvalues --  -10.21383  -3.13312  -1.86143  -1.85686  -1.85561
 Alpha  occ. eigenvalues --   -1.12438  -1.09564  -1.03934  -1.03365  -1.02302
 Alpha  occ. eigenvalues --   -1.01977  -0.99612  -0.98951  -0.98351  -0.96558
 Alpha  occ. eigenvalues --   -0.87269  -0.84933  -0.84231  -0.83929  -0.83747
 Alpha  occ. eigenvalues --   -0.83097  -0.82950  -0.81845  -0.81815  -0.81711
 Alpha  occ. eigenvalues --   -0.81048  -0.79910  -0.78567  -0.78534  -0.77702
 Alpha  occ. eigenvalues --   -0.76825  -0.76272  -0.75205  -0.74942  -0.74380
 Alpha  occ. eigenvalues --   -0.74194  -0.72745  -0.72241  -0.71831  -0.70334
 Alpha  occ. eigenvalues --   -0.70182  -0.69781  -0.69282  -0.69209  -0.68397
 Alpha  occ. eigenvalues --   -0.67709  -0.66766  -0.66556  -0.65293  -0.63734
 Alpha  occ. eigenvalues --   -0.63293  -0.62702  -0.62401  -0.60805  -0.60513
 Alpha  occ. eigenvalues --   -0.59894  -0.59103  -0.59067  -0.58878  -0.58476
 Alpha  occ. eigenvalues --   -0.57796  -0.56552  -0.56493  -0.55728  -0.54733
 Alpha  occ. eigenvalues --   -0.54576  -0.54434  -0.53806  -0.53470  -0.52902
 Alpha  occ. eigenvalues --   -0.52476  -0.51645  -0.50771  -0.50540  -0.49964
 Alpha  occ. eigenvalues --   -0.49725  -0.49426  -0.49048  -0.48782  -0.48716
 Alpha  occ. eigenvalues --   -0.48369  -0.48157  -0.47665  -0.47437  -0.47346
 Alpha  occ. eigenvalues --   -0.47089  -0.47021  -0.46818  -0.46622  -0.46494
 Alpha  occ. eigenvalues --   -0.46282  -0.45992  -0.45835  -0.45674  -0.45453
 Alpha  occ. eigenvalues --   -0.45136  -0.45031  -0.44925  -0.44516  -0.44431
 Alpha  occ. eigenvalues --   -0.44390  -0.44019  -0.43820  -0.43787  -0.43535
 Alpha  occ. eigenvalues --   -0.43250  -0.43132  -0.42735  -0.42670  -0.42319
 Alpha  occ. eigenvalues --   -0.42004  -0.41792  -0.41724  -0.41587  -0.41464
 Alpha  occ. eigenvalues --   -0.40879  -0.40872  -0.40544  -0.40377  -0.40262
 Alpha  occ. eigenvalues --   -0.40055  -0.39970  -0.39797  -0.39637  -0.39537
 Alpha  occ. eigenvalues --   -0.39508  -0.39410  -0.38978  -0.38769  -0.38680
 Alpha  occ. eigenvalues --   -0.38472  -0.38181  -0.38052  -0.37882  -0.37815
 Alpha  occ. eigenvalues --   -0.37735  -0.37587  -0.37294  -0.37209  -0.36810
 Alpha  occ. eigenvalues --   -0.36756  -0.36743  -0.36168  -0.36129  -0.36069
 Alpha  occ. eigenvalues --   -0.35940  -0.35585  -0.35409  -0.35253  -0.35034
 Alpha  occ. eigenvalues --   -0.34768  -0.34024  -0.33963  -0.33800  -0.33641
 Alpha  occ. eigenvalues --   -0.33440  -0.33379  -0.33208  -0.32740  -0.32582
 Alpha  occ. eigenvalues --   -0.32183  -0.32059  -0.31756  -0.31731  -0.31080
 Alpha  occ. eigenvalues --   -0.30906  -0.30566  -0.30501  -0.30048  -0.29911
 Alpha  occ. eigenvalues --   -0.29314  -0.29092  -0.28070  -0.26710  -0.26049
 Alpha  occ. eigenvalues --   -0.25917  -0.25574  -0.25366  -0.24986  -0.21219
 Alpha  occ. eigenvalues --   -0.18561
 Alpha virt. eigenvalues --   -0.11184  -0.05846  -0.04757  -0.02674  -0.00358
 Alpha virt. eigenvalues --    0.00219   0.00455   0.00700   0.01181   0.03368
 Alpha virt. eigenvalues --    0.04122   0.04509   0.05297   0.05752   0.05921

 Mulliken charges:
               1
     1  Mg   1.006070
     2  C   -0.025106
     3  C   -0.075661
     4  C   -0.055386
     5  C   -0.118255
     6  N   -0.384536
     7  C    0.070582
     8  C   -0.154282
     9  C   -0.133773
    10  C    0.052322
    11  C    0.019027
    12  C    0.036241
    13  C   -0.011332
    14  C    0.209301
    15  O   -0.254169
    16  O   -0.346648
    17  N   -0.498391
    18  C    0.195314
    19  C   -0.190272
    20  C   -0.046830
    21  C    0.189911
    22  C    0.056275
    23  C    0.021764
    24  O   -0.280751
    25  C   -0.042796
    26  N   -0.390904
    27  C    0.061162
    28  C   -0.135649
    29  C   -0.134855
    30  C    0.115322
    31  C    0.060449
    32  C   -0.047959
    33  C   -0.047718
    34  N   -0.497233
    35  C    0.189947
    36  C   -0.225170
    37  C   -0.001465
    38  C    0.157083
    39  C    0.098442
    40  C    0.121717
    41  O   -0.230323
    42  C   -0.120129
    43  C    0.313618
    44  O   -0.243308
    45  O   -0.377854
    46  C    0.117044
    47  C    0.201632
    48  C   -0.155548
    49  C   -0.186043
    50  C    0.016845
    51  C    0.037035
    52  C   -0.082453
    53  C    0.012630
    54  C   -0.231223
    55  C    0.009467
    56  C   -0.014458
    57  C   -0.062906
    58  C    0.017729
    59  C   -0.222554
    60  C    0.004862
    61  C   -0.016789
    62  C   -0.046385
    63  C   -0.012528
    64  C   -0.294725
    65  C   -0.023544
    66  C    0.000068
    67  H   -0.000856
    68  H    0.032076
    69  H    0.002553
    70  H    0.064618
    71  H    0.041030
    72  H    0.044724
    73  H    0.060231
    74  H    0.056435
    75  H    0.044188
    76  H    0.036958
    77  H    0.072976
    78  H    0.061832
    79  H    0.041211
    80  H    0.058726
    81  H    0.069828
    82  H    0.072808
    83  H    0.044360
    84  H    0.049092
    85  H    0.046106
    86  H    0.032349
    87  H    0.045072
    88  H    0.052746
    89  H    0.051788
    90  H    0.034649
    91  H    0.035931
    92  H    0.048197
    93  H    0.040953
    94  H    0.050989
    95  H    0.076959
    96  H    0.011546
    97  H    0.071512
    98  H    0.085854
    99  H    0.047719
   100  H    0.070343
   101  H    0.049511
   102  H    0.062550
   103  H    0.037248
   104  H    0.022186
   105  H    0.053891
   106  H    0.058388
   107  H    0.057211
   108  H    0.037911
   109  H    0.035440
   110  H    0.022496
   111  H    0.037631
   112  H    0.023072
   113  H    0.033265
   114  H    0.034915
   115  H    0.030370
   116  H    0.032342
   117  H    0.016774
   118  H    0.020529
   119  H    0.019978
   120  H    0.046324
   121  H    0.031893
   122  H    0.023516
   123  H    0.025335
   124  H    0.030029
   125  H    0.035608
   126  H    0.033486
   127  H    0.040070
   128  H    0.024185
   129  H    0.028574
   130  H    0.028331
   131  H    0.026255
   132  H    0.025894
   133  H    0.017028
   134  H    0.038187
   135  H    0.039350
   136  H    0.044788
   137  H    0.034359
   138  H    0.040257
   139  H    0.033464
   140  H    0.039906
 Sum of Mulliken charges =  -0.00000

 Dipole moment (field-independent basis, Debye):
    X=              3.2835    Y=              2.1119    Z=             -2.0712  Tot=              4.4194
 Quadrupole moment (field-independent basis, Debye-Ang):
   XX=           -372.8297   YY=           -438.5854   ZZ=           -402.2166
   XY=            -15.5685   XZ=              0.9935   YZ=              5.9656

 Normal termination of Gaussian 16 at Wed May  4 01:00:39 2022.
