 Gaussian 16, Revision A.03,
 Gaussian 16:  ES64L-G16RevA.03 25-Dec-2016

 --------------------------------
 #p wB97XD/Def2SVP td=(nstates=5)
 --------------------------------

 ----------------------------------------------------
 step_1151_chromophore_6 TDDFT with wB97XD functional
 ----------------------------------------------------
 Symbolic Z-matrix:
 Charge =  0 Multiplicity = 1

                         Standard orientation:
 ---------------------------------------------------------------------
 Center     Atomic      Atomic             Coordinates (Angstroms)
 Number     Number       Type             X           Y           Z
 ---------------------------------------------------------------------
      1         12           0       -5.511579    0.899214   -0.206536
      2          6           0       -4.375521   -2.339249    0.096166
      3          6           0       -2.276503    2.057352   -0.290155
      4          6           0       -6.654984    4.117038   -0.262115
      5          6           0       -8.699571   -0.222449    0.420830
      6          7           0       -3.567270   -0.020063    0.091983
      7          6           0       -3.324916   -1.367198    0.039025
      8          6           0       -1.822139   -1.603324   -0.077040
      9          6           0       -1.194093   -0.190264    0.142103
     10          6           0       -2.427409    0.671514   -0.064247
     11          6           0       -0.518778    0.016386    1.587963
     12          6           0       -1.337523   -2.258798   -1.438654
     13          6           0       -0.462574   -3.520368   -1.262125
     14          6           0        0.690810   -3.474892   -0.299733
     15          8           0        0.884068   -4.195417    0.655532
     16          8           0        1.506221   -2.494906   -0.738998
     17          7           0       -4.630235    2.762590   -0.480758
     18          6           0       -3.272879    3.015482   -0.492325
     19          6           0       -3.044508    4.382109   -0.792334
     20          6           0       -4.286493    5.119466   -0.681178
     21          6           0       -5.288110    3.987588   -0.575194
     22          6           0       -1.663665    4.845737   -1.082599
     23          6           0       -4.561906    6.500484   -0.622468
     24          8           0       -5.751062    6.902385   -0.591137
     25          6           0       -3.359380    7.502931   -0.591249
     26          7           0       -7.338791    1.812726    0.261697
     27          6           0       -7.548917    3.159358    0.219466
     28          6           0       -8.961621    3.541265    0.652473
     29          6           0       -9.692402    2.170713    0.474801
     30          6           0       -8.528976    1.200937    0.379142
     31          6           0       -9.150391    4.143895    2.031226
     32          6           0      -10.724111    2.085537   -0.655451
     33          6           0      -12.024867    2.807155   -0.331417
     34          7           0       -6.425208   -0.875781    0.086648
     35          6           0       -7.726653   -1.154169    0.327912
     36          6           0       -7.912557   -2.612510    0.301676
     37          6           0       -6.584422   -3.154653    0.193548
     38          6           0       -5.739841   -2.042162    0.118960
     39          6           0       -9.159908   -3.399008    0.390603
     40          6           0       -5.791318   -4.371685    0.155241
     41          8           0       -6.162536   -5.560735    0.095512
     42          6           0       -4.299276   -3.891517    0.072830
     43          6           0       -3.611381   -4.443191    1.299729
     44          8           0       -3.601101   -3.933196    2.412821
     45          8           0       -2.982061   -5.670204    0.985828
     46          6           0       -2.289570   -6.294139    2.121693
     47          6           0        2.615901   -2.156821    0.167864
     48          6           0        3.886837   -2.248277   -0.643811
     49          6           0        4.546593   -3.365782   -0.959856
     50          6           0        4.323763   -4.773131   -0.358038
     51          6           0        5.637131   -3.300455   -2.096809
     52          6           0        7.075198   -3.459580   -1.559905
     53          6           0        8.124731   -2.464538   -2.152254
     54          6           0        7.907887   -1.078655   -1.580093
     55          6           0        8.005544    0.042180   -2.548548
     56          6           0        8.877047   -0.856635   -0.372046
     57          6           0       10.325909   -0.619606   -0.934649
     58          6           0       10.904546    0.743814   -0.576494
     59          6           0       12.109710    0.718428    0.417671
     60          6           0       11.677310    1.242894    1.731159
     61          6           0       13.239725    1.617395   -0.268573
     62          6           0       14.539331    1.472193    0.453651
     63          6           0       15.554448    2.653392    0.389586
     64          6           0       16.275173    2.836307    1.733813
     65          6           0       17.607645    3.666528    1.451286
     66          6           0       15.323235    3.611118    2.682132
     67          1           0       -1.235890    2.361511   -0.413332
     68          1           0       -7.119491    5.105091   -0.277641
     69          1           0       -9.698714   -0.641012    0.555712
     70          1           0       -1.472755   -2.232832    0.741613
     71          1           0       -0.538674    0.123457   -0.671059
     72          1           0        0.230984    0.797353    1.464641
     73          1           0       -0.137899   -0.948804    1.923517
     74          1           0       -1.256523    0.383163    2.301473
     75          1           0       -0.924711   -1.573274   -2.178973
     76          1           0       -2.314653   -2.493518   -1.859854
     77          1           0       -0.120716   -3.687292   -2.283858
     78          1           0       -1.065413   -4.285530   -0.773455
     79          1           0       -1.776115    5.716620   -1.728284
     80          1           0       -1.042188    4.191843   -1.694234
     81          1           0       -1.264948    5.227006   -0.142386
     82          1           0       -3.043022    7.775307   -1.598201
     83          1           0       -2.561398    7.055817    0.001497
     84          1           0       -3.557643    8.462044   -0.114753
     85          1           0       -9.349337    4.186007   -0.135642
     86          1           0      -10.325520    1.966258    1.338007
     87          1           0       -9.797599    3.516929    2.643969
     88          1           0       -9.582081    5.117548    1.801127
     89          1           0       -8.166425    4.253675    2.487443
     90          1           0      -10.996786    1.060445   -0.903084
     91          1           0      -10.218684    2.477158   -1.539348
     92          1           0      -12.051449    3.608189   -1.070573
     93          1           0      -11.945379    3.211502    0.677816
     94          1           0      -12.897956    2.162912   -0.435257
     95          1           0       -9.368469   -3.896894   -0.556467
     96          1           0       -9.919686   -2.643841    0.594649
     97          1           0       -9.133277   -4.019262    1.286611
     98          1           0       -3.872374   -4.301922   -0.841922
     99          1           0       -2.579783   -7.344126    2.157571
    100          1           0       -2.329361   -5.898738    3.135971
    101          1           0       -1.217828   -6.398410    1.953331
    102          1           0        2.750980   -2.813226    1.028399
    103          1           0        2.548789   -1.140548    0.553574
    104          1           0        3.998230   -1.237766   -1.036591
    105          1           0        4.135650   -5.521438   -1.127409
    106          1           0        3.463024   -4.742884    0.309200
    107          1           0        5.263794   -4.948663    0.164758
    108          1           0        5.574968   -2.361859   -2.647562
    109          1           0        5.424955   -4.170834   -2.717572
    110          1           0        7.449460   -4.441079   -1.852520
    111          1           0        7.136381   -3.451134   -0.471680
    112          1           0        8.093880   -2.513677   -3.240921
    113          1           0        9.055833   -2.925475   -1.822380
    114          1           0        6.891215   -0.968337   -1.202655
    115          1           0        8.171538   -0.245516   -3.587585
    116          1           0        8.690388    0.813843   -2.196687
    117          1           0        7.074315    0.606503   -2.585702
    118          1           0        8.738731   -1.668542    0.342118
    119          1           0        8.512897    0.007263    0.183782
    120          1           0       10.379050   -0.717762   -2.018360
    121          1           0       10.934795   -1.383404   -0.452786
    122          1           0       10.122283    1.341753   -0.109557
    123          1           0       11.220763    1.187827   -1.521263
    124          1           0       12.514124   -0.281146    0.574170
    125          1           0       11.701079    2.330324    1.674627
    126          1           0       12.405531    0.902850    2.466965
    127          1           0       10.688560    0.912546    2.050940
    128          1           0       12.978447    2.672622   -0.341604
    129          1           0       13.457978    1.298953   -1.289123
    130          1           0       15.010815    0.605820   -0.010879
    131          1           0       14.468096    1.291968    1.526300
    132          1           0       15.102226    3.589322    0.060288
    133          1           0       16.305203    2.397237   -0.357502
    134          1           0       16.646793    1.902214    2.154943
    135          1           0       17.374755    4.431562    0.710858
    136          1           0       18.359261    2.959051    1.101772
    137          1           0       17.839158    4.111703    2.419012
    138          1           0       15.768110    4.591193    2.854468
    139          1           0       15.214233    3.058049    3.614959
    140          1           0       14.318834    3.599191    2.258399
 ---------------------------------------------------------------------

 SCF Done:  E(RwB97XD) =  -3007.89544217     A.U. after   20 cycles

 Excitation energies and oscillator strengths:

 Excited State   1:      Singlet-A      1.6005 eV  774.68 nm  f=0.3773  <S**2>=0.000
     245 -> 248        0.18528
     246 -> 247        0.68171
     245 <- 248        0.11690
 This state for optimization and/or second-order correction.
 Total Energy, E(TD-HF/TD-DFT) =  -3007.83662624
 Copying the excited state density for this state as the 1-particle RhoCI density.

 Excited State   2:      Singlet-A      2.1698 eV  571.40 nm  f=0.0638  <S**2>=0.000
     245 -> 247        0.61249
     246 -> 248       -0.33456

 Excited State   3:      Singlet-A      3.3392 eV  371.30 nm  f=0.4695  <S**2>=0.000
     243 -> 247        0.11360
     244 -> 247        0.25798
     245 -> 247        0.27718
     246 -> 248        0.57175
     245 <- 247       -0.10270

 Excited State   4:      Singlet-A      3.3673 eV  368.21 nm  f=0.0396  <S**2>=0.000
     242 -> 247        0.39756
     242 -> 248        0.18990
     242 -> 249        0.24674
     242 -> 250        0.21643
     243 -> 249       -0.11416
     244 -> 247       -0.32182
     244 -> 249       -0.10330
     246 -> 248        0.10930

 Excited State   5:      Singlet-A      3.4370 eV  360.73 nm  f=0.0142  <S**2>=0.000
     240 -> 247        0.10122
     242 -> 247       -0.11924
     242 -> 249       -0.12560
     243 -> 247        0.50287
     244 -> 247       -0.39893

 The electronic state is 1-A.
 Alpha  occ. eigenvalues --  -46.93879 -19.30897 -19.30147 -19.25645 -19.25167
 Alpha  occ. eigenvalues --  -19.24518 -19.22709 -14.46894 -14.46689 -14.44284
 Alpha  occ. eigenvalues --  -14.43671 -10.43623 -10.43412 -10.39822 -10.38262
 Alpha  occ. eigenvalues --  -10.35995 -10.35440 -10.35331 -10.34471 -10.34467
 Alpha  occ. eigenvalues --  -10.34201 -10.33974 -10.33710 -10.33434 -10.33115
 Alpha  occ. eigenvalues --  -10.33096 -10.32942 -10.32565 -10.32305 -10.32231
 Alpha  occ. eigenvalues --  -10.31896 -10.31824 -10.31747 -10.31356 -10.31156
 Alpha  occ. eigenvalues --  -10.31040 -10.30826 -10.30784 -10.30703 -10.30636
 Alpha  occ. eigenvalues --  -10.30457 -10.30170 -10.30041 -10.30034 -10.29993
 Alpha  occ. eigenvalues --  -10.29932 -10.29741 -10.29675 -10.29476 -10.29462
 Alpha  occ. eigenvalues --  -10.29420 -10.29381 -10.29308 -10.29244 -10.28925
 Alpha  occ. eigenvalues --  -10.28910 -10.28861 -10.28600 -10.28593 -10.28315
 Alpha  occ. eigenvalues --  -10.28239 -10.28238 -10.28081 -10.28044 -10.27975
 Alpha  occ. eigenvalues --  -10.27815  -3.20078  -1.93664  -1.93210  -1.93077
 Alpha  occ. eigenvalues --   -1.19811  -1.17065  -1.11265  -1.11038  -1.09680
 Alpha  occ. eigenvalues --   -1.09436  -1.07038  -1.06332  -1.05767  -1.03810
 Alpha  occ. eigenvalues --   -0.94999  -0.92604  -0.91897  -0.91483  -0.91407
 Alpha  occ. eigenvalues --   -0.90667  -0.90598  -0.89503  -0.89454  -0.89309
 Alpha  occ. eigenvalues --   -0.88713  -0.87535  -0.86229  -0.86143  -0.85323
 Alpha  occ. eigenvalues --   -0.84469  -0.83910  -0.82870  -0.82626  -0.82019
 Alpha  occ. eigenvalues --   -0.81855  -0.80406  -0.79872  -0.79427  -0.78009
 Alpha  occ. eigenvalues --   -0.77873  -0.77341  -0.76988  -0.76891  -0.76055
 Alpha  occ. eigenvalues --   -0.75316  -0.74360  -0.74064  -0.72902  -0.71286
 Alpha  occ. eigenvalues --   -0.70846  -0.70364  -0.69903  -0.68399  -0.68039
 Alpha  occ. eigenvalues --   -0.67394  -0.66748  -0.66502  -0.66312  -0.65943
 Alpha  occ. eigenvalues --   -0.65493  -0.64137  -0.64043  -0.63340  -0.62189
 Alpha  occ. eigenvalues --   -0.62061  -0.61926  -0.61164  -0.60890  -0.60332
 Alpha  occ. eigenvalues --   -0.60065  -0.59096  -0.58217  -0.57916  -0.57437
 Alpha  occ. eigenvalues --   -0.57182  -0.56838  -0.56454  -0.56248  -0.56121
 Alpha  occ. eigenvalues --   -0.55812  -0.55564  -0.55072  -0.54836  -0.54746
 Alpha  occ. eigenvalues --   -0.54508  -0.54402  -0.54116  -0.54038  -0.53928
 Alpha  occ. eigenvalues --   -0.53667  -0.53431  -0.53211  -0.53037  -0.52810
 Alpha  occ. eigenvalues --   -0.52476  -0.52284  -0.52255  -0.51837  -0.51805
 Alpha  occ. eigenvalues --   -0.51717  -0.51350  -0.51132  -0.51098  -0.50825
 Alpha  occ. eigenvalues --   -0.50546  -0.50449  -0.50018  -0.49924  -0.49611
 Alpha  occ. eigenvalues --   -0.49288  -0.49067  -0.48992  -0.48806  -0.48671
 Alpha  occ. eigenvalues --   -0.48107  -0.48004  -0.47766  -0.47631  -0.47479
 Alpha  occ. eigenvalues --   -0.47283  -0.47113  -0.47013  -0.46805  -0.46717
 Alpha  occ. eigenvalues --   -0.46673  -0.46631  -0.46160  -0.45983  -0.45833
 Alpha  occ. eigenvalues --   -0.45620  -0.45353  -0.45237  -0.45003  -0.44903
 Alpha  occ. eigenvalues --   -0.44864  -0.44627  -0.44396  -0.44266  -0.44081
 Alpha  occ. eigenvalues --   -0.43905  -0.43795  -0.43287  -0.43233  -0.43154
 Alpha  occ. eigenvalues --   -0.43002  -0.42569  -0.42527  -0.42230  -0.42168
 Alpha  occ. eigenvalues --   -0.41784  -0.41097  -0.41015  -0.40802  -0.40618
 Alpha  occ. eigenvalues --   -0.40460  -0.40384  -0.40259  -0.39656  -0.39600
 Alpha  occ. eigenvalues --   -0.39138  -0.39085  -0.38738  -0.38668  -0.38043
 Alpha  occ. eigenvalues --   -0.37951  -0.37711  -0.37461  -0.37011  -0.36780
 Alpha  occ. eigenvalues --   -0.36460  -0.35808  -0.34880  -0.33385  -0.33169
 Alpha  occ. eigenvalues --   -0.32654  -0.32349  -0.32189  -0.31513  -0.26245
 Alpha  occ. eigenvalues --   -0.22663
 Alpha virt. eigenvalues --   -0.07019  -0.00398   0.01390   0.03748   0.05934
 Alpha virt. eigenvalues --    0.06495   0.07093   0.07444   0.07985   0.09836
 Alpha virt. eigenvalues --    0.10635   0.11309   0.12128   0.12489   0.12680

 Mulliken charges:
               1
     1  Mg   0.994375
     2  C   -0.032378
     3  C   -0.094448
     4  C   -0.067862
     5  C   -0.138119
     6  N   -0.349193
     7  C    0.043354
     8  C   -0.129005
     9  C   -0.109049
    10  C    0.035738
    11  C    0.030156
    12  C    0.044651
    13  C    0.017495
    14  C    0.190235
    15  O   -0.249227
    16  O   -0.345561
    17  N   -0.466689
    18  C    0.186547
    19  C   -0.180353
    20  C   -0.041479
    21  C    0.176018
    22  C    0.069215
    23  C    0.016340
    24  O   -0.276076
    25  C   -0.029547
    26  N   -0.355363
    27  C    0.045012
    28  C   -0.108282
    29  C   -0.103224
    30  C    0.100543
    31  C    0.068492
    32  C   -0.036249
    33  C   -0.031182
    34  N   -0.458095
    35  C    0.187172
    36  C   -0.220399
    37  C   -0.003636
    38  C    0.146622
    39  C    0.111670
    40  C    0.105770
    41  O   -0.219353
    42  C   -0.082307
    43  C    0.291265
    44  O   -0.237867
    45  O   -0.377010
    46  C    0.131465
    47  C    0.219671
    48  C   -0.164389
    49  C   -0.176002
    50  C    0.034139
    51  C    0.054432
    52  C   -0.064460
    53  C    0.023640
    54  C   -0.193230
    55  C    0.019085
    56  C    0.002251
    57  C   -0.043057
    58  C    0.031394
    59  C   -0.190596
    60  C    0.015853
    61  C   -0.001802
    62  C   -0.027570
    63  C    0.002390
    64  C   -0.265332
    65  C   -0.008847
    66  C    0.011983
    67  H   -0.007389
    68  H    0.028452
    69  H   -0.003808
    70  H    0.048175
    71  H    0.030688
    72  H    0.039154
    73  H    0.052655
    74  H    0.051222
    75  H    0.039238
    76  H    0.025466
    77  H    0.068546
    78  H    0.048959
    79  H    0.032982
    80  H    0.055111
    81  H    0.064371
    82  H    0.068945
    83  H    0.036635
    84  H    0.047230
    85  H    0.034586
    86  H    0.017809
    87  H    0.039046
    88  H    0.047875
    89  H    0.046340
    90  H    0.026030
    91  H    0.027011
    92  H    0.042616
    93  H    0.032633
    94  H    0.046468
    95  H    0.074003
    96  H    0.004777
    97  H    0.068131
    98  H    0.080640
    99  H    0.043369
   100  H    0.066939
   101  H    0.047070
   102  H    0.056243
   103  H    0.033612
   104  H    0.019347
   105  H    0.049143
   106  H    0.049989
   107  H    0.050759
   108  H    0.028321
   109  H    0.027837
   110  H    0.015400
   111  H    0.025667
   112  H    0.015584
   113  H    0.024139
   114  H    0.017394
   115  H    0.025345
   116  H    0.021351
   117  H    0.011948
   118  H    0.012211
   119  H    0.009652
   120  H    0.036061
   121  H    0.022330
   122  H    0.011694
   123  H    0.016883
   124  H    0.018503
   125  H    0.028208
   126  H    0.027517
   127  H    0.033461
   128  H    0.013911
   129  H    0.020273
   130  H    0.020656
   131  H    0.010070
   132  H    0.016070
   133  H    0.008374
   134  H    0.028421
   135  H    0.032278
   136  H    0.039161
   137  H    0.027662
   138  H    0.034774
   139  H    0.028100
   140  H    0.029945
 Sum of Mulliken charges =  -0.00000

 Dipole moment (field-independent basis, Debye):
    X=              3.2382    Y=              1.8541    Z=             -2.0783  Tot=              4.2712
 Quadrupole moment (field-independent basis, Debye-Ang):
   XX=           -372.3767   YY=           -437.4290   ZZ=           -401.8981
   XY=            -13.1402   XZ=              1.1343   YZ=              5.9296

 Normal termination of Gaussian 16 at Wed May  4 01:28:50 2022.
