 Gaussian 16, Revision A.03,
 Gaussian 16:  ES64L-G16RevA.03 25-Dec-2016

 --------------------
 #p ZINDO=(nstates=5)
 --------------------

 -----------------------------
 step_1151_chromophore_6 ZINDO
 -----------------------------
 Symbolic Z-matrix:
 Charge =  0 Multiplicity = 1

                         Standard orientation:
 ---------------------------------------------------------------------
 Center     Atomic      Atomic             Coordinates (Angstroms)
 Number     Number       Type             X           Y           Z
 ---------------------------------------------------------------------
      1         12           0       -5.511579    0.899214   -0.206536
      2          6           0       -4.375521   -2.339249    0.096166
      3          6           0       -2.276503    2.057352   -0.290155
      4          6           0       -6.654984    4.117038   -0.262115
      5          6           0       -8.699571   -0.222449    0.420830
      6          7           0       -3.567270   -0.020063    0.091983
      7          6           0       -3.324916   -1.367198    0.039025
      8          6           0       -1.822139   -1.603324   -0.077040
      9          6           0       -1.194093   -0.190264    0.142103
     10          6           0       -2.427409    0.671514   -0.064247
     11          6           0       -0.518778    0.016386    1.587963
     12          6           0       -1.337523   -2.258798   -1.438654
     13          6           0       -0.462574   -3.520368   -1.262125
     14          6           0        0.690810   -3.474892   -0.299733
     15          8           0        0.884068   -4.195417    0.655532
     16          8           0        1.506221   -2.494906   -0.738998
     17          7           0       -4.630235    2.762590   -0.480758
     18          6           0       -3.272879    3.015482   -0.492325
     19          6           0       -3.044508    4.382109   -0.792334
     20          6           0       -4.286493    5.119466   -0.681178
     21          6           0       -5.288110    3.987588   -0.575194
     22          6           0       -1.663665    4.845737   -1.082599
     23          6           0       -4.561906    6.500484   -0.622468
     24          8           0       -5.751062    6.902385   -0.591137
     25          6           0       -3.359380    7.502931   -0.591249
     26          7           0       -7.338791    1.812726    0.261697
     27          6           0       -7.548917    3.159358    0.219466
     28          6           0       -8.961621    3.541265    0.652473
     29          6           0       -9.692402    2.170713    0.474801
     30          6           0       -8.528976    1.200937    0.379142
     31          6           0       -9.150391    4.143895    2.031226
     32          6           0      -10.724111    2.085537   -0.655451
     33          6           0      -12.024867    2.807155   -0.331417
     34          7           0       -6.425208   -0.875781    0.086648
     35          6           0       -7.726653   -1.154169    0.327912
     36          6           0       -7.912557   -2.612510    0.301676
     37          6           0       -6.584422   -3.154653    0.193548
     38          6           0       -5.739841   -2.042162    0.118960
     39          6           0       -9.159908   -3.399008    0.390603
     40          6           0       -5.791318   -4.371685    0.155241
     41          8           0       -6.162536   -5.560735    0.095512
     42          6           0       -4.299276   -3.891517    0.072830
     43          6           0       -3.611381   -4.443191    1.299729
     44          8           0       -3.601101   -3.933196    2.412821
     45          8           0       -2.982061   -5.670204    0.985828
     46          6           0       -2.289570   -6.294139    2.121693
     47          6           0        2.615901   -2.156821    0.167864
     48          6           0        3.886837   -2.248277   -0.643811
     49          6           0        4.546593   -3.365782   -0.959856
     50          6           0        4.323763   -4.773131   -0.358038
     51          6           0        5.637131   -3.300455   -2.096809
     52          6           0        7.075198   -3.459580   -1.559905
     53          6           0        8.124731   -2.464538   -2.152254
     54          6           0        7.907887   -1.078655   -1.580093
     55          6           0        8.005544    0.042180   -2.548548
     56          6           0        8.877047   -0.856635   -0.372046
     57          6           0       10.325909   -0.619606   -0.934649
     58          6           0       10.904546    0.743814   -0.576494
     59          6           0       12.109710    0.718428    0.417671
     60          6           0       11.677310    1.242894    1.731159
     61          6           0       13.239725    1.617395   -0.268573
     62          6           0       14.539331    1.472193    0.453651
     63          6           0       15.554448    2.653392    0.389586
     64          6           0       16.275173    2.836307    1.733813
     65          6           0       17.607645    3.666528    1.451286
     66          6           0       15.323235    3.611118    2.682132
     67          1           0       -1.235890    2.361511   -0.413332
     68          1           0       -7.119491    5.105091   -0.277641
     69          1           0       -9.698714   -0.641012    0.555712
     70          1           0       -1.472755   -2.232832    0.741613
     71          1           0       -0.538674    0.123457   -0.671059
     72          1           0        0.230984    0.797353    1.464641
     73          1           0       -0.137899   -0.948804    1.923517
     74          1           0       -1.256523    0.383163    2.301473
     75          1           0       -0.924711   -1.573274   -2.178973
     76          1           0       -2.314653   -2.493518   -1.859854
     77          1           0       -0.120716   -3.687292   -2.283858
     78          1           0       -1.065413   -4.285530   -0.773455
     79          1           0       -1.776115    5.716620   -1.728284
     80          1           0       -1.042188    4.191843   -1.694234
     81          1           0       -1.264948    5.227006   -0.142386
     82          1           0       -3.043022    7.775307   -1.598201
     83          1           0       -2.561398    7.055817    0.001497
     84          1           0       -3.557643    8.462044   -0.114753
     85          1           0       -9.349337    4.186007   -0.135642
     86          1           0      -10.325520    1.966258    1.338007
     87          1           0       -9.797599    3.516929    2.643969
     88          1           0       -9.582081    5.117548    1.801127
     89          1           0       -8.166425    4.253675    2.487443
     90          1           0      -10.996786    1.060445   -0.903084
     91          1           0      -10.218684    2.477158   -1.539348
     92          1           0      -12.051449    3.608189   -1.070573
     93          1           0      -11.945379    3.211502    0.677816
     94          1           0      -12.897956    2.162912   -0.435257
     95          1           0       -9.368469   -3.896894   -0.556467
     96          1           0       -9.919686   -2.643841    0.594649
     97          1           0       -9.133277   -4.019262    1.286611
     98          1           0       -3.872374   -4.301922   -0.841922
     99          1           0       -2.579783   -7.344126    2.157571
    100          1           0       -2.329361   -5.898738    3.135971
    101          1           0       -1.217828   -6.398410    1.953331
    102          1           0        2.750980   -2.813226    1.028399
    103          1           0        2.548789   -1.140548    0.553574
    104          1           0        3.998230   -1.237766   -1.036591
    105          1           0        4.135650   -5.521438   -1.127409
    106          1           0        3.463024   -4.742884    0.309200
    107          1           0        5.263794   -4.948663    0.164758
    108          1           0        5.574968   -2.361859   -2.647562
    109          1           0        5.424955   -4.170834   -2.717572
    110          1           0        7.449460   -4.441079   -1.852520
    111          1           0        7.136381   -3.451134   -0.471680
    112          1           0        8.093880   -2.513677   -3.240921
    113          1           0        9.055833   -2.925475   -1.822380
    114          1           0        6.891215   -0.968337   -1.202655
    115          1           0        8.171538   -0.245516   -3.587585
    116          1           0        8.690388    0.813843   -2.196687
    117          1           0        7.074315    0.606503   -2.585702
    118          1           0        8.738731   -1.668542    0.342118
    119          1           0        8.512897    0.007263    0.183782
    120          1           0       10.379050   -0.717762   -2.018360
    121          1           0       10.934795   -1.383404   -0.452786
    122          1           0       10.122283    1.341753   -0.109557
    123          1           0       11.220763    1.187827   -1.521263
    124          1           0       12.514124   -0.281146    0.574170
    125          1           0       11.701079    2.330324    1.674627
    126          1           0       12.405531    0.902850    2.466965
    127          1           0       10.688560    0.912546    2.050940
    128          1           0       12.978447    2.672622   -0.341604
    129          1           0       13.457978    1.298953   -1.289123
    130          1           0       15.010815    0.605820   -0.010879
    131          1           0       14.468096    1.291968    1.526300
    132          1           0       15.102226    3.589322    0.060288
    133          1           0       16.305203    2.397237   -0.357502
    134          1           0       16.646793    1.902214    2.154943
    135          1           0       17.374755    4.431562    0.710858
    136          1           0       18.359261    2.959051    1.101772
    137          1           0       17.839158    4.111703    2.419012
    138          1           0       15.768110    4.591193    2.854468
    139          1           0       15.214233    3.058049    3.614959
    140          1           0       14.318834    3.599191    2.258399
 ---------------------------------------------------------------------

 SCF Done:  E(RZINDO/S) =  -474.494143487     A.U. after   20 cycles

 Excitation energies and oscillator strengths:

 Excited State   1:      Singlet-A      1.2148 eV 1020.59 nm  f=0.5998  <S**2>=0.000
     175 ->178        -0.19376
     176 ->177         0.66087
 This state for optimization and/or second-order correction.
 Total Energy, E(CIS/TDA) =  -474.449499515
 Copying the excited state density for this state as the 1-particle RhoCI density.

 Excited State   2:      Singlet-A      1.8832 eV  658.37 nm  f=0.0102  <S**2>=0.000
     175 ->177         0.50406
     176 ->178         0.47092

 Excited State   3:      Singlet-A      2.7834 eV  445.44 nm  f=0.0322  <S**2>=0.000
     176 ->179         0.64267
     176 ->180         0.21378

 Excited State   4:      Singlet-A      2.8951 eV  428.25 nm  f=0.6671  <S**2>=0.000
     170 ->177        -0.20311
     170 ->179        -0.19209
     170 ->180        -0.21553
     175 ->177        -0.34648
     176 ->178         0.39860
     176 ->180        -0.12884

 Excited State   5:      Singlet-A      2.9104 eV  426.01 nm  f=0.2688  <S**2>=0.000
     170 ->177         0.25863
     170 ->178        -0.12886
     170 ->179         0.25365
     170 ->180         0.29098
     170 ->186         0.11573
     170 ->188         0.13434
     174 ->177        -0.10695
     175 ->177        -0.22987
     176 ->178         0.26895
     176 ->179         0.12997
     176 ->180        -0.11125

 The electronic state is 1-A.
 Alpha  occ. eigenvalues --   -1.85944  -1.82316  -1.80491  -1.75550  -1.71203
 Alpha  occ. eigenvalues --   -1.69834  -1.67860  -1.63039  -1.57584  -1.55904
 Alpha  occ. eigenvalues --   -1.55686  -1.51679  -1.49969  -1.48251  -1.47409
 Alpha  occ. eigenvalues --   -1.45526  -1.43604  -1.41141  -1.38974  -1.38333
 Alpha  occ. eigenvalues --   -1.36354  -1.34953  -1.33292  -1.31546  -1.29187
 Alpha  occ. eigenvalues --   -1.26049  -1.25040  -1.22333  -1.20857  -1.17714
 Alpha  occ. eigenvalues --   -1.17161  -1.16432  -1.15145  -1.14949  -1.13639
 Alpha  occ. eigenvalues --   -1.13304  -1.10908  -1.10237  -1.05818  -1.03932
 Alpha  occ. eigenvalues --   -1.02562  -1.01247  -0.99704  -0.98881  -0.98431
 Alpha  occ. eigenvalues --   -0.95107  -0.94270  -0.93142  -0.92681  -0.91826
 Alpha  occ. eigenvalues --   -0.91763  -0.89873  -0.87625  -0.86816  -0.86613
 Alpha  occ. eigenvalues --   -0.84718  -0.84203  -0.83140  -0.82435  -0.81168
 Alpha  occ. eigenvalues --   -0.80316  -0.79504  -0.79005  -0.77498  -0.76901
 Alpha  occ. eigenvalues --   -0.76239  -0.76043  -0.74841  -0.73846  -0.73359
 Alpha  occ. eigenvalues --   -0.73178  -0.72978  -0.72308  -0.70809  -0.70662
 Alpha  occ. eigenvalues --   -0.70243  -0.69878  -0.68952  -0.68571  -0.67806
 Alpha  occ. eigenvalues --   -0.67398  -0.66852  -0.66783  -0.66020  -0.65891
 Alpha  occ. eigenvalues --   -0.65451  -0.65247  -0.64964  -0.64880  -0.64333
 Alpha  occ. eigenvalues --   -0.63133  -0.62676  -0.62415  -0.61406  -0.61239
 Alpha  occ. eigenvalues --   -0.61024  -0.60696  -0.60516  -0.59972  -0.59860
 Alpha  occ. eigenvalues --   -0.59140  -0.58992  -0.58731  -0.58353  -0.58167
 Alpha  occ. eigenvalues --   -0.57992  -0.57121  -0.56918  -0.56413  -0.56300
 Alpha  occ. eigenvalues --   -0.56057  -0.55828  -0.55209  -0.55044  -0.54582
 Alpha  occ. eigenvalues --   -0.54463  -0.54204  -0.52999  -0.52830  -0.52519
 Alpha  occ. eigenvalues --   -0.52248  -0.51920  -0.51830  -0.51301  -0.51202
 Alpha  occ. eigenvalues --   -0.51093  -0.50587  -0.50531  -0.50471  -0.50311
 Alpha  occ. eigenvalues --   -0.50002  -0.49651  -0.49334  -0.48988  -0.48878
 Alpha  occ. eigenvalues --   -0.48553  -0.48218  -0.48012  -0.47906  -0.47736
 Alpha  occ. eigenvalues --   -0.47537  -0.47233  -0.47071  -0.46954  -0.46646
 Alpha  occ. eigenvalues --   -0.46583  -0.46078  -0.45635  -0.45234  -0.45138
 Alpha  occ. eigenvalues --   -0.44918  -0.44615  -0.44326  -0.43997  -0.43852
 Alpha  occ. eigenvalues --   -0.43694  -0.43573  -0.43377  -0.42760  -0.42067
 Alpha  occ. eigenvalues --   -0.41854  -0.41622  -0.40667  -0.39389  -0.38994
 Alpha  occ. eigenvalues --   -0.38896  -0.37424  -0.35943  -0.35140  -0.34326
 Alpha  occ. eigenvalues --   -0.33010  -0.32787  -0.32286  -0.31622  -0.26710
 Alpha  occ. eigenvalues --   -0.21358
 Alpha virt. eigenvalues --   -0.08333  -0.02437  -0.01312   0.00850   0.01794
 Alpha virt. eigenvalues --    0.02399   0.02846   0.02998   0.04843   0.05016
 Alpha virt. eigenvalues --    0.06434   0.06719   0.07757   0.07923   0.08402

 Mulliken charges:
               1
     1  Mg   0.415961
     2  C   -0.062806
     3  C   -0.086806
     4  C   -0.054178
     5  C   -0.071393
     6  N   -0.269370
     7  C    0.142573
     8  C    0.005557
     9  C   -0.011728
    10  C    0.120452
    11  C   -0.049465
    12  C   -0.028291
    13  C    0.000234
    14  C    0.477970
    15  O   -0.513857
    16  O   -0.261607
    17  N   -0.327852
    18  C    0.095346
    19  C    0.011869
    20  C   -0.056935
    21  C    0.126700
    22  C   -0.045864
    23  C    0.325961
    24  O   -0.559656
    25  C   -0.036363
    26  N   -0.253245
    27  C    0.122822
    28  C    0.003107
    29  C   -0.000776
    30  C    0.146156
    31  C   -0.045774
    32  C   -0.026370
    33  C   -0.058497
    34  N   -0.332010
    35  C    0.126492
    36  C    0.046182
    37  C   -0.061414
    38  C    0.132626
    39  C   -0.035300
    40  C    0.337550
    41  O   -0.524075
    42  C    0.060826
    43  C    0.484164
    44  O   -0.511172
    45  O   -0.264305
    46  C    0.069989
    47  C    0.091485
    48  C   -0.094821
    49  C   -0.003594
    50  C   -0.042635
    51  C   -0.025927
    52  C   -0.036525
    53  C   -0.029798
    54  C   -0.002572
    55  C   -0.055882
    56  C   -0.037367
    57  C   -0.033579
    58  C   -0.040047
    59  C   -0.009847
    60  C   -0.047907
    61  C   -0.032993
    62  C   -0.043344
    63  C   -0.034864
    64  C   -0.023261
    65  C   -0.069374
    66  C   -0.059403
    67  H    0.023295
    68  H    0.048009
    69  H    0.027204
    70  H    0.039711
    71  H    0.029052
    72  H    0.021996
    73  H    0.032158
    74  H    0.030051
    75  H    0.032866
    76  H    0.016327
    77  H    0.048383
    78  H    0.040831
    79  H    0.011391
    80  H    0.034284
    81  H    0.039579
    82  H    0.041441
    83  H    0.026590
    84  H    0.031553
    85  H    0.028642
    86  H    0.026111
    87  H    0.027048
    88  H    0.026698
    89  H    0.029239
    90  H    0.015480
    91  H    0.019169
    92  H    0.021188
    93  H    0.023616
    94  H    0.024720
    95  H    0.048561
    96  H    0.014610
    97  H    0.045817
    98  H    0.059466
    99  H    0.028989
   100  H    0.057685
   101  H    0.031254
   102  H    0.052884
   103  H    0.032014
   104  H    0.028417
   105  H    0.031732
   106  H    0.035616
   107  H    0.033288
   108  H    0.027276
   109  H    0.025231
   110  H    0.005367
   111  H    0.023457
   112  H    0.020317
   113  H    0.016089
   114  H    0.013847
   115  H    0.020289
   116  H    0.020085
   117  H    0.003703
   118  H    0.017634
   119  H    0.011677
   120  H    0.026852
   121  H    0.014641
   122  H    0.022029
   123  H    0.016103
   124  H    0.025508
   125  H    0.018938
   126  H    0.010957
   127  H    0.019150
   128  H    0.021273
   129  H    0.014823
   130  H    0.012497
   131  H    0.020805
   132  H    0.022987
   133  H    0.006112
   134  H    0.025874
   135  H    0.023301
   136  H    0.021936
   137  H    0.018557
   138  H    0.028620
   139  H    0.013144
   140  H    0.022781
 Sum of Mulliken charges =  -0.00000

 Dipole moment (field-independent basis, Debye):
    X=              3.4950    Y=              1.5673    Z=             -3.4177  Tot=              5.1335
 N-N= 4.281557124826D+03 E-N= 0.000000000000D+00  KE=-9.237642611859D+03
 Leave Link  601 at Wed May  4 01:41:41 2022, MaxMem=  6710886400 cpu:               0.8 elap:               0.0
 (Enter /sw/apps/gaussian-16.0/g16/l9999.exe)
 1\1\GINC-BP1-COMPUTE122\SP\RZINDO CIS\STO-3G\C55H74Mg1N4O6\OF15641\04-
 May-2022\0\\#p ZINDO=(nstates=5)\\step_1151_chromophore_6 ZINDO\\0,1\M
 g,0,17.223,-2.649,28.108\C,0,16.589,-0.67,30.856\C,0,19.121,-4.769,30.
 036\C,0,18.038,-4.461,25.33\C,0,15.787,-0.243,26.117\N,0,17.945,-2.594
 ,30.155\C,0,17.437,-1.789,31.14\C,0,17.927,-2.285,32.497\C,0,18.988,-3
 .376,32.146\C,0,18.636,-3.614,30.688\C,0,20.513,-2.907,32.355\C,0,16.8
 02,-2.847,33.465\C,0,16.797,-2.21,34.873\C,0,18.092,-2.11,35.629\O,0,1

 Normal termination of Gaussian 16 at Wed May  4 01:41:41 2022.
