 Gaussian 16, Revision A.03,
 Gaussian 16:  ES64L-G16RevA.03 25-Dec-2016

 ------------------------------
 #p blyp/Def2SVP td=(nstates=5)
 ------------------------------

 --------------------------------------------------
 step_551_chromophore_24 TDDFT with blyp functional
 --------------------------------------------------
 Symbolic Z-matrix:
 Charge =  0 Multiplicity = 1

                         Standard orientation:
 ---------------------------------------------------------------------
 Center     Atomic      Atomic             Coordinates (Angstroms)
 Number     Number       Type             X           Y           Z
 ---------------------------------------------------------------------
      1         12           0        5.084337    1.091180    0.274337
      2          6           0        4.025295   -2.339207    0.513603
      3          6           0        1.725868    1.981801    0.044817
      4          6           0        6.060428    4.222957   -0.356228
      5          6           0        8.432507   -0.029885    0.224438
      6          7           0        3.098905   -0.126901    0.139415
      7          6           0        2.921760   -1.443950    0.414089
      8          6           0        1.419398   -1.779812    0.171444
      9          6           0        0.722215   -0.328986   -0.045506
     10          6           0        1.917225    0.573346    0.035731
     11          6           0       -0.066277   -0.079089   -1.362100
     12          6           0        0.749495   -2.583734    1.413870
     13          6           0        0.089322   -3.958157    1.018520
     14          6           0       -0.548230   -4.029789   -0.387660
     15          8           0       -0.168543   -4.770995   -1.336765
     16          8           0       -1.645708   -3.205611   -0.488138
     17          7           0        4.047804    2.867404   -0.053648
     18          6           0        2.651116    3.059620   -0.126856
     19          6           0        2.406830    4.515390   -0.187058
     20          6           0        3.661773    5.167644   -0.297075
     21          6           0        4.666712    4.090805   -0.233296
     22          6           0        0.978798    4.992672   -0.145515
     23          6           0        3.914343    6.628648   -0.492341
     24          8           0        5.007593    7.134242   -0.279620
     25          6           0        2.730058    7.554551   -0.879668
     26          7           0        6.946633    1.911735   -0.148565
     27          6           0        7.090751    3.306968   -0.286717
     28          6           0        8.555081    3.620101   -0.619618
     29          6           0        9.264140    2.411851    0.032701
     30          6           0        8.206931    1.343252   -0.047461
     31          6           0        8.811581    3.874182   -2.148875
     32          6           0        9.864285    2.525732    1.496236
     33          6           0        8.863671    2.817341    2.675511
     34          7           0        6.052638   -0.748540    0.421801
     35          6           0        7.415000   -1.051486    0.328785
     36          6           0        7.575128   -2.417548    0.441636
     37          6           0        6.279605   -3.049157    0.514023
     38          6           0        5.389259   -1.970621    0.472614
     39          6           0        8.889127   -3.031131    0.445230
     40          6           0        5.519909   -4.235885    0.647414
     41          8           0        5.958779   -5.348245    0.858226
     42          6           0        4.051573   -3.817182    0.718725
     43          6           0        3.318389   -4.609024   -0.289929
     44          8           0        2.977802   -4.154684   -1.372598
     45          8           0        3.129208   -5.909208    0.123081
     46          6           0        2.588476   -6.810089   -0.877916
     47          6           0       -2.657279   -3.448549   -1.559557
     48          6           0       -4.047815   -3.029348   -1.086969
     49          6           0       -5.219834   -3.525616   -1.536175
     50          6           0       -5.318786   -4.655111   -2.517381
     51          6           0       -6.449073   -3.069524   -0.808575
     52          6           0       -6.326258   -3.319020    0.714438
     53          6           0       -6.393102   -2.027447    1.550497
     54          6           0       -7.788465   -1.328346    1.384620
     55          6           0       -8.698760   -1.669496    2.666300
     56          6           0       -7.623864    0.225101    1.148094
     57          6           0       -7.761592    0.527557   -0.338259
     58          6           0       -8.576390    1.854983   -0.631231
     59          6           0      -10.109356    1.588584   -0.887190
     60          6           0      -10.474752    2.105954   -2.234806
     61          6           0      -10.871285    2.251466    0.240106
     62          6           0      -12.286362    1.659303    0.307229
     63          6           0      -13.195662    2.768851    0.840343
     64          6           0      -14.704726    2.475501    0.788252
     65          6           0      -15.310743    2.656786   -0.613097
     66          6           0      -15.504174    3.386972    1.802440
     67          1           0        0.702629    2.363222    0.063516
     68          1           0        6.513645    5.212733   -0.428661
     69          1           0        9.470068   -0.331631    0.379474
     70          1           0        1.373765   -2.389695   -0.730897
     71          1           0        0.135370   -0.022108    0.820760
     72          1           0       -0.263508   -1.045586   -1.824833
     73          1           0        0.482385    0.636292   -1.974739
     74          1           0       -1.118915    0.180667   -1.248126
     75          1           0       -0.082095   -2.030685    1.850215
     76          1           0        1.491606   -2.869339    2.160097
     77          1           0       -0.687101   -4.094082    1.771777
     78          1           0        0.708761   -4.799452    1.331474
     79          1           0        0.921193    5.960246    0.352203
     80          1           0        0.459400    4.266035    0.478951
     81          1           0        0.681993    5.062872   -1.191943
     82          1           0        2.137875    7.794805    0.003530
     83          1           0        2.137780    7.267886   -1.748636
     84          1           0        3.149346    8.527812   -1.132198
     85          1           0        8.904466    4.549195   -0.170987
     86          1           0       10.140282    2.082928   -0.526068
     87          1           0        8.981399    4.945675   -2.258899
     88          1           0        7.997078    3.544430   -2.793412
     89          1           0        9.634077    3.326075   -2.609508
     90          1           0       10.605450    3.323908    1.438564
     91          1           0       10.425368    1.600025    1.618821
     92          1           0        8.299655    1.894792    2.805375
     93          1           0        8.212600    3.620835    2.331710
     94          1           0        9.295259    3.149256    3.620482
     95          1           0        8.686920   -4.089259    0.279127
     96          1           0        9.355867   -3.088183    1.428238
     97          1           0        9.516580   -2.805631   -0.417367
     98          1           0        3.651142   -4.041249    1.707257
     99          1           0        2.715349   -6.547422   -1.927492
    100          1           0        1.536198   -6.939581   -0.624948
    101          1           0        3.010439   -7.812849   -0.816299
    102          1           0       -2.693606   -4.450593   -1.987699
    103          1           0       -2.375359   -2.874421   -2.441494
    104          1           0       -3.989516   -2.345964   -0.240290
    105          1           0       -4.889711   -4.263918   -3.440383
    106          1           0       -6.351709   -4.961128   -2.681812
    107          1           0       -4.697530   -5.467396   -2.141149
    108          1           0       -7.417461   -3.365721   -1.211620
    109          1           0       -6.455711   -1.992594   -0.971858
    110          1           0       -5.449720   -3.892008    1.017189
    111          1           0       -7.094912   -4.061751    0.928159
    112          1           0       -5.587413   -1.426969    1.125889
    113          1           0       -6.209496   -2.254233    2.600484
    114          1           0       -8.367587   -1.703391    0.541283
    115          1           0       -8.251389   -2.112968    3.556386
    116          1           0       -9.563759   -2.282366    2.411959
    117          1           0       -9.179357   -0.771518    3.053529
    118          1           0       -6.595420    0.504838    1.374607
    119          1           0       -8.327213    0.888638    1.651220
    120          1           0       -8.337448   -0.216369   -0.888191
    121          1           0       -6.769173    0.590894   -0.786541
    122          1           0       -8.173509    2.484313   -1.425020
    123          1           0       -8.414060    2.480133    0.247076
    124          1           0      -10.318932    0.527867   -0.749959
    125          1           0      -11.300895    2.809850   -2.128589
    126          1           0      -10.943889    1.388672   -2.908537
    127          1           0       -9.762890    2.607799   -2.890287
    128          1           0      -10.853118    3.340608    0.268890
    129          1           0      -10.461161    1.769824    1.127600
    130          1           0      -12.214893    0.883403    1.069603
    131          1           0      -12.693140    1.181847   -0.584421
    132          1           0      -13.155351    3.697535    0.271143
    133          1           0      -12.833716    2.848726    1.865296
    134          1           0      -14.815766    1.412360    1.005484
    135          1           0      -14.495895    2.641397   -1.336063
    136          1           0      -15.914826    3.562551   -0.665174
    137          1           0      -15.976046    1.847587   -0.915296
    138          1           0      -15.440830    3.103287    2.853267
    139          1           0      -16.563965    3.330040    1.556259
    140          1           0      -15.292475    4.449782    1.686044
 ---------------------------------------------------------------------

 SCF Done:  E(RB-LYP) =  -3007.37615480     A.U. after   21 cycles

 Excitation energies and oscillator strengths:

 Excited State   1:      Singlet-A      1.7872 eV  693.74 nm  f=0.2891  <S**2>=0.000
     245 -> 248       -0.20667
     246 -> 247        0.68423
     246 <- 247       -0.14802
 This state for optimization and/or second-order correction.
 Total Energy, E(TD-HF/TD-DFT) =  -3007.31047701
 Copying the excited state density for this state as the 1-particle RhoCI density.

 Excited State   2:      Singlet-A      1.8389 eV  674.23 nm  f=0.0037  <S**2>=0.000
     244 -> 247        0.69818

 Excited State   3:      Singlet-A      1.9496 eV  635.93 nm  f=0.0732  <S**2>=0.000
     243 -> 247        0.14940
     245 -> 247        0.63504
     246 -> 248        0.22438

 Excited State   4:      Singlet-A      2.0287 eV  611.14 nm  f=0.0060  <S**2>=0.000
     243 -> 247        0.68965
     245 -> 247       -0.13241

 Excited State   5:      Singlet-A      2.1621 eV  573.43 nm  f=0.0001  <S**2>=0.000
     241 -> 247        0.70522

 The electronic state is 1-A.
 Alpha  occ. eigenvalues --  -46.26583 -18.82776 -18.81453 -18.76864 -18.75900
 Alpha  occ. eigenvalues --  -18.75869 -18.74906 -14.03138 -14.02600 -14.01286
 Alpha  occ. eigenvalues --  -14.00140 -10.04936 -10.03159 -10.00217  -9.98835
 Alpha  occ. eigenvalues --   -9.98563  -9.96714  -9.96650  -9.96177  -9.96150
 Alpha  occ. eigenvalues --   -9.96108  -9.95983  -9.95891  -9.94555  -9.94319
 Alpha  occ. eigenvalues --   -9.94276  -9.94065  -9.94062  -9.93914  -9.93878
 Alpha  occ. eigenvalues --   -9.93849  -9.93669  -9.93632  -9.93486  -9.93470
 Alpha  occ. eigenvalues --   -9.93351  -9.93106  -9.93105  -9.93069  -9.92886
 Alpha  occ. eigenvalues --   -9.92771  -9.92734  -9.92444  -9.92194  -9.92103
 Alpha  occ. eigenvalues --   -9.92086  -9.92076  -9.92029  -9.91959  -9.91901
 Alpha  occ. eigenvalues --   -9.91828  -9.91795  -9.91711  -9.91655  -9.91426
 Alpha  occ. eigenvalues --   -9.91313  -9.91231  -9.91026  -9.90990  -9.90941
 Alpha  occ. eigenvalues --   -9.90926  -9.90905  -9.90893  -9.90819  -9.90708
 Alpha  occ. eigenvalues --   -9.90433  -2.91170  -1.71599  -1.71057  -1.70877
 Alpha  occ. eigenvalues --   -0.96900  -0.96786  -0.91717  -0.91279  -0.89228
 Alpha  occ. eigenvalues --   -0.88141  -0.85442  -0.84718  -0.84262  -0.83625
 Alpha  occ. eigenvalues --   -0.75989  -0.74443  -0.73920  -0.72115  -0.71871
 Alpha  occ. eigenvalues --   -0.71489  -0.71061  -0.70986  -0.70690  -0.70263
 Alpha  occ. eigenvalues --   -0.69663  -0.68687  -0.68195  -0.66946  -0.66841
 Alpha  occ. eigenvalues --   -0.66278  -0.65675  -0.65259  -0.64628  -0.64356
 Alpha  occ. eigenvalues --   -0.64089  -0.62572  -0.61821  -0.61526  -0.60865
 Alpha  occ. eigenvalues --   -0.60352  -0.60102  -0.59823  -0.59613  -0.59114
 Alpha  occ. eigenvalues --   -0.58141  -0.57332  -0.56819  -0.55467  -0.54985
 Alpha  occ. eigenvalues --   -0.54359  -0.53792  -0.52964  -0.52672  -0.51634
 Alpha  occ. eigenvalues --   -0.50772  -0.50576  -0.50395  -0.50275  -0.50030
 Alpha  occ. eigenvalues --   -0.49871  -0.49690  -0.48330  -0.47662  -0.46570
 Alpha  occ. eigenvalues --   -0.46322  -0.45865  -0.45001  -0.44512  -0.44463
 Alpha  occ. eigenvalues --   -0.43930  -0.43020  -0.42669  -0.42446  -0.42296
 Alpha  occ. eigenvalues --   -0.41878  -0.41667  -0.41568  -0.41216  -0.41016
 Alpha  occ. eigenvalues --   -0.40833  -0.40742  -0.40494  -0.40358  -0.40243
 Alpha  occ. eigenvalues --   -0.40057  -0.39729  -0.39495  -0.39194  -0.39161
 Alpha  occ. eigenvalues --   -0.38892  -0.38639  -0.38454  -0.38397  -0.38277
 Alpha  occ. eigenvalues --   -0.37996  -0.37914  -0.37676  -0.37431  -0.37051
 Alpha  occ. eigenvalues --   -0.36817  -0.36509  -0.36401  -0.36286  -0.36066
 Alpha  occ. eigenvalues --   -0.36058  -0.35928  -0.35727  -0.35442  -0.35312
 Alpha  occ. eigenvalues --   -0.35245  -0.34919  -0.34736  -0.34462  -0.34432
 Alpha  occ. eigenvalues --   -0.34209  -0.33984  -0.33925  -0.33900  -0.33773
 Alpha  occ. eigenvalues --   -0.33668  -0.33312  -0.33092  -0.33057  -0.33014
 Alpha  occ. eigenvalues --   -0.32502  -0.32358  -0.32276  -0.32086  -0.32029
 Alpha  occ. eigenvalues --   -0.31754  -0.31423  -0.31410  -0.31321  -0.31299
 Alpha  occ. eigenvalues --   -0.31221  -0.31072  -0.30904  -0.30788  -0.30632
 Alpha  occ. eigenvalues --   -0.30489  -0.30422  -0.30205  -0.29821  -0.29535
 Alpha  occ. eigenvalues --   -0.29361  -0.29225  -0.28932  -0.28930  -0.28836
 Alpha  occ. eigenvalues --   -0.28802  -0.28446  -0.28374  -0.28206  -0.28026
 Alpha  occ. eigenvalues --   -0.27846  -0.27796  -0.27359  -0.27033  -0.26622
 Alpha  occ. eigenvalues --   -0.26378  -0.26179  -0.26156  -0.25921  -0.25396
 Alpha  occ. eigenvalues --   -0.25078  -0.24974  -0.24039  -0.23425  -0.23134
 Alpha  occ. eigenvalues --   -0.22973  -0.21917  -0.21536  -0.20903  -0.20652
 Alpha  occ. eigenvalues --   -0.19578  -0.19557  -0.18984  -0.18276  -0.17047
 Alpha  occ. eigenvalues --   -0.15864
 Alpha virt. eigenvalues --   -0.11633  -0.06947  -0.06300  -0.04609  -0.04302
 Alpha virt. eigenvalues --   -0.02645  -0.01957  -0.01723  -0.01355   0.00095
 Alpha virt. eigenvalues --    0.01332   0.01651   0.02104   0.02474   0.02782

 Mulliken charges:
               1
     1  Mg   0.682617
     2  C    0.049794
     3  C   -0.036585
     4  C   -0.027279
     5  C   -0.088060
     6  N   -0.183766
     7  C   -0.079351
     8  C   -0.012829
     9  C    0.018380
    10  C    0.000031
    11  C    0.132352
    12  C    0.090135
    13  C    0.104329
    14  C    0.127549
    15  O   -0.212804
    16  O   -0.290240
    17  N   -0.319632
    18  C    0.091602
    19  C   -0.165734
    20  C    0.074272
    21  C    0.139266
    22  C    0.185055
    23  C   -0.090975
    24  O   -0.159871
    25  C    0.109759
    26  N   -0.274213
    27  C    0.015162
    28  C    0.037846
    29  C    0.037464
    30  C    0.044758
    31  C    0.121728
    32  C    0.065871
    33  C    0.060310
    34  N   -0.289667
    35  C    0.145920
    36  C   -0.199132
    37  C    0.152010
    38  C    0.058754
    39  C    0.190090
    40  C   -0.117432
    41  O   -0.118126
    42  C    0.083050
    43  C    0.104501
    44  O   -0.176945
    45  O   -0.263681
    46  C    0.224518
    47  C    0.311904
    48  C   -0.115168
    49  C   -0.167586
    50  C    0.160132
    51  C    0.129856
    52  C    0.053656
    53  C    0.132511
    54  C   -0.070810
    55  C    0.079346
    56  C    0.126018
    57  C    0.014273
    58  C    0.106600
    59  C   -0.054029
    60  C    0.130426
    61  C    0.109544
    62  C    0.055560
    63  C    0.063914
    64  C   -0.049627
    65  C    0.096557
    66  C    0.097451
    67  H   -0.059614
    68  H   -0.048993
    69  H   -0.053877
    70  H    0.039703
    71  H   -0.022041
    72  H   -0.010864
    73  H    0.011947
    74  H   -0.021953
    75  H   -0.007710
    76  H   -0.009917
    77  H   -0.020151
    78  H   -0.003815
    79  H   -0.012801
    80  H    0.008954
    81  H    0.019050
    82  H    0.013574
    83  H    0.008016
    84  H   -0.018880
    85  H   -0.036128
    86  H   -0.048192
    87  H    0.003280
    88  H   -0.004686
    89  H   -0.013441
    90  H   -0.024095
    91  H   -0.020343
    92  H    0.010838
    93  H    0.003735
    94  H   -0.001670
    95  H   -0.023592
    96  H   -0.001654
    97  H   -0.001547
    98  H    0.009844
    99  H    0.022070
   100  H    0.007638
   101  H   -0.001400
   102  H   -0.011892
   103  H    0.000401
   104  H   -0.026652
   105  H    0.005515
   106  H   -0.011728
   107  H    0.019105
   108  H   -0.035962
   109  H   -0.014708
   110  H   -0.026471
   111  H   -0.045021
   112  H   -0.028824
   113  H   -0.025172
   114  H   -0.020422
   115  H   -0.012343
   116  H   -0.020815
   117  H   -0.031359
   118  H   -0.031023
   119  H   -0.022057
   120  H   -0.020422
   121  H   -0.022616
   122  H   -0.049461
   123  H   -0.043158
   124  H   -0.041918
   125  H   -0.032333
   126  H   -0.030196
   127  H   -0.014026
   128  H   -0.015931
   129  H   -0.042702
   130  H   -0.037426
   131  H   -0.029034
   132  H   -0.026732
   133  H   -0.031181
   134  H   -0.049158
   135  H   -0.021075
   136  H   -0.017572
   137  H   -0.017986
   138  H   -0.015062
   139  H   -0.028406
   140  H   -0.016792
 Sum of Mulliken charges =  -0.00000

 Dipole moment (field-independent basis, Debye):
    X=             -5.1021    Y=              2.1672    Z=              1.0958  Tot=              5.6506
 Quadrupole moment (field-independent basis, Debye-Ang):
   XX=           -381.8582   YY=           -432.3174   ZZ=           -402.8426
   XY=             23.5896   XZ=              5.5539   YZ=             -3.0419

 Normal termination of Gaussian 16 at Thu May  5 04:40:57 2022.
