 Gaussian 16, Revision A.03,
 Gaussian 16:  ES64L-G16RevA.03 25-Dec-2016

 -----------------------------------
 #p cam-b3lyp/Def2SVP td=(nstates=5)
 -----------------------------------

 -------------------------------------------------------
 step_551_chromophore_24 TDDFT with cam-b3lyp functional
 -------------------------------------------------------
 Symbolic Z-matrix:
 Charge =  0 Multiplicity = 1

                         Standard orientation:
 ---------------------------------------------------------------------
 Center     Atomic      Atomic             Coordinates (Angstroms)
 Number     Number       Type             X           Y           Z
 ---------------------------------------------------------------------
      1         12           0        5.084337    1.091180    0.274337
      2          6           0        4.025295   -2.339207    0.513603
      3          6           0        1.725868    1.981801    0.044817
      4          6           0        6.060428    4.222957   -0.356228
      5          6           0        8.432507   -0.029885    0.224438
      6          7           0        3.098905   -0.126901    0.139415
      7          6           0        2.921760   -1.443950    0.414089
      8          6           0        1.419398   -1.779812    0.171444
      9          6           0        0.722215   -0.328986   -0.045506
     10          6           0        1.917225    0.573346    0.035731
     11          6           0       -0.066277   -0.079089   -1.362100
     12          6           0        0.749495   -2.583734    1.413870
     13          6           0        0.089322   -3.958157    1.018520
     14          6           0       -0.548230   -4.029789   -0.387660
     15          8           0       -0.168543   -4.770995   -1.336765
     16          8           0       -1.645708   -3.205611   -0.488138
     17          7           0        4.047804    2.867404   -0.053648
     18          6           0        2.651116    3.059620   -0.126856
     19          6           0        2.406830    4.515390   -0.187058
     20          6           0        3.661773    5.167644   -0.297075
     21          6           0        4.666712    4.090805   -0.233296
     22          6           0        0.978798    4.992672   -0.145515
     23          6           0        3.914343    6.628648   -0.492341
     24          8           0        5.007593    7.134242   -0.279620
     25          6           0        2.730058    7.554551   -0.879668
     26          7           0        6.946633    1.911735   -0.148565
     27          6           0        7.090751    3.306968   -0.286717
     28          6           0        8.555081    3.620101   -0.619618
     29          6           0        9.264140    2.411851    0.032701
     30          6           0        8.206931    1.343252   -0.047461
     31          6           0        8.811581    3.874182   -2.148875
     32          6           0        9.864285    2.525732    1.496236
     33          6           0        8.863671    2.817341    2.675511
     34          7           0        6.052638   -0.748540    0.421801
     35          6           0        7.415000   -1.051486    0.328785
     36          6           0        7.575128   -2.417548    0.441636
     37          6           0        6.279605   -3.049157    0.514023
     38          6           0        5.389259   -1.970621    0.472614
     39          6           0        8.889127   -3.031131    0.445230
     40          6           0        5.519909   -4.235885    0.647414
     41          8           0        5.958779   -5.348245    0.858226
     42          6           0        4.051573   -3.817182    0.718725
     43          6           0        3.318389   -4.609024   -0.289929
     44          8           0        2.977802   -4.154684   -1.372598
     45          8           0        3.129208   -5.909208    0.123081
     46          6           0        2.588476   -6.810089   -0.877916
     47          6           0       -2.657279   -3.448549   -1.559557
     48          6           0       -4.047815   -3.029348   -1.086969
     49          6           0       -5.219834   -3.525616   -1.536175
     50          6           0       -5.318786   -4.655111   -2.517381
     51          6           0       -6.449073   -3.069524   -0.808575
     52          6           0       -6.326258   -3.319020    0.714438
     53          6           0       -6.393102   -2.027447    1.550497
     54          6           0       -7.788465   -1.328346    1.384620
     55          6           0       -8.698760   -1.669496    2.666300
     56          6           0       -7.623864    0.225101    1.148094
     57          6           0       -7.761592    0.527557   -0.338259
     58          6           0       -8.576390    1.854983   -0.631231
     59          6           0      -10.109356    1.588584   -0.887190
     60          6           0      -10.474752    2.105954   -2.234806
     61          6           0      -10.871285    2.251466    0.240106
     62          6           0      -12.286362    1.659303    0.307229
     63          6           0      -13.195662    2.768851    0.840343
     64          6           0      -14.704726    2.475501    0.788252
     65          6           0      -15.310743    2.656786   -0.613097
     66          6           0      -15.504174    3.386972    1.802440
     67          1           0        0.702629    2.363222    0.063516
     68          1           0        6.513645    5.212733   -0.428661
     69          1           0        9.470068   -0.331631    0.379474
     70          1           0        1.373765   -2.389695   -0.730897
     71          1           0        0.135370   -0.022108    0.820760
     72          1           0       -0.263508   -1.045586   -1.824833
     73          1           0        0.482385    0.636292   -1.974739
     74          1           0       -1.118915    0.180667   -1.248126
     75          1           0       -0.082095   -2.030685    1.850215
     76          1           0        1.491606   -2.869339    2.160097
     77          1           0       -0.687101   -4.094082    1.771777
     78          1           0        0.708761   -4.799452    1.331474
     79          1           0        0.921193    5.960246    0.352203
     80          1           0        0.459400    4.266035    0.478951
     81          1           0        0.681993    5.062872   -1.191943
     82          1           0        2.137875    7.794805    0.003530
     83          1           0        2.137780    7.267886   -1.748636
     84          1           0        3.149346    8.527812   -1.132198
     85          1           0        8.904466    4.549195   -0.170987
     86          1           0       10.140282    2.082928   -0.526068
     87          1           0        8.981399    4.945675   -2.258899
     88          1           0        7.997078    3.544430   -2.793412
     89          1           0        9.634077    3.326075   -2.609508
     90          1           0       10.605450    3.323908    1.438564
     91          1           0       10.425368    1.600025    1.618821
     92          1           0        8.299655    1.894792    2.805375
     93          1           0        8.212600    3.620835    2.331710
     94          1           0        9.295259    3.149256    3.620482
     95          1           0        8.686920   -4.089259    0.279127
     96          1           0        9.355867   -3.088183    1.428238
     97          1           0        9.516580   -2.805631   -0.417367
     98          1           0        3.651142   -4.041249    1.707257
     99          1           0        2.715349   -6.547422   -1.927492
    100          1           0        1.536198   -6.939581   -0.624948
    101          1           0        3.010439   -7.812849   -0.816299
    102          1           0       -2.693606   -4.450593   -1.987699
    103          1           0       -2.375359   -2.874421   -2.441494
    104          1           0       -3.989516   -2.345964   -0.240290
    105          1           0       -4.889711   -4.263918   -3.440383
    106          1           0       -6.351709   -4.961128   -2.681812
    107          1           0       -4.697530   -5.467396   -2.141149
    108          1           0       -7.417461   -3.365721   -1.211620
    109          1           0       -6.455711   -1.992594   -0.971858
    110          1           0       -5.449720   -3.892008    1.017189
    111          1           0       -7.094912   -4.061751    0.928159
    112          1           0       -5.587413   -1.426969    1.125889
    113          1           0       -6.209496   -2.254233    2.600484
    114          1           0       -8.367587   -1.703391    0.541283
    115          1           0       -8.251389   -2.112968    3.556386
    116          1           0       -9.563759   -2.282366    2.411959
    117          1           0       -9.179357   -0.771518    3.053529
    118          1           0       -6.595420    0.504838    1.374607
    119          1           0       -8.327213    0.888638    1.651220
    120          1           0       -8.337448   -0.216369   -0.888191
    121          1           0       -6.769173    0.590894   -0.786541
    122          1           0       -8.173509    2.484313   -1.425020
    123          1           0       -8.414060    2.480133    0.247076
    124          1           0      -10.318932    0.527867   -0.749959
    125          1           0      -11.300895    2.809850   -2.128589
    126          1           0      -10.943889    1.388672   -2.908537
    127          1           0       -9.762890    2.607799   -2.890287
    128          1           0      -10.853118    3.340608    0.268890
    129          1           0      -10.461161    1.769824    1.127600
    130          1           0      -12.214893    0.883403    1.069603
    131          1           0      -12.693140    1.181847   -0.584421
    132          1           0      -13.155351    3.697535    0.271143
    133          1           0      -12.833716    2.848726    1.865296
    134          1           0      -14.815766    1.412360    1.005484
    135          1           0      -14.495895    2.641397   -1.336063
    136          1           0      -15.914826    3.562551   -0.665174
    137          1           0      -15.976046    1.847587   -0.915296
    138          1           0      -15.440830    3.103287    2.853267
    139          1           0      -16.563965    3.330040    1.556259
    140          1           0      -15.292475    4.449782    1.686044
 ---------------------------------------------------------------------

 SCF Done:  E(RCAM-B3LYP) =  -3007.16290568     A.U. after   17 cycles

 Excitation energies and oscillator strengths:

 Excited State   1:      Singlet-A      1.6804 eV  737.81 nm  f=0.3695  <S**2>=0.000
     245 -> 248       -0.18832
     246 -> 247        0.68365
     245 <- 248       -0.11058
 This state for optimization and/or second-order correction.
 Total Energy, E(TD-HF/TD-DFT) =  -3007.10115074
 Copying the excited state density for this state as the 1-particle RhoCI density.

 Excited State   2:      Singlet-A      2.1544 eV  575.51 nm  f=0.1317  <S**2>=0.000
     245 -> 247        0.64821
     246 -> 248        0.26707

 Excited State   3:      Singlet-A      3.1129 eV  398.30 nm  f=0.0045  <S**2>=0.000
     242 -> 247       -0.11558
     244 -> 247        0.68263

 Excited State   4:      Singlet-A      3.4278 eV  361.71 nm  f=0.0128  <S**2>=0.000
     241 -> 247        0.57834
     241 -> 249        0.23882
     241 -> 250       -0.21581
     242 -> 247       -0.12326

 Excited State   5:      Singlet-A      3.4421 eV  360.20 nm  f=0.1136  <S**2>=0.000
     240 -> 247        0.18045
     242 -> 247        0.54076
     246 -> 248       -0.38028

 The electronic state is 1-A.
 Alpha  occ. eigenvalues --  -46.88062 -19.25690 -19.24323 -19.19844 -19.19325
 Alpha  occ. eigenvalues --  -19.19013 -19.17891 -14.42190 -14.41280 -14.39905
 Alpha  occ. eigenvalues --  -14.38339 -10.40343 -10.38633 -10.35653 -10.33923
 Alpha  occ. eigenvalues --  -10.32695 -10.31282 -10.31093 -10.30914 -10.30760
 Alpha  occ. eigenvalues --  -10.30653 -10.30396 -10.29753 -10.29294 -10.28493
 Alpha  occ. eigenvalues --  -10.28433 -10.28148 -10.28092 -10.28035 -10.27971
 Alpha  occ. eigenvalues --  -10.27928 -10.27919 -10.27875 -10.27759 -10.27511
 Alpha  occ. eigenvalues --  -10.27507 -10.27268 -10.27261 -10.26928 -10.26740
 Alpha  occ. eigenvalues --  -10.26579 -10.26428 -10.26397 -10.26363 -10.25834
 Alpha  occ. eigenvalues --  -10.25805 -10.25804 -10.25773 -10.25741 -10.25715
 Alpha  occ. eigenvalues --  -10.25709 -10.25606 -10.25334 -10.25274 -10.25128
 Alpha  occ. eigenvalues --  -10.24972 -10.24933 -10.24706 -10.24645 -10.24631
 Alpha  occ. eigenvalues --  -10.24594 -10.24587 -10.24434 -10.24321 -10.24283
 Alpha  occ. eigenvalues --  -10.24222  -3.16553  -1.91458  -1.91008  -1.90851
 Alpha  occ. eigenvalues --   -1.15399  -1.15151  -1.10348  -1.09514  -1.07145
 Alpha  occ. eigenvalues --   -1.05940  -1.03177  -1.02287  -1.01795  -1.01083
 Alpha  occ. eigenvalues --   -0.93074  -0.91396  -0.90798  -0.88837  -0.88712
 Alpha  occ. eigenvalues --   -0.88199  -0.87642  -0.87512  -0.87430  -0.86870
 Alpha  occ. eigenvalues --   -0.85919  -0.85030  -0.84530  -0.83030  -0.82936
 Alpha  occ. eigenvalues --   -0.82346  -0.81710  -0.81292  -0.80497  -0.80142
 Alpha  occ. eigenvalues --   -0.79989  -0.78489  -0.77421  -0.76885  -0.76252
 Alpha  occ. eigenvalues --   -0.75649  -0.75448  -0.75171  -0.74868  -0.74384
 Alpha  occ. eigenvalues --   -0.73147  -0.72234  -0.71734  -0.70311  -0.69548
 Alpha  occ. eigenvalues --   -0.69001  -0.68451  -0.67429  -0.67209  -0.65800
 Alpha  occ. eigenvalues --   -0.64980  -0.64565  -0.64541  -0.64203  -0.63968
 Alpha  occ. eigenvalues --   -0.63669  -0.63613  -0.62211  -0.61241  -0.60124
 Alpha  occ. eigenvalues --   -0.59975  -0.59416  -0.58478  -0.58079  -0.57769
 Alpha  occ. eigenvalues --   -0.57263  -0.55937  -0.55796  -0.55667  -0.55479
 Alpha  occ. eigenvalues --   -0.54872  -0.54683  -0.54449  -0.54339  -0.53875
 Alpha  occ. eigenvalues --   -0.53573  -0.53532  -0.53371  -0.53196  -0.52965
 Alpha  occ. eigenvalues --   -0.52882  -0.52793  -0.52437  -0.51835  -0.51660
 Alpha  occ. eigenvalues --   -0.51468  -0.51113  -0.50782  -0.50744  -0.50681
 Alpha  occ. eigenvalues --   -0.50580  -0.50234  -0.50128  -0.49677  -0.49580
 Alpha  occ. eigenvalues --   -0.49119  -0.48924  -0.48711  -0.48586  -0.48346
 Alpha  occ. eigenvalues --   -0.48270  -0.48066  -0.48019  -0.47761  -0.47656
 Alpha  occ. eigenvalues --   -0.47277  -0.47101  -0.46900  -0.46427  -0.46241
 Alpha  occ. eigenvalues --   -0.45958  -0.45780  -0.45694  -0.45604  -0.45535
 Alpha  occ. eigenvalues --   -0.45302  -0.45081  -0.44874  -0.44814  -0.44686
 Alpha  occ. eigenvalues --   -0.44387  -0.44120  -0.43894  -0.43790  -0.43528
 Alpha  occ. eigenvalues --   -0.43428  -0.43135  -0.42979  -0.42880  -0.42751
 Alpha  occ. eigenvalues --   -0.42605  -0.42476  -0.42464  -0.42238  -0.42138
 Alpha  occ. eigenvalues --   -0.41897  -0.41683  -0.41495  -0.41336  -0.40930
 Alpha  occ. eigenvalues --   -0.40785  -0.40470  -0.40194  -0.40122  -0.40010
 Alpha  occ. eigenvalues --   -0.39877  -0.39464  -0.39298  -0.39016  -0.38935
 Alpha  occ. eigenvalues --   -0.38738  -0.38677  -0.38221  -0.37819  -0.37459
 Alpha  occ. eigenvalues --   -0.37407  -0.37149  -0.36878  -0.36447  -0.36329
 Alpha  occ. eigenvalues --   -0.36138  -0.35903  -0.35479  -0.34053  -0.33792
 Alpha  occ. eigenvalues --   -0.33464  -0.33174  -0.32652  -0.31514  -0.31168
 Alpha  occ. eigenvalues --   -0.30230  -0.30056  -0.29214  -0.28476  -0.23712
 Alpha  occ. eigenvalues --   -0.21210
 Alpha virt. eigenvalues --   -0.08848  -0.01809   0.00150   0.02354   0.03323
 Alpha virt. eigenvalues --    0.03372   0.04775   0.05670   0.05935   0.06966
 Alpha virt. eigenvalues --    0.07707   0.08081   0.08641   0.08880   0.09081

 Mulliken charges:
               1
     1  Mg   0.813224
     2  C    0.029162
     3  C   -0.053369
     4  C   -0.053083
     5  C   -0.096575
     6  N   -0.247912
     7  C   -0.026102
     8  C   -0.074719
     9  C   -0.033820
    10  C    0.021453
    11  C    0.076117
    12  C    0.050401
    13  C    0.034570
    14  C    0.199973
    15  O   -0.252888
    16  O   -0.354667
    17  N   -0.405566
    18  C    0.103449
    19  C   -0.168604
    20  C    0.004551
    21  C    0.168634
    22  C    0.127415
    23  C   -0.012945
    24  O   -0.198379
    25  C    0.029657
    26  N   -0.346072
    27  C    0.035509
    28  C   -0.023511
    29  C   -0.023029
    30  C    0.064814
    31  C    0.067995
    32  C    0.021170
    33  C    0.001101
    34  N   -0.376912
    35  C    0.149535
    36  C   -0.194596
    37  C    0.071917
    38  C    0.088787
    39  C    0.124647
    40  C   -0.018794
    41  O   -0.157118
    42  C    0.002246
    43  C    0.188277
    44  O   -0.212109
    45  O   -0.325509
    46  C    0.185323
    47  C    0.285129
    48  C   -0.138913
    49  C   -0.181221
    50  C    0.091543
    51  C    0.068715
    52  C   -0.006608
    53  C    0.084875
    54  C   -0.133987
    55  C    0.029179
    56  C    0.074735
    57  C   -0.037646
    58  C    0.057114
    59  C   -0.113689
    60  C    0.066915
    61  C    0.055514
    62  C    0.006028
    63  C    0.011976
    64  C   -0.111132
    65  C    0.035810
    66  C    0.037916
    67  H   -0.024146
    68  H   -0.009717
    69  H   -0.018593
    70  H    0.071777
    71  H    0.011800
    72  H    0.012063
    73  H    0.037357
    74  H    0.003614
    75  H    0.021645
    76  H    0.018505
    77  H    0.015666
    78  H    0.027273
    79  H    0.014819
    80  H    0.035097
    81  H    0.046891
    82  H    0.041730
    83  H    0.036854
    84  H    0.017929
    85  H    0.000504
    86  H   -0.009959
    87  H    0.025773
    88  H    0.021026
    89  H    0.012143
    90  H    0.002934
    91  H    0.006040
    92  H    0.031523
    93  H    0.022112
    94  H    0.022664
    95  H    0.006041
    96  H    0.025381
    97  H    0.024412
    98  H    0.050613
    99  H    0.047664
   100  H    0.028677
   101  H    0.021714
   102  H    0.018356
   103  H    0.026240
   104  H    0.006080
   105  H    0.030090
   106  H    0.015230
   107  H    0.042398
   108  H   -0.004486
   109  H    0.014318
   110  H    0.005437
   111  H   -0.014427
   112  H   -0.005892
   113  H    0.004018
   114  H    0.009694
   115  H    0.010756
   116  H    0.002691
   117  H   -0.007869
   118  H   -0.001727
   119  H    0.003313
   120  H    0.003229
   121  H    0.004796
   122  H   -0.018325
   123  H   -0.013653
   124  H   -0.009739
   125  H   -0.008842
   126  H   -0.004240
   127  H    0.011814
   128  H    0.012902
   129  H   -0.014994
   130  H   -0.008816
   131  H   -0.003333
   132  H   -0.001361
   133  H   -0.002676
   134  H   -0.016398
   135  H    0.001512
   136  H    0.007218
   137  H    0.007436
   138  H    0.009888
   139  H   -0.003059
   140  H    0.006698
 Sum of Mulliken charges =  -0.00000

 Dipole moment (field-independent basis, Debye):
    X=             -5.9223    Y=              2.9996    Z=              1.0497  Tot=              6.7211
 Quadrupole moment (field-independent basis, Debye-Ang):
   XX=           -384.8013   YY=           -426.6953   ZZ=           -402.7404
   XY=             26.1932   XZ=              4.7784   YZ=             -4.0979

 Normal termination of Gaussian 16 at Thu May  5 03:20:08 2022.
