 Gaussian 16, Revision A.03,
 Gaussian 16:  ES64L-G16RevA.03 25-Dec-2016

 ---------------------------------
 #p PBE1PBE/Def2SVP td=(nstates=5)
 ---------------------------------

 -----------------------------------------------------
 step_551_chromophore_24 TDDFT with PBE1PBE functional
 -----------------------------------------------------
 Symbolic Z-matrix:
 Charge =  0 Multiplicity = 1

                         Standard orientation:
 ---------------------------------------------------------------------
 Center     Atomic      Atomic             Coordinates (Angstroms)
 Number     Number       Type             X           Y           Z
 ---------------------------------------------------------------------
      1         12           0        5.084337    1.091180    0.274337
      2          6           0        4.025295   -2.339207    0.513603
      3          6           0        1.725868    1.981801    0.044817
      4          6           0        6.060428    4.222957   -0.356228
      5          6           0        8.432507   -0.029885    0.224438
      6          7           0        3.098905   -0.126901    0.139415
      7          6           0        2.921760   -1.443950    0.414089
      8          6           0        1.419398   -1.779812    0.171444
      9          6           0        0.722215   -0.328986   -0.045506
     10          6           0        1.917225    0.573346    0.035731
     11          6           0       -0.066277   -0.079089   -1.362100
     12          6           0        0.749495   -2.583734    1.413870
     13          6           0        0.089322   -3.958157    1.018520
     14          6           0       -0.548230   -4.029789   -0.387660
     15          8           0       -0.168543   -4.770995   -1.336765
     16          8           0       -1.645708   -3.205611   -0.488138
     17          7           0        4.047804    2.867404   -0.053648
     18          6           0        2.651116    3.059620   -0.126856
     19          6           0        2.406830    4.515390   -0.187058
     20          6           0        3.661773    5.167644   -0.297075
     21          6           0        4.666712    4.090805   -0.233296
     22          6           0        0.978798    4.992672   -0.145515
     23          6           0        3.914343    6.628648   -0.492341
     24          8           0        5.007593    7.134242   -0.279620
     25          6           0        2.730058    7.554551   -0.879668
     26          7           0        6.946633    1.911735   -0.148565
     27          6           0        7.090751    3.306968   -0.286717
     28          6           0        8.555081    3.620101   -0.619618
     29          6           0        9.264140    2.411851    0.032701
     30          6           0        8.206931    1.343252   -0.047461
     31          6           0        8.811581    3.874182   -2.148875
     32          6           0        9.864285    2.525732    1.496236
     33          6           0        8.863671    2.817341    2.675511
     34          7           0        6.052638   -0.748540    0.421801
     35          6           0        7.415000   -1.051486    0.328785
     36          6           0        7.575128   -2.417548    0.441636
     37          6           0        6.279605   -3.049157    0.514023
     38          6           0        5.389259   -1.970621    0.472614
     39          6           0        8.889127   -3.031131    0.445230
     40          6           0        5.519909   -4.235885    0.647414
     41          8           0        5.958779   -5.348245    0.858226
     42          6           0        4.051573   -3.817182    0.718725
     43          6           0        3.318389   -4.609024   -0.289929
     44          8           0        2.977802   -4.154684   -1.372598
     45          8           0        3.129208   -5.909208    0.123081
     46          6           0        2.588476   -6.810089   -0.877916
     47          6           0       -2.657279   -3.448549   -1.559557
     48          6           0       -4.047815   -3.029348   -1.086969
     49          6           0       -5.219834   -3.525616   -1.536175
     50          6           0       -5.318786   -4.655111   -2.517381
     51          6           0       -6.449073   -3.069524   -0.808575
     52          6           0       -6.326258   -3.319020    0.714438
     53          6           0       -6.393102   -2.027447    1.550497
     54          6           0       -7.788465   -1.328346    1.384620
     55          6           0       -8.698760   -1.669496    2.666300
     56          6           0       -7.623864    0.225101    1.148094
     57          6           0       -7.761592    0.527557   -0.338259
     58          6           0       -8.576390    1.854983   -0.631231
     59          6           0      -10.109356    1.588584   -0.887190
     60          6           0      -10.474752    2.105954   -2.234806
     61          6           0      -10.871285    2.251466    0.240106
     62          6           0      -12.286362    1.659303    0.307229
     63          6           0      -13.195662    2.768851    0.840343
     64          6           0      -14.704726    2.475501    0.788252
     65          6           0      -15.310743    2.656786   -0.613097
     66          6           0      -15.504174    3.386972    1.802440
     67          1           0        0.702629    2.363222    0.063516
     68          1           0        6.513645    5.212733   -0.428661
     69          1           0        9.470068   -0.331631    0.379474
     70          1           0        1.373765   -2.389695   -0.730897
     71          1           0        0.135370   -0.022108    0.820760
     72          1           0       -0.263508   -1.045586   -1.824833
     73          1           0        0.482385    0.636292   -1.974739
     74          1           0       -1.118915    0.180667   -1.248126
     75          1           0       -0.082095   -2.030685    1.850215
     76          1           0        1.491606   -2.869339    2.160097
     77          1           0       -0.687101   -4.094082    1.771777
     78          1           0        0.708761   -4.799452    1.331474
     79          1           0        0.921193    5.960246    0.352203
     80          1           0        0.459400    4.266035    0.478951
     81          1           0        0.681993    5.062872   -1.191943
     82          1           0        2.137875    7.794805    0.003530
     83          1           0        2.137780    7.267886   -1.748636
     84          1           0        3.149346    8.527812   -1.132198
     85          1           0        8.904466    4.549195   -0.170987
     86          1           0       10.140282    2.082928   -0.526068
     87          1           0        8.981399    4.945675   -2.258899
     88          1           0        7.997078    3.544430   -2.793412
     89          1           0        9.634077    3.326075   -2.609508
     90          1           0       10.605450    3.323908    1.438564
     91          1           0       10.425368    1.600025    1.618821
     92          1           0        8.299655    1.894792    2.805375
     93          1           0        8.212600    3.620835    2.331710
     94          1           0        9.295259    3.149256    3.620482
     95          1           0        8.686920   -4.089259    0.279127
     96          1           0        9.355867   -3.088183    1.428238
     97          1           0        9.516580   -2.805631   -0.417367
     98          1           0        3.651142   -4.041249    1.707257
     99          1           0        2.715349   -6.547422   -1.927492
    100          1           0        1.536198   -6.939581   -0.624948
    101          1           0        3.010439   -7.812849   -0.816299
    102          1           0       -2.693606   -4.450593   -1.987699
    103          1           0       -2.375359   -2.874421   -2.441494
    104          1           0       -3.989516   -2.345964   -0.240290
    105          1           0       -4.889711   -4.263918   -3.440383
    106          1           0       -6.351709   -4.961128   -2.681812
    107          1           0       -4.697530   -5.467396   -2.141149
    108          1           0       -7.417461   -3.365721   -1.211620
    109          1           0       -6.455711   -1.992594   -0.971858
    110          1           0       -5.449720   -3.892008    1.017189
    111          1           0       -7.094912   -4.061751    0.928159
    112          1           0       -5.587413   -1.426969    1.125889
    113          1           0       -6.209496   -2.254233    2.600484
    114          1           0       -8.367587   -1.703391    0.541283
    115          1           0       -8.251389   -2.112968    3.556386
    116          1           0       -9.563759   -2.282366    2.411959
    117          1           0       -9.179357   -0.771518    3.053529
    118          1           0       -6.595420    0.504838    1.374607
    119          1           0       -8.327213    0.888638    1.651220
    120          1           0       -8.337448   -0.216369   -0.888191
    121          1           0       -6.769173    0.590894   -0.786541
    122          1           0       -8.173509    2.484313   -1.425020
    123          1           0       -8.414060    2.480133    0.247076
    124          1           0      -10.318932    0.527867   -0.749959
    125          1           0      -11.300895    2.809850   -2.128589
    126          1           0      -10.943889    1.388672   -2.908537
    127          1           0       -9.762890    2.607799   -2.890287
    128          1           0      -10.853118    3.340608    0.268890
    129          1           0      -10.461161    1.769824    1.127600
    130          1           0      -12.214893    0.883403    1.069603
    131          1           0      -12.693140    1.181847   -0.584421
    132          1           0      -13.155351    3.697535    0.271143
    133          1           0      -12.833716    2.848726    1.865296
    134          1           0      -14.815766    1.412360    1.005484
    135          1           0      -14.495895    2.641397   -1.336063
    136          1           0      -15.914826    3.562551   -0.665174
    137          1           0      -15.976046    1.847587   -0.915296
    138          1           0      -15.440830    3.103287    2.853267
    139          1           0      -16.563965    3.330040    1.556259
    140          1           0      -15.292475    4.449782    1.686044
 ---------------------------------------------------------------------

 SCF Done:  E(RPBE1PBE) =  -3005.35145796     A.U. after   15 cycles

 Excitation energies and oscillator strengths:

 Excited State   1:      Singlet-A      1.8342 eV  675.97 nm  f=0.3565  <S**2>=0.000
     245 -> 248       -0.18436
     246 -> 247        0.69061
     246 <- 247       -0.10600
 This state for optimization and/or second-order correction.
 Total Energy, E(TD-HF/TD-DFT) =  -3005.28405367
 Copying the excited state density for this state as the 1-particle RhoCI density.

 Excited State   2:      Singlet-A      2.1601 eV  573.97 nm  f=0.1215  <S**2>=0.000
     245 -> 247        0.65732
     246 -> 248        0.24463

 Excited State   3:      Singlet-A      2.7878 eV  444.75 nm  f=0.0078  <S**2>=0.000
     244 -> 247        0.68659

 Excited State   4:      Singlet-A      2.8971 eV  427.95 nm  f=0.0001  <S**2>=0.000
     242 -> 247        0.67425
     242 -> 249        0.12859

 Excited State   5:      Singlet-A      3.1287 eV  396.28 nm  f=0.0036  <S**2>=0.000
     240 -> 247        0.18476
     241 -> 247        0.65357
     246 -> 248       -0.11553

 The electronic state is 1-A.
 Alpha  occ. eigenvalues --  -46.91474 -19.26342 -19.24967 -19.20123 -19.19390
 Alpha  occ. eigenvalues --  -19.19216 -19.18227 -14.41573 -14.40949 -14.39496
 Alpha  occ. eigenvalues --  -14.38142 -10.37410 -10.35604 -10.32648 -10.31134
 Alpha  occ. eigenvalues --  -10.30098 -10.28942 -10.28894 -10.28378 -10.28363
 Alpha  occ. eigenvalues --  -10.28271 -10.28196 -10.26991 -10.26709 -10.26355
 Alpha  occ. eigenvalues --  -10.26344 -10.25998 -10.25764 -10.25740 -10.25685
 Alpha  occ. eigenvalues --  -10.25572 -10.25486 -10.25473 -10.25402 -10.25158
 Alpha  occ. eigenvalues --  -10.25031 -10.24916 -10.24763 -10.24686 -10.24460
 Alpha  occ. eigenvalues --  -10.24423 -10.24288 -10.23762 -10.23591 -10.23444
 Alpha  occ. eigenvalues --  -10.23386 -10.23358 -10.23315 -10.23302 -10.23290
 Alpha  occ. eigenvalues --  -10.23286 -10.23231 -10.22906 -10.22726 -10.22693
 Alpha  occ. eigenvalues --  -10.22493 -10.22407 -10.22242 -10.22241 -10.22162
 Alpha  occ. eigenvalues --  -10.22119 -10.22119 -10.22033 -10.21911 -10.21808
 Alpha  occ. eigenvalues --  -10.21645  -3.13547  -1.86393  -1.85921  -1.85768
 Alpha  occ. eigenvalues --   -1.10141  -1.09936  -1.04944  -1.04364  -1.01941
 Alpha  occ. eigenvalues --   -1.00772  -0.97731  -0.96883  -0.96438  -0.95728
 Alpha  occ. eigenvalues --   -0.87508  -0.85517  -0.84894  -0.82948  -0.82904
 Alpha  occ. eigenvalues --   -0.82360  -0.81850  -0.81734  -0.81615  -0.81146
 Alpha  occ. eigenvalues --   -0.80405  -0.79238  -0.78704  -0.77377  -0.77166
 Alpha  occ. eigenvalues --   -0.76528  -0.75877  -0.75451  -0.74773  -0.74336
 Alpha  occ. eigenvalues --   -0.74245  -0.72676  -0.71688  -0.71205  -0.70420
 Alpha  occ. eigenvalues --   -0.69988  -0.69565  -0.69242  -0.69216  -0.68547
 Alpha  occ. eigenvalues --   -0.67449  -0.66729  -0.66132  -0.64597  -0.63920
 Alpha  occ. eigenvalues --   -0.63228  -0.62890  -0.61702  -0.61589  -0.60264
 Alpha  occ. eigenvalues --   -0.59164  -0.59047  -0.58837  -0.58587  -0.58417
 Alpha  occ. eigenvalues --   -0.58178  -0.57849  -0.56418  -0.55852  -0.54578
 Alpha  occ. eigenvalues --   -0.54393  -0.53984  -0.52996  -0.52500  -0.52331
 Alpha  occ. eigenvalues --   -0.51923  -0.50353  -0.50224  -0.50186  -0.49944
 Alpha  occ. eigenvalues --   -0.49350  -0.49223  -0.48927  -0.48728  -0.48405
 Alpha  occ. eigenvalues --   -0.48090  -0.48035  -0.47871  -0.47735  -0.47532
 Alpha  occ. eigenvalues --   -0.47239  -0.47149  -0.47008  -0.46440  -0.46243
 Alpha  occ. eigenvalues --   -0.46016  -0.45653  -0.45398  -0.45293  -0.45223
 Alpha  occ. eigenvalues --   -0.44996  -0.44931  -0.44667  -0.44252  -0.44129
 Alpha  occ. eigenvalues --   -0.43734  -0.43510  -0.43285  -0.43237  -0.42976
 Alpha  occ. eigenvalues --   -0.42877  -0.42710  -0.42650  -0.42424  -0.42268
 Alpha  occ. eigenvalues --   -0.41906  -0.41716  -0.41554  -0.41100  -0.40858
 Alpha  occ. eigenvalues --   -0.40564  -0.40525  -0.40506  -0.40285  -0.40209
 Alpha  occ. eigenvalues --   -0.39945  -0.39810  -0.39684  -0.39560  -0.39228
 Alpha  occ. eigenvalues --   -0.39111  -0.38793  -0.38616  -0.38462  -0.38268
 Alpha  occ. eigenvalues --   -0.38189  -0.37931  -0.37798  -0.37641  -0.37571
 Alpha  occ. eigenvalues --   -0.37305  -0.37256  -0.37186  -0.37026  -0.36943
 Alpha  occ. eigenvalues --   -0.36690  -0.36361  -0.36296  -0.36222  -0.35698
 Alpha  occ. eigenvalues --   -0.35660  -0.35244  -0.35112  -0.35051  -0.34926
 Alpha  occ. eigenvalues --   -0.34678  -0.34387  -0.34062  -0.34007  -0.33795
 Alpha  occ. eigenvalues --   -0.33697  -0.33490  -0.32962  -0.32629  -0.32457
 Alpha  occ. eigenvalues --   -0.32205  -0.31947  -0.31718  -0.31532  -0.31304
 Alpha  occ. eigenvalues --   -0.31164  -0.30844  -0.30392  -0.29134  -0.28731
 Alpha  occ. eigenvalues --   -0.28465  -0.28286  -0.27919  -0.26804  -0.26141
 Alpha  occ. eigenvalues --   -0.25584  -0.25181  -0.24471  -0.24287  -0.20672
 Alpha  occ. eigenvalues --   -0.18807
 Alpha virt. eigenvalues --   -0.11259  -0.05292  -0.04016  -0.02029  -0.01202
 Alpha virt. eigenvalues --    0.00314   0.00498   0.01265   0.01442   0.03084
 Alpha virt. eigenvalues --    0.04480   0.04502   0.04668   0.05378   0.05718

 Mulliken charges:
               1
     1  Mg   0.962164
     2  C    0.019040
     3  C   -0.055904
     4  C   -0.043259
     5  C   -0.088109
     6  N   -0.350459
     7  C    0.067084
     8  C   -0.154983
     9  C   -0.107459
    10  C    0.057251
    11  C    0.016838
    12  C    0.006103
    13  C   -0.038154
    14  C    0.257871
    15  O   -0.284673
    16  O   -0.383898
    17  N   -0.513750
    18  C    0.135246
    19  C   -0.199242
    20  C   -0.043154
    21  C    0.192691
    22  C    0.064530
    23  C    0.038526
    24  O   -0.235112
    25  C   -0.041686
    26  N   -0.442437
    27  C    0.059864
    28  C   -0.104797
    29  C   -0.097621
    30  C    0.107860
    31  C    0.017517
    32  C   -0.039089
    33  C   -0.075047
    34  N   -0.499342
    35  C    0.176455
    36  C   -0.219682
    37  C    0.026971
    38  C    0.126494
    39  C    0.067657
    40  C    0.080108
    41  O   -0.202630
    42  C   -0.111877
    43  C    0.277732
    44  O   -0.246682
    45  O   -0.358850
    46  C    0.130989
    47  C    0.252014
    48  C   -0.159225
    49  C   -0.218847
    50  C    0.024881
    51  C    0.002455
    52  C   -0.069245
    53  C    0.021983
    54  C   -0.221414
    55  C   -0.024176
    56  C    0.021214
    57  C   -0.103266
    58  C    0.008858
    59  C   -0.203612
    60  C    0.013240
    61  C   -0.010307
    62  C   -0.051303
    63  C   -0.045055
    64  C   -0.203452
    65  C   -0.025382
    66  C   -0.025096
    67  H    0.005734
    68  H    0.022470
    69  H    0.012813
    70  H    0.110307
    71  H    0.048228
    72  H    0.042398
    73  H    0.065233
    74  H    0.030982
    75  H    0.052149
    76  H    0.050944
    77  H    0.048681
    78  H    0.058802
    79  H    0.043496
    80  H    0.060801
    81  H    0.074510
    82  H    0.067531
    83  H    0.062359
    84  H    0.045414
    85  H    0.036609
    86  H    0.027909
    87  H    0.052123
    88  H    0.048244
    89  H    0.038691
    90  H    0.037104
    91  H    0.038722
    92  H    0.060480
    93  H    0.053014
    94  H    0.051051
    95  H    0.037170
    96  H    0.054964
    97  H    0.052305
    98  H    0.086815
    99  H    0.068289
   100  H    0.051530
   101  H    0.044005
   102  H    0.043335
   103  H    0.052532
   104  H    0.038741
   105  H    0.058370
   106  H    0.042447
   107  H    0.068906
   108  H    0.025814
   109  H    0.054898
   110  H    0.038480
   111  H    0.019898
   112  H    0.027848
   113  H    0.036067
   114  H    0.047591
   115  H    0.036568
   116  H    0.029855
   117  H    0.019398
   118  H    0.031749
   119  H    0.034644
   120  H    0.034870
   121  H    0.036839
   122  H    0.013837
   123  H    0.019899
   124  H    0.027460
   125  H    0.019999
   126  H    0.023526
   127  H    0.037618
   128  H    0.043296
   129  H    0.024365
   130  H    0.025137
   131  H    0.027680
   132  H    0.031135
   133  H    0.030870
   134  H    0.021966
   135  H    0.029566
   136  H    0.034579
   137  H    0.035339
   138  H    0.037961
   139  H    0.025588
   140  H    0.034095
 Sum of Mulliken charges =  -0.00000

 Dipole moment (field-independent basis, Debye):
    X=             -5.6010    Y=              2.6833    Z=              1.1141  Tot=              6.3097
 Quadrupole moment (field-independent basis, Debye-Ang):
   XX=           -375.3762   YY=           -424.8717   ZZ=           -400.1845
   XY=             25.4530   XZ=              5.0625   YZ=             -4.0913

 Normal termination of Gaussian 16 at Thu May  5 03:47:04 2022.
