 Gaussian 16, Revision A.03,
 Gaussian 16:  ES64L-G16RevA.03 25-Dec-2016

 --------------------------------
 #p wB97XD/Def2SVP td=(nstates=5)
 --------------------------------

 ----------------------------------------------------
 step_551_chromophore_24 TDDFT with wB97XD functional
 ----------------------------------------------------
 Symbolic Z-matrix:
 Charge =  0 Multiplicity = 1

                         Standard orientation:
 ---------------------------------------------------------------------
 Center     Atomic      Atomic             Coordinates (Angstroms)
 Number     Number       Type             X           Y           Z
 ---------------------------------------------------------------------
      1         12           0        5.084337    1.091180    0.274337
      2          6           0        4.025295   -2.339207    0.513603
      3          6           0        1.725868    1.981801    0.044817
      4          6           0        6.060428    4.222957   -0.356228
      5          6           0        8.432507   -0.029885    0.224438
      6          7           0        3.098905   -0.126901    0.139415
      7          6           0        2.921760   -1.443950    0.414089
      8          6           0        1.419398   -1.779812    0.171444
      9          6           0        0.722215   -0.328986   -0.045506
     10          6           0        1.917225    0.573346    0.035731
     11          6           0       -0.066277   -0.079089   -1.362100
     12          6           0        0.749495   -2.583734    1.413870
     13          6           0        0.089322   -3.958157    1.018520
     14          6           0       -0.548230   -4.029789   -0.387660
     15          8           0       -0.168543   -4.770995   -1.336765
     16          8           0       -1.645708   -3.205611   -0.488138
     17          7           0        4.047804    2.867404   -0.053648
     18          6           0        2.651116    3.059620   -0.126856
     19          6           0        2.406830    4.515390   -0.187058
     20          6           0        3.661773    5.167644   -0.297075
     21          6           0        4.666712    4.090805   -0.233296
     22          6           0        0.978798    4.992672   -0.145515
     23          6           0        3.914343    6.628648   -0.492341
     24          8           0        5.007593    7.134242   -0.279620
     25          6           0        2.730058    7.554551   -0.879668
     26          7           0        6.946633    1.911735   -0.148565
     27          6           0        7.090751    3.306968   -0.286717
     28          6           0        8.555081    3.620101   -0.619618
     29          6           0        9.264140    2.411851    0.032701
     30          6           0        8.206931    1.343252   -0.047461
     31          6           0        8.811581    3.874182   -2.148875
     32          6           0        9.864285    2.525732    1.496236
     33          6           0        8.863671    2.817341    2.675511
     34          7           0        6.052638   -0.748540    0.421801
     35          6           0        7.415000   -1.051486    0.328785
     36          6           0        7.575128   -2.417548    0.441636
     37          6           0        6.279605   -3.049157    0.514023
     38          6           0        5.389259   -1.970621    0.472614
     39          6           0        8.889127   -3.031131    0.445230
     40          6           0        5.519909   -4.235885    0.647414
     41          8           0        5.958779   -5.348245    0.858226
     42          6           0        4.051573   -3.817182    0.718725
     43          6           0        3.318389   -4.609024   -0.289929
     44          8           0        2.977802   -4.154684   -1.372598
     45          8           0        3.129208   -5.909208    0.123081
     46          6           0        2.588476   -6.810089   -0.877916
     47          6           0       -2.657279   -3.448549   -1.559557
     48          6           0       -4.047815   -3.029348   -1.086969
     49          6           0       -5.219834   -3.525616   -1.536175
     50          6           0       -5.318786   -4.655111   -2.517381
     51          6           0       -6.449073   -3.069524   -0.808575
     52          6           0       -6.326258   -3.319020    0.714438
     53          6           0       -6.393102   -2.027447    1.550497
     54          6           0       -7.788465   -1.328346    1.384620
     55          6           0       -8.698760   -1.669496    2.666300
     56          6           0       -7.623864    0.225101    1.148094
     57          6           0       -7.761592    0.527557   -0.338259
     58          6           0       -8.576390    1.854983   -0.631231
     59          6           0      -10.109356    1.588584   -0.887190
     60          6           0      -10.474752    2.105954   -2.234806
     61          6           0      -10.871285    2.251466    0.240106
     62          6           0      -12.286362    1.659303    0.307229
     63          6           0      -13.195662    2.768851    0.840343
     64          6           0      -14.704726    2.475501    0.788252
     65          6           0      -15.310743    2.656786   -0.613097
     66          6           0      -15.504174    3.386972    1.802440
     67          1           0        0.702629    2.363222    0.063516
     68          1           0        6.513645    5.212733   -0.428661
     69          1           0        9.470068   -0.331631    0.379474
     70          1           0        1.373765   -2.389695   -0.730897
     71          1           0        0.135370   -0.022108    0.820760
     72          1           0       -0.263508   -1.045586   -1.824833
     73          1           0        0.482385    0.636292   -1.974739
     74          1           0       -1.118915    0.180667   -1.248126
     75          1           0       -0.082095   -2.030685    1.850215
     76          1           0        1.491606   -2.869339    2.160097
     77          1           0       -0.687101   -4.094082    1.771777
     78          1           0        0.708761   -4.799452    1.331474
     79          1           0        0.921193    5.960246    0.352203
     80          1           0        0.459400    4.266035    0.478951
     81          1           0        0.681993    5.062872   -1.191943
     82          1           0        2.137875    7.794805    0.003530
     83          1           0        2.137780    7.267886   -1.748636
     84          1           0        3.149346    8.527812   -1.132198
     85          1           0        8.904466    4.549195   -0.170987
     86          1           0       10.140282    2.082928   -0.526068
     87          1           0        8.981399    4.945675   -2.258899
     88          1           0        7.997078    3.544430   -2.793412
     89          1           0        9.634077    3.326075   -2.609508
     90          1           0       10.605450    3.323908    1.438564
     91          1           0       10.425368    1.600025    1.618821
     92          1           0        8.299655    1.894792    2.805375
     93          1           0        8.212600    3.620835    2.331710
     94          1           0        9.295259    3.149256    3.620482
     95          1           0        8.686920   -4.089259    0.279127
     96          1           0        9.355867   -3.088183    1.428238
     97          1           0        9.516580   -2.805631   -0.417367
     98          1           0        3.651142   -4.041249    1.707257
     99          1           0        2.715349   -6.547422   -1.927492
    100          1           0        1.536198   -6.939581   -0.624948
    101          1           0        3.010439   -7.812849   -0.816299
    102          1           0       -2.693606   -4.450593   -1.987699
    103          1           0       -2.375359   -2.874421   -2.441494
    104          1           0       -3.989516   -2.345964   -0.240290
    105          1           0       -4.889711   -4.263918   -3.440383
    106          1           0       -6.351709   -4.961128   -2.681812
    107          1           0       -4.697530   -5.467396   -2.141149
    108          1           0       -7.417461   -3.365721   -1.211620
    109          1           0       -6.455711   -1.992594   -0.971858
    110          1           0       -5.449720   -3.892008    1.017189
    111          1           0       -7.094912   -4.061751    0.928159
    112          1           0       -5.587413   -1.426969    1.125889
    113          1           0       -6.209496   -2.254233    2.600484
    114          1           0       -8.367587   -1.703391    0.541283
    115          1           0       -8.251389   -2.112968    3.556386
    116          1           0       -9.563759   -2.282366    2.411959
    117          1           0       -9.179357   -0.771518    3.053529
    118          1           0       -6.595420    0.504838    1.374607
    119          1           0       -8.327213    0.888638    1.651220
    120          1           0       -8.337448   -0.216369   -0.888191
    121          1           0       -6.769173    0.590894   -0.786541
    122          1           0       -8.173509    2.484313   -1.425020
    123          1           0       -8.414060    2.480133    0.247076
    124          1           0      -10.318932    0.527867   -0.749959
    125          1           0      -11.300895    2.809850   -2.128589
    126          1           0      -10.943889    1.388672   -2.908537
    127          1           0       -9.762890    2.607799   -2.890287
    128          1           0      -10.853118    3.340608    0.268890
    129          1           0      -10.461161    1.769824    1.127600
    130          1           0      -12.214893    0.883403    1.069603
    131          1           0      -12.693140    1.181847   -0.584421
    132          1           0      -13.155351    3.697535    0.271143
    133          1           0      -12.833716    2.848726    1.865296
    134          1           0      -14.815766    1.412360    1.005484
    135          1           0      -14.495895    2.641397   -1.336063
    136          1           0      -15.914826    3.562551   -0.665174
    137          1           0      -15.976046    1.847587   -0.915296
    138          1           0      -15.440830    3.103287    2.853267
    139          1           0      -16.563965    3.330040    1.556259
    140          1           0      -15.292475    4.449782    1.686044
 ---------------------------------------------------------------------

 SCF Done:  E(RwB97XD) =  -3007.86519538     A.U. after   17 cycles

 Excitation energies and oscillator strengths:

 Excited State   1:      Singlet-A      1.6228 eV  764.00 nm  f=0.3684  <S**2>=0.000
     245 -> 248        0.19320
     246 -> 247        0.68144
     245 <- 248        0.11992
 This state for optimization and/or second-order correction.
 Total Energy, E(TD-HF/TD-DFT) =  -3007.80555774
 Copying the excited state density for this state as the 1-particle RhoCI density.

 Excited State   2:      Singlet-A      2.0989 eV  590.70 nm  f=0.1275  <S**2>=0.000
     245 -> 247        0.64561
     246 -> 248       -0.26941

 Excited State   3:      Singlet-A      3.1387 eV  395.02 nm  f=0.0037  <S**2>=0.000
     241 -> 247       -0.12262
     244 -> 247        0.67268

 Excited State   4:      Singlet-A      3.4516 eV  359.21 nm  f=0.1562  <S**2>=0.000
     239 -> 247       -0.11311
     240 -> 247        0.13636
     241 -> 247        0.51265
     245 -> 247        0.11244
     246 -> 248        0.41719

 Excited State   5:      Singlet-A      3.4681 eV  357.50 nm  f=0.0028  <S**2>=0.000
     242 -> 247        0.58033
     242 -> 249       -0.25008
     242 -> 250        0.22818

 The electronic state is 1-A.
 Alpha  occ. eigenvalues --  -46.94390 -19.30900 -19.29516 -19.24771 -19.24369
 Alpha  occ. eigenvalues --  -19.23911 -19.22902 -14.46802 -14.45874 -14.44536
 Alpha  occ. eigenvalues --  -14.42948 -10.44186 -10.42447 -10.39648 -10.37887
 Alpha  occ. eigenvalues --  -10.36605 -10.35329 -10.35096 -10.35002 -10.34836
 Alpha  occ. eigenvalues --  -10.34761 -10.34387 -10.33493 -10.33474 -10.32593
 Alpha  occ. eigenvalues --  -10.32403 -10.32179 -10.32116 -10.32079 -10.32045
 Alpha  occ. eigenvalues --  -10.31976 -10.31891 -10.31884 -10.31804 -10.31634
 Alpha  occ. eigenvalues --  -10.31479 -10.31289 -10.31267 -10.30968 -10.30677
 Alpha  occ. eigenvalues --  -10.30585 -10.30402 -10.30320 -10.30230 -10.29793
 Alpha  occ. eigenvalues --  -10.29763 -10.29692 -10.29688 -10.29684 -10.29675
 Alpha  occ. eigenvalues --  -10.29658 -10.29587 -10.29281 -10.29097 -10.29074
 Alpha  occ. eigenvalues --  -10.28870 -10.28829 -10.28632 -10.28589 -10.28541
 Alpha  occ. eigenvalues --  -10.28509 -10.28478 -10.28248 -10.28224 -10.28163
 Alpha  occ. eigenvalues --  -10.28098  -3.20330  -1.93923  -1.93454  -1.93297
 Alpha  occ. eigenvalues --   -1.17531  -1.17321  -1.12584  -1.11714  -1.09301
 Alpha  occ. eigenvalues --   -1.08117  -1.05172  -1.04279  -1.03828  -1.03109
 Alpha  occ. eigenvalues --   -0.95054  -0.93205  -0.92566  -0.90665  -0.90614
 Alpha  occ. eigenvalues --   -0.90036  -0.89489  -0.89362  -0.89335  -0.88800
 Alpha  occ. eigenvalues --   -0.87833  -0.86909  -0.86384  -0.84948  -0.84818
 Alpha  occ. eigenvalues --   -0.84193  -0.83608  -0.83179  -0.82408  -0.82005
 Alpha  occ. eigenvalues --   -0.81925  -0.80469  -0.79322  -0.78769  -0.78104
 Alpha  occ. eigenvalues --   -0.77569  -0.77256  -0.76958  -0.76813  -0.76227
 Alpha  occ. eigenvalues --   -0.75069  -0.74198  -0.73695  -0.72239  -0.71464
 Alpha  occ. eigenvalues --   -0.70878  -0.70447  -0.69309  -0.69217  -0.67766
 Alpha  occ. eigenvalues --   -0.66830  -0.66553  -0.66418  -0.66122  -0.65924
 Alpha  occ. eigenvalues --   -0.65592  -0.65495  -0.64055  -0.63220  -0.62090
 Alpha  occ. eigenvalues --   -0.61925  -0.61414  -0.60416  -0.60011  -0.59732
 Alpha  occ. eigenvalues --   -0.59269  -0.57787  -0.57719  -0.57635  -0.57395
 Alpha  occ. eigenvalues --   -0.56764  -0.56635  -0.56405  -0.56197  -0.55795
 Alpha  occ. eigenvalues --   -0.55487  -0.55445  -0.55267  -0.55123  -0.54909
 Alpha  occ. eigenvalues --   -0.54823  -0.54656  -0.54378  -0.53747  -0.53555
 Alpha  occ. eigenvalues --   -0.53360  -0.53009  -0.52684  -0.52631  -0.52618
 Alpha  occ. eigenvalues --   -0.52510  -0.52128  -0.52019  -0.51609  -0.51460
 Alpha  occ. eigenvalues --   -0.51066  -0.50819  -0.50636  -0.50555  -0.50241
 Alpha  occ. eigenvalues --   -0.50154  -0.49969  -0.49924  -0.49690  -0.49603
 Alpha  occ. eigenvalues --   -0.49221  -0.48989  -0.48844  -0.48381  -0.48112
 Alpha  occ. eigenvalues --   -0.47818  -0.47702  -0.47608  -0.47487  -0.47405
 Alpha  occ. eigenvalues --   -0.47164  -0.46990  -0.46786  -0.46725  -0.46510
 Alpha  occ. eigenvalues --   -0.46275  -0.46064  -0.45786  -0.45669  -0.45455
 Alpha  occ. eigenvalues --   -0.45358  -0.45076  -0.44870  -0.44817  -0.44658
 Alpha  occ. eigenvalues --   -0.44455  -0.44441  -0.44348  -0.44145  -0.44011
 Alpha  occ. eigenvalues --   -0.43782  -0.43517  -0.43405  -0.43284  -0.42845
 Alpha  occ. eigenvalues --   -0.42717  -0.42345  -0.42111  -0.42061  -0.41918
 Alpha  occ. eigenvalues --   -0.41746  -0.41345  -0.41135  -0.40894  -0.40798
 Alpha  occ. eigenvalues --   -0.40637  -0.40539  -0.40060  -0.39671  -0.39382
 Alpha  occ. eigenvalues --   -0.39262  -0.38997  -0.38752  -0.38564  -0.38293
 Alpha  occ. eigenvalues --   -0.38072  -0.37765  -0.37452  -0.35985  -0.35733
 Alpha  occ. eigenvalues --   -0.35302  -0.35087  -0.34865  -0.33501  -0.33353
 Alpha  occ. eigenvalues --   -0.32281  -0.32159  -0.31259  -0.30613  -0.25623
 Alpha  occ. eigenvalues --   -0.23003
 Alpha virt. eigenvalues --   -0.07203   0.00110   0.02219   0.04485   0.05586
 Alpha virt. eigenvalues --    0.06377   0.07015   0.08023   0.08192   0.09635
 Alpha virt. eigenvalues --    0.10881   0.11160   0.11377   0.12057   0.12394

 Mulliken charges:
               1
     1  Mg   0.949674
     2  C    0.020992
     3  C   -0.067191
     4  C   -0.064155
     5  C   -0.105560
     6  N   -0.313350
     7  C    0.024536
     8  C   -0.124619
     9  C   -0.083611
    10  C    0.047440
    11  C    0.030742
    12  C    0.014716
    13  C   -0.020679
    14  C    0.243523
    15  O   -0.279226
    16  O   -0.381698
    17  N   -0.486455
    18  C    0.123429
    19  C   -0.185516
    20  C   -0.038592
    21  C    0.191441
    22  C    0.078501
    23  C    0.033873
    24  O   -0.228993
    25  C   -0.032260
    26  N   -0.416636
    27  C    0.054388
    28  C   -0.080165
    29  C   -0.071771
    30  C    0.092185
    31  C    0.022667
    32  C   -0.025435
    33  C   -0.052604
    34  N   -0.464650
    35  C    0.165993
    36  C   -0.211708
    37  C    0.029259
    38  C    0.113270
    39  C    0.074409
    40  C    0.059674
    41  O   -0.193677
    42  C   -0.071718
    43  C    0.251316
    44  O   -0.238794
    45  O   -0.356055
    46  C    0.146009
    47  C    0.264192
    48  C   -0.165257
    49  C   -0.202953
    50  C    0.037471
    51  C    0.024040
    52  C   -0.052438
    53  C    0.044934
    54  C   -0.191100
    55  C   -0.012762
    56  C    0.037063
    57  C   -0.083395
    58  C    0.025487
    59  C   -0.172594
    60  C    0.020644
    61  C    0.013663
    62  C   -0.039175
    63  C   -0.025513
    64  C   -0.175496
    65  C   -0.013796
    66  C   -0.011916
    67  H   -0.000714
    68  H    0.017642
    69  H    0.007193
    70  H    0.093808
    71  H    0.037565
    72  H    0.033249
    73  H    0.058544
    74  H    0.026086
    75  H    0.045516
    76  H    0.042783
    77  H    0.043348
    78  H    0.052078
    79  H    0.037737
    80  H    0.056765
    81  H    0.071079
    82  H    0.063359
    83  H    0.059049
    84  H    0.044236
    85  H    0.028358
    86  H    0.018762
    87  H    0.047295
    88  H    0.042561
    89  H    0.034122
    90  H    0.028738
    91  H    0.030323
    92  H    0.051544
    93  H    0.041001
    94  H    0.046729
    95  H    0.031355
    96  H    0.049913
    97  H    0.047203
    98  H    0.079753
    99  H    0.064977
   100  H    0.046502
   101  H    0.040486
   102  H    0.037239
   103  H    0.048083
   104  H    0.031919
   105  H    0.052567
   106  H    0.038724
   107  H    0.062797
   108  H    0.020734
   109  H    0.035429
   110  H    0.029522
   111  H    0.011726
   112  H    0.012449
   113  H    0.029019
   114  H    0.031440
   115  H    0.030863
   116  H    0.024314
   117  H    0.012666
   118  H    0.023475
   119  H    0.021458
   120  H    0.021218
   121  H    0.030043
   122  H    0.006257
   123  H    0.008523
   124  H    0.013966
   125  H    0.011064
   126  H    0.018314
   127  H    0.032874
   128  H    0.035331
   129  H    0.008588
   130  H    0.017086
   131  H    0.017724
   132  H    0.018838
   133  H    0.021739
   134  H    0.011427
   135  H    0.021381
   136  H    0.028668
   137  H    0.030412
   138  H    0.032971
   139  H    0.018710
   140  H    0.027480
 Sum of Mulliken charges =  -0.00000

 Dipole moment (field-independent basis, Debye):
    X=             -6.0483    Y=              3.1228    Z=              1.0788  Tot=              6.8919
 Quadrupole moment (field-independent basis, Debye-Ang):
   XX=           -379.8067   YY=           -422.1761   ZZ=           -399.8069
   XY=             26.6736   XZ=              4.8005   YZ=             -4.3133

 Normal termination of Gaussian 16 at Thu May  5 04:23:57 2022.
