 Gaussian 16, Revision A.03,
 Gaussian 16:  ES64L-G16RevA.03 25-Dec-2016

 --------------------
 #p ZINDO=(nstates=5)
 --------------------

 -----------------------------
 step_551_chromophore_24 ZINDO
 -----------------------------
 Symbolic Z-matrix:
 Charge =  0 Multiplicity = 1

                         Standard orientation:
 ---------------------------------------------------------------------
 Center     Atomic      Atomic             Coordinates (Angstroms)
 Number     Number       Type             X           Y           Z
 ---------------------------------------------------------------------
      1         12           0        5.084337    1.091180    0.274337
      2          6           0        4.025295   -2.339207    0.513603
      3          6           0        1.725868    1.981801    0.044817
      4          6           0        6.060428    4.222957   -0.356228
      5          6           0        8.432507   -0.029885    0.224438
      6          7           0        3.098905   -0.126901    0.139415
      7          6           0        2.921760   -1.443950    0.414089
      8          6           0        1.419398   -1.779812    0.171444
      9          6           0        0.722215   -0.328986   -0.045506
     10          6           0        1.917225    0.573346    0.035731
     11          6           0       -0.066277   -0.079089   -1.362100
     12          6           0        0.749495   -2.583734    1.413870
     13          6           0        0.089322   -3.958157    1.018520
     14          6           0       -0.548230   -4.029789   -0.387660
     15          8           0       -0.168543   -4.770995   -1.336765
     16          8           0       -1.645708   -3.205611   -0.488138
     17          7           0        4.047804    2.867404   -0.053648
     18          6           0        2.651116    3.059620   -0.126856
     19          6           0        2.406830    4.515390   -0.187058
     20          6           0        3.661773    5.167644   -0.297075
     21          6           0        4.666712    4.090805   -0.233296
     22          6           0        0.978798    4.992672   -0.145515
     23          6           0        3.914343    6.628648   -0.492341
     24          8           0        5.007593    7.134242   -0.279620
     25          6           0        2.730058    7.554551   -0.879668
     26          7           0        6.946633    1.911735   -0.148565
     27          6           0        7.090751    3.306968   -0.286717
     28          6           0        8.555081    3.620101   -0.619618
     29          6           0        9.264140    2.411851    0.032701
     30          6           0        8.206931    1.343252   -0.047461
     31          6           0        8.811581    3.874182   -2.148875
     32          6           0        9.864285    2.525732    1.496236
     33          6           0        8.863671    2.817341    2.675511
     34          7           0        6.052638   -0.748540    0.421801
     35          6           0        7.415000   -1.051486    0.328785
     36          6           0        7.575128   -2.417548    0.441636
     37          6           0        6.279605   -3.049157    0.514023
     38          6           0        5.389259   -1.970621    0.472614
     39          6           0        8.889127   -3.031131    0.445230
     40          6           0        5.519909   -4.235885    0.647414
     41          8           0        5.958779   -5.348245    0.858226
     42          6           0        4.051573   -3.817182    0.718725
     43          6           0        3.318389   -4.609024   -0.289929
     44          8           0        2.977802   -4.154684   -1.372598
     45          8           0        3.129208   -5.909208    0.123081
     46          6           0        2.588476   -6.810089   -0.877916
     47          6           0       -2.657279   -3.448549   -1.559557
     48          6           0       -4.047815   -3.029348   -1.086969
     49          6           0       -5.219834   -3.525616   -1.536175
     50          6           0       -5.318786   -4.655111   -2.517381
     51          6           0       -6.449073   -3.069524   -0.808575
     52          6           0       -6.326258   -3.319020    0.714438
     53          6           0       -6.393102   -2.027447    1.550497
     54          6           0       -7.788465   -1.328346    1.384620
     55          6           0       -8.698760   -1.669496    2.666300
     56          6           0       -7.623864    0.225101    1.148094
     57          6           0       -7.761592    0.527557   -0.338259
     58          6           0       -8.576390    1.854983   -0.631231
     59          6           0      -10.109356    1.588584   -0.887190
     60          6           0      -10.474752    2.105954   -2.234806
     61          6           0      -10.871285    2.251466    0.240106
     62          6           0      -12.286362    1.659303    0.307229
     63          6           0      -13.195662    2.768851    0.840343
     64          6           0      -14.704726    2.475501    0.788252
     65          6           0      -15.310743    2.656786   -0.613097
     66          6           0      -15.504174    3.386972    1.802440
     67          1           0        0.702629    2.363222    0.063516
     68          1           0        6.513645    5.212733   -0.428661
     69          1           0        9.470068   -0.331631    0.379474
     70          1           0        1.373765   -2.389695   -0.730897
     71          1           0        0.135370   -0.022108    0.820760
     72          1           0       -0.263508   -1.045586   -1.824833
     73          1           0        0.482385    0.636292   -1.974739
     74          1           0       -1.118915    0.180667   -1.248126
     75          1           0       -0.082095   -2.030685    1.850215
     76          1           0        1.491606   -2.869339    2.160097
     77          1           0       -0.687101   -4.094082    1.771777
     78          1           0        0.708761   -4.799452    1.331474
     79          1           0        0.921193    5.960246    0.352203
     80          1           0        0.459400    4.266035    0.478951
     81          1           0        0.681993    5.062872   -1.191943
     82          1           0        2.137875    7.794805    0.003530
     83          1           0        2.137780    7.267886   -1.748636
     84          1           0        3.149346    8.527812   -1.132198
     85          1           0        8.904466    4.549195   -0.170987
     86          1           0       10.140282    2.082928   -0.526068
     87          1           0        8.981399    4.945675   -2.258899
     88          1           0        7.997078    3.544430   -2.793412
     89          1           0        9.634077    3.326075   -2.609508
     90          1           0       10.605450    3.323908    1.438564
     91          1           0       10.425368    1.600025    1.618821
     92          1           0        8.299655    1.894792    2.805375
     93          1           0        8.212600    3.620835    2.331710
     94          1           0        9.295259    3.149256    3.620482
     95          1           0        8.686920   -4.089259    0.279127
     96          1           0        9.355867   -3.088183    1.428238
     97          1           0        9.516580   -2.805631   -0.417367
     98          1           0        3.651142   -4.041249    1.707257
     99          1           0        2.715349   -6.547422   -1.927492
    100          1           0        1.536198   -6.939581   -0.624948
    101          1           0        3.010439   -7.812849   -0.816299
    102          1           0       -2.693606   -4.450593   -1.987699
    103          1           0       -2.375359   -2.874421   -2.441494
    104          1           0       -3.989516   -2.345964   -0.240290
    105          1           0       -4.889711   -4.263918   -3.440383
    106          1           0       -6.351709   -4.961128   -2.681812
    107          1           0       -4.697530   -5.467396   -2.141149
    108          1           0       -7.417461   -3.365721   -1.211620
    109          1           0       -6.455711   -1.992594   -0.971858
    110          1           0       -5.449720   -3.892008    1.017189
    111          1           0       -7.094912   -4.061751    0.928159
    112          1           0       -5.587413   -1.426969    1.125889
    113          1           0       -6.209496   -2.254233    2.600484
    114          1           0       -8.367587   -1.703391    0.541283
    115          1           0       -8.251389   -2.112968    3.556386
    116          1           0       -9.563759   -2.282366    2.411959
    117          1           0       -9.179357   -0.771518    3.053529
    118          1           0       -6.595420    0.504838    1.374607
    119          1           0       -8.327213    0.888638    1.651220
    120          1           0       -8.337448   -0.216369   -0.888191
    121          1           0       -6.769173    0.590894   -0.786541
    122          1           0       -8.173509    2.484313   -1.425020
    123          1           0       -8.414060    2.480133    0.247076
    124          1           0      -10.318932    0.527867   -0.749959
    125          1           0      -11.300895    2.809850   -2.128589
    126          1           0      -10.943889    1.388672   -2.908537
    127          1           0       -9.762890    2.607799   -2.890287
    128          1           0      -10.853118    3.340608    0.268890
    129          1           0      -10.461161    1.769824    1.127600
    130          1           0      -12.214893    0.883403    1.069603
    131          1           0      -12.693140    1.181847   -0.584421
    132          1           0      -13.155351    3.697535    0.271143
    133          1           0      -12.833716    2.848726    1.865296
    134          1           0      -14.815766    1.412360    1.005484
    135          1           0      -14.495895    2.641397   -1.336063
    136          1           0      -15.914826    3.562551   -0.665174
    137          1           0      -15.976046    1.847587   -0.915296
    138          1           0      -15.440830    3.103287    2.853267
    139          1           0      -16.563965    3.330040    1.556259
    140          1           0      -15.292475    4.449782    1.686044
 ---------------------------------------------------------------------

 SCF Done:  E(RZINDO/S) =  -474.070340737     A.U. after   19 cycles

 Excitation energies and oscillator strengths:

 Excited State   1:      Singlet-A      1.2536 eV  988.99 nm  f=0.5791  <S**2>=0.000
     175 ->178         0.18268
     176 ->177         0.66447
 This state for optimization and/or second-order correction.
 Total Energy, E(CIS/TDA) =  -474.024269977
 Copying the excited state density for this state as the 1-particle RhoCI density.

 Excited State   2:      Singlet-A      1.8739 eV  661.63 nm  f=0.0728  <S**2>=0.000
     175 ->177         0.56444
     176 ->178        -0.39252

 Excited State   3:      Singlet-A      2.9435 eV  421.21 nm  f=0.8452  <S**2>=0.000
     170 ->177         0.11201
     175 ->177         0.33062
     176 ->178         0.50568
     176 ->179        -0.18924
     176 ->180        -0.11415

 Excited State   4:      Singlet-A      2.9527 eV  419.90 nm  f=0.0422  <S**2>=0.000
     170 ->177         0.30507
     170 ->178        -0.18806
     170 ->179         0.23772
     170 ->180         0.30070
     170 ->181        -0.17873
     170 ->186         0.16175
     170 ->187         0.15888
     170 ->205        -0.10388
     174 ->177         0.15549
     176 ->178        -0.12797

 Excited State   5:      Singlet-A      3.0293 eV  409.28 nm  f=0.0017  <S**2>=0.000
     167 ->177         0.16541
     167 ->179        -0.28124
     167 ->180         0.13927
     167 ->186        -0.13234
     168 ->177         0.24783
     168 ->179        -0.38354
     168 ->180         0.18589
     168 ->184         0.10686
     168 ->186        -0.17913

 The electronic state is 1-A.
 Alpha  occ. eigenvalues --   -1.82472  -1.79631  -1.77706  -1.71864  -1.70384
 Alpha  occ. eigenvalues --   -1.68372  -1.67576  -1.62859  -1.58986  -1.58660
 Alpha  occ. eigenvalues --   -1.56075  -1.50661  -1.49996  -1.44950  -1.44013
 Alpha  occ. eigenvalues --   -1.43061  -1.41564  -1.39651  -1.39552  -1.38493
 Alpha  occ. eigenvalues --   -1.36608  -1.33595  -1.33143  -1.31137  -1.28167
 Alpha  occ. eigenvalues --   -1.27874  -1.24027  -1.21775  -1.19921  -1.17666
 Alpha  occ. eigenvalues --   -1.16916  -1.15377  -1.14653  -1.14024  -1.13540
 Alpha  occ. eigenvalues --   -1.13357  -1.11838  -1.10777  -1.04722  -1.03456
 Alpha  occ. eigenvalues --   -1.02038  -1.00741  -0.98897  -0.98120  -0.97336
 Alpha  occ. eigenvalues --   -0.96556  -0.95863  -0.94117  -0.93186  -0.92361
 Alpha  occ. eigenvalues --   -0.90854  -0.90057  -0.88724  -0.87210  -0.85953
 Alpha  occ. eigenvalues --   -0.85208  -0.84649  -0.83011  -0.80892  -0.80458
 Alpha  occ. eigenvalues --   -0.79455  -0.78937  -0.77877  -0.77019  -0.76228
 Alpha  occ. eigenvalues --   -0.75553  -0.75114  -0.74322  -0.73490  -0.72993
 Alpha  occ. eigenvalues --   -0.72785  -0.72244  -0.71799  -0.71047  -0.70283
 Alpha  occ. eigenvalues --   -0.70215  -0.69589  -0.69354  -0.68797  -0.68213
 Alpha  occ. eigenvalues --   -0.67733  -0.67298  -0.66314  -0.66173  -0.65927
 Alpha  occ. eigenvalues --   -0.65254  -0.64532  -0.64309  -0.64129  -0.63552
 Alpha  occ. eigenvalues --   -0.63077  -0.63034  -0.62421  -0.62054  -0.61469
 Alpha  occ. eigenvalues --   -0.61291  -0.61143  -0.60553  -0.60433  -0.60232
 Alpha  occ. eigenvalues --   -0.59302  -0.58967  -0.58818  -0.58717  -0.58281
 Alpha  occ. eigenvalues --   -0.58251  -0.57788  -0.57491  -0.56752  -0.56427
 Alpha  occ. eigenvalues --   -0.55857  -0.55228  -0.54967  -0.54604  -0.54312
 Alpha  occ. eigenvalues --   -0.54073  -0.53321  -0.53199  -0.53002  -0.52525
 Alpha  occ. eigenvalues --   -0.52208  -0.51965  -0.51486  -0.51245  -0.50890
 Alpha  occ. eigenvalues --   -0.50622  -0.50507  -0.50298  -0.50113  -0.50006
 Alpha  occ. eigenvalues --   -0.49857  -0.49207  -0.49045  -0.48913  -0.48689
 Alpha  occ. eigenvalues --   -0.48537  -0.48405  -0.48218  -0.47659  -0.47320
 Alpha  occ. eigenvalues --   -0.47121  -0.46851  -0.46816  -0.46667  -0.46469
 Alpha  occ. eigenvalues --   -0.46255  -0.46108  -0.45950  -0.45670  -0.45308
 Alpha  occ. eigenvalues --   -0.45239  -0.45068  -0.45033  -0.44816  -0.44352
 Alpha  occ. eigenvalues --   -0.44160  -0.43680  -0.43595  -0.42585  -0.41876
 Alpha  occ. eigenvalues --   -0.41391  -0.40818  -0.40602  -0.38549  -0.38465
 Alpha  occ. eigenvalues --   -0.37516  -0.36754  -0.36270  -0.34252  -0.33938
 Alpha  occ. eigenvalues --   -0.33813  -0.32228  -0.31387  -0.31056  -0.26299
 Alpha  occ. eigenvalues --   -0.21867
 Alpha virt. eigenvalues --   -0.08656  -0.02172  -0.00723   0.01310   0.01595
 Alpha virt. eigenvalues --    0.02820   0.03046   0.03583   0.04108   0.04882
 Alpha virt. eigenvalues --    0.06409   0.06644   0.07340   0.07590   0.07937

 Mulliken charges:
               1
     1  Mg   0.419371
     2  C   -0.016136
     3  C   -0.075755
     4  C   -0.071978
     5  C   -0.079965
     6  N   -0.271378
     7  C    0.092665
     8  C    0.002009
     9  C    0.001205
    10  C    0.161725
    11  C   -0.053663
    12  C   -0.030530
    13  C   -0.000640
    14  C    0.474696
    15  O   -0.520228
    16  O   -0.276943
    17  N   -0.337634
    18  C    0.099408
    19  C    0.030301
    20  C   -0.040319
    21  C    0.168971
    22  C   -0.042985
    23  C    0.332753
    24  O   -0.509958
    25  C   -0.036974
    26  N   -0.295973
    27  C    0.161992
    28  C    0.015646
    29  C    0.008351
    30  C    0.111050
    31  C   -0.049308
    32  C   -0.026575
    33  C   -0.054870
    34  N   -0.342917
    35  C    0.085531
    36  C    0.024512
    37  C   -0.063225
    38  C    0.095199
    39  C   -0.049908
    40  C    0.344306
    41  O   -0.531903
    42  C    0.068721
    43  C    0.486615
    44  O   -0.523534
    45  O   -0.260114
    46  C    0.076438
    47  C    0.100433
    48  C   -0.103822
    49  C    0.004290
    50  C   -0.039722
    51  C   -0.021105
    52  C   -0.030337
    53  C   -0.027243
    54  C   -0.012911
    55  C   -0.070792
    56  C   -0.035541
    57  C   -0.041872
    58  C   -0.052049
    59  C    0.001393
    60  C   -0.053832
    61  C   -0.035811
    62  C   -0.041712
    63  C   -0.036109
    64  C   -0.014035
    65  C   -0.057095
    66  C   -0.060322
    67  H    0.024316
    68  H    0.037103
    69  H    0.028466
    70  H    0.065283
    71  H    0.032452
    72  H    0.027483
    73  H    0.035102
    74  H    0.020026
    75  H    0.028277
    76  H    0.028595
    77  H    0.024879
    78  H    0.044582
    79  H    0.027240
    80  H    0.035757
    81  H    0.044463
    82  H    0.042501
    83  H    0.036496
    84  H    0.028465
    85  H    0.024028
    86  H    0.017506
    87  H    0.023777
    88  H    0.023936
    89  H    0.022625
    90  H    0.011030
    91  H    0.022618
    92  H    0.027081
    93  H    0.021255
    94  H    0.025155
    95  H    0.011025
    96  H    0.038067
    97  H    0.033356
    98  H    0.057316
    99  H    0.055854
   100  H    0.035019
   101  H    0.028318
   102  H    0.054297
   103  H    0.042309
   104  H    0.032711
   105  H    0.030093
   106  H    0.024694
   107  H    0.036893
   108  H    0.022893
   109  H    0.019140
   110  H    0.017118
   111  H    0.008550
   112  H    0.022551
   113  H    0.023266
   114  H    0.030546
   115  H    0.024669
   116  H    0.014676
   117  H    0.009835
   118  H    0.019539
   119  H    0.030799
   120  H    0.019363
   121  H    0.014838
   122  H    0.016876
   123  H    0.010120
   124  H    0.027367
   125  H    0.007938
   126  H    0.008986
   127  H    0.024019
   128  H    0.034971
   129  H    0.013320
   130  H    0.013411
   131  H    0.024635
   132  H    0.023679
   133  H    0.017986
   134  H    0.017382
   135  H    0.016243
   136  H    0.021817
   137  H    0.014616
   138  H    0.018519
   139  H    0.008637
   140  H    0.021388
 Sum of Mulliken charges =  -0.00000

 Dipole moment (field-independent basis, Debye):
    X=             -8.9772    Y=              6.3139    Z=              2.0870  Tot=             11.1719
 N-N= 4.380457956689D+03 E-N= 0.000000000000D+00  KE=-9.435507282963D+03
 Leave Link  601 at Thu May  5 04:41:07 2022, MaxMem=  6710886400 cpu:               2.7 elap:               0.1
 (Enter /sw/apps/gaussian-16.0/g16/l9999.exe)
 1\1\GINC-BP1-COMPUTE183\SP\RZINDO CIS\STO-3G\C55H74Mg1N4O6\OF15641\05-
 May-2022\0\\#p ZINDO=(nstates=5)\\step_551_chromophore_24 ZINDO\\0,1\M
 g,0,0.506,43.596,25.325\C,0,2.682,43.146,28.155\C,0,-2.189,43.143,27.4
 83\C,0,-1.504,43.604,22.657\C,0,3.362,43.736,23.253\N,0,0.325,43.041,2
 7.584\C,0,1.307,43.073,28.52\C,0,0.686,42.612,29.873\C,0,-0.91,42.561,
 29.576\C,0,-0.938,42.923,28.121\C,0,-1.664,41.224,29.824\C,0,1.033,43.
 622,31.097\C,0,1.733,42.934,32.329\C,0,1.321,41.473,32.62\O,0,2.076,40

 Normal termination of Gaussian 16 at Thu May  5 04:41:08 2022.
