 Gaussian 16, Revision A.03,
 Gaussian 16:  ES64L-G16RevA.03 25-Dec-2016

 ------------------------------
 #p blyp/Def2SVP td=(nstates=5)
 ------------------------------

 -------------------------------------------------
 step_201_chromophore_6 TDDFT with blyp functional
 -------------------------------------------------
 Symbolic Z-matrix:
 Charge =  0 Multiplicity = 1

                         Standard orientation:
 ---------------------------------------------------------------------
 Center     Atomic      Atomic             Coordinates (Angstroms)
 Number     Number       Type             X           Y           Z
 ---------------------------------------------------------------------
      1         12           0       -5.059620    1.157043   -0.442816
      2          6           0       -4.193521   -2.307831   -0.201781
      3          6           0       -1.502448    1.758165   -0.294924
      4          6           0       -5.658136    4.371711   -0.232931
      5          6           0       -8.307173    0.381877    0.151765
      6          7           0       -3.047649   -0.162136   -0.112710
      7          6           0       -3.017778   -1.512097   -0.123386
      8          6           0       -1.544299   -2.046397   -0.262540
      9          6           0       -0.720872   -0.662560   -0.218980
     10          6           0       -1.850371    0.356005   -0.261764
     11          6           0        0.330616   -0.527922    0.973461
     12          6           0       -1.327501   -2.926186   -1.517421
     13          6           0       -0.751839   -4.307917   -1.280144
     14          6           0        0.299000   -4.654346   -0.166361
     15          8           0        0.082978   -5.307840    0.843215
     16          8           0        1.427693   -4.007527   -0.416382
     17          7           0       -3.785870    2.838690   -0.366254
     18          6           0       -2.412782    2.846978   -0.285771
     19          6           0       -1.920570    4.271475   -0.298545
     20          6           0       -3.131679    5.046181   -0.219883
     21          6           0       -4.255326    4.116706   -0.313118
     22          6           0       -0.438199    4.645293   -0.220436
     23          6           0       -3.301785    6.531368   -0.198764
     24          8           0       -4.341031    7.120944   -0.191661
     25          6           0       -2.054472    7.364486   -0.338362
     26          7           0       -6.711116    2.201012   -0.073331
     27          6           0       -6.710493    3.504000   -0.088007
     28          6           0       -8.048582    4.061579    0.267512
     29          6           0       -9.044976    2.747225    0.202874
     30          6           0       -7.975503    1.707328    0.151250
     31          6           0       -7.986273    4.750471    1.673468
     32          6           0       -9.952443    2.710482   -1.046543
     33          6           0      -11.336026    2.110255   -0.845917
     34          7           0       -6.104407   -0.617094   -0.166438
     35          6           0       -7.452810   -0.715273    0.045254
     36          6           0       -7.805568   -2.131191   -0.007821
     37          6           0       -6.520312   -2.811885   -0.194874
     38          6           0       -5.518488   -1.824852   -0.191753
     39          6           0       -9.168083   -2.698318    0.139424
     40          6           0       -5.874824   -4.175585   -0.262219
     41          8           0       -6.351258   -5.316727   -0.280593
     42          6           0       -4.322471   -3.854742   -0.179954
     43          6           0       -3.942121   -4.617573    1.017258
     44          8           0       -3.804366   -4.124030    2.118566
     45          8           0       -3.829067   -5.964569    0.782077
     46          6           0       -3.227462   -6.854533    1.799212
     47          6           0        2.619209   -4.455515    0.410450
     48          6           0        3.746101   -3.405717    0.232074
     49          6           0        5.083504   -3.543006    0.340556
     50          6           0        5.782311   -4.829123    0.792967
     51          6           0        5.955142   -2.409717   -0.175338
     52          6           0        6.963245   -2.780309   -1.304646
     53          6           0        8.378392   -2.968151   -0.754406
     54          6           0        9.301531   -1.731270   -1.004573
     55          6           0        9.728048   -1.550935   -2.500381
     56          6           0       10.486579   -1.852165   -0.093228
     57          6           0       10.696218   -0.484893    0.593639
     58          6           0       12.251668   -0.148585    0.582185
     59          6           0       12.591462    1.098979   -0.299405
     60          6           0       13.712054    0.606076   -1.248867
     61          6           0       12.907420    2.371591    0.501990
     62          6           0       12.136295    3.532312   -0.034368
     63          6           0       10.650992    3.666326    0.476781
     64          6           0       10.305222    4.968229    1.249821
     65          6           0        9.608259    5.866954    0.329742
     66          6           0        9.285891    4.734441    2.493583
     67          1           0       -0.435123    1.988801   -0.292748
     68          1           0       -5.898985    5.430802   -0.351749
     69          1           0       -9.373364    0.160572    0.236657
     70          1           0       -1.439134   -2.596573    0.672975
     71          1           0       -0.198700   -0.602269   -1.173853
     72          1           0        0.580785   -1.460764    1.479514
     73          1           0       -0.127730    0.143753    1.699368
     74          1           0        1.275349   -0.186759    0.551362
     75          1           0       -0.808978   -2.466929   -2.358158
     76          1           0       -2.306540   -3.138775   -1.948617
     77          1           0       -0.256732   -4.646852   -2.190478
     78          1           0       -1.506935   -5.037249   -0.988728
     79          1           0       -0.264385    5.351476    0.591520
     80          1           0       -0.063834    5.174854   -1.096336
     81          1           0        0.336888    3.881130   -0.161261
     82          1           0       -1.456425    7.175991   -1.229303
     83          1           0       -1.429620    7.193956    0.537820
     84          1           0       -2.256717    8.435484   -0.341177
     85          1           0       -8.336884    4.683520   -0.580460
     86          1           0       -9.657583    2.651782    1.099660
     87          1           0       -6.942177    4.772293    1.985920
     88          1           0       -8.556175    4.190043    2.415572
     89          1           0       -8.412731    5.753454    1.671779
     90          1           0       -9.483687    2.142122   -1.850492
     91          1           0       -9.958149    3.730860   -1.428383
     92          1           0      -11.472521    1.803049    0.190887
     93          1           0      -11.509673    1.286736   -1.538923
     94          1           0      -12.160875    2.818306   -0.922677
     95          1           0       -9.074913   -3.746903    0.422616
     96          1           0       -9.565879   -2.726884   -0.875017
     97          1           0       -9.885257   -2.143858    0.745220
     98          1           0       -3.861166   -4.399305   -1.004572
     99          1           0       -2.409393   -6.334064    2.296976
    100          1           0       -3.044276   -7.873122    1.459251
    101          1           0       -3.964421   -7.069151    2.572370
    102          1           0        2.810179   -5.452662    0.014958
    103          1           0        2.261980   -4.565421    1.434762
    104          1           0        3.392888   -2.464404   -0.187405
    105          1           0        5.150475   -5.474112    1.404600
    106          1           0        6.676315   -4.515169    1.331123
    107          1           0        6.118362   -5.359192   -0.098210
    108          1           0        6.475043   -1.889496    0.628920
    109          1           0        5.339514   -1.634556   -0.632041
    110          1           0        6.914225   -1.939578   -1.995990
    111          1           0        6.679212   -3.625082   -1.932443
    112          1           0        8.781946   -3.881317   -1.192265
    113          1           0        8.302889   -3.267246    0.290405
    114          1           0        8.694402   -0.892409   -0.664602
    115          1           0       10.779203   -1.777487   -2.679775
    116          1           0        9.651639   -0.478373   -2.675262
    117          1           0        9.108117   -2.068204   -3.232810
    118          1           0       11.364419   -2.153224   -0.665747
    119          1           0       10.420878   -2.622200    0.676648
    120          1           0       10.514699   -0.655478    1.654806
    121          1           0       10.070237    0.365428    0.323624
    122          1           0       12.826575   -1.004512    0.229198
    123          1           0       12.498948    0.051727    1.624664
    124          1           0       11.803450    1.340887   -1.012138
    125          1           0       13.966860    1.374629   -1.978654
    126          1           0       13.458282   -0.347026   -1.712956
    127          1           0       14.552147    0.482822   -0.565964
    128          1           0       13.937689    2.610530    0.763042
    129          1           0       12.590309    2.138677    1.518897
    130          1           0       12.349073    3.491326   -1.102866
    131          1           0       12.714093    4.429615    0.182718
    132          1           0       10.382009    2.825203    1.115549
    133          1           0       10.042779    3.586221   -0.423650
    134          1           0       11.199778    5.483645    1.599576
    135          1           0        9.993926    5.911399   -0.689281
    136          1           0        9.775032    6.885516    0.681973
    137          1           0        8.526641    5.826238    0.196737
    138          1           0        9.723177    5.266245    3.338058
    139          1           0        9.328939    3.711449    2.865385
    140          1           0        8.264952    5.008826    2.225889
 ---------------------------------------------------------------------

 SCF Done:  E(RB-LYP) =  -3007.36931002     A.U. after   20 cycles

 Excitation energies and oscillator strengths:

 Excited State   1:      Singlet-A      1.8552 eV  668.30 nm  f=0.3150  <S**2>=0.000
     245 -> 248       -0.20686
     246 -> 247        0.68727
     246 <- 247       -0.14385
 This state for optimization and/or second-order correction.
 Total Energy, E(TD-HF/TD-DFT) =  -3007.30113218
 Copying the excited state density for this state as the 1-particle RhoCI density.

 Excited State   2:      Singlet-A      1.9888 eV  623.42 nm  f=0.0001  <S**2>=0.000
     244 -> 247        0.70515

 Excited State   3:      Singlet-A      2.0419 eV  607.20 nm  f=0.0404  <S**2>=0.000
     243 -> 247        0.46859
     245 -> 247        0.49306
     246 -> 248        0.17229

 Excited State   4:      Singlet-A      2.1066 eV  588.55 nm  f=0.0343  <S**2>=0.000
     243 -> 247        0.52708
     245 -> 247       -0.41848
     246 -> 248       -0.19548

 Excited State   5:      Singlet-A      2.3867 eV  519.48 nm  f=0.0081  <S**2>=0.000
     241 -> 247        0.34940
     242 -> 247        0.60001

 The electronic state is 1-A.
 Alpha  occ. eigenvalues --  -46.27058 -18.82346 -18.80018 -18.76630 -18.75659
 Alpha  occ. eigenvalues --  -18.75559 -18.74790 -14.02982 -14.02661 -14.01318
 Alpha  occ. eigenvalues --  -14.00309 -10.03766 -10.02504  -9.99896  -9.99444
 Alpha  occ. eigenvalues --   -9.98778  -9.96345  -9.96283  -9.96210  -9.96037
 Alpha  occ. eigenvalues --   -9.95837  -9.95608  -9.95483  -9.94982  -9.94857
 Alpha  occ. eigenvalues --   -9.94200  -9.93945  -9.93884  -9.93871  -9.93789
 Alpha  occ. eigenvalues --   -9.93714  -9.93601  -9.93542  -9.93504  -9.93468
 Alpha  occ. eigenvalues --   -9.93437  -9.93103  -9.93021  -9.92961  -9.92860
 Alpha  occ. eigenvalues --   -9.92598  -9.92521  -9.92494  -9.92485  -9.92445
 Alpha  occ. eigenvalues --   -9.92221  -9.92027  -9.91998  -9.91988  -9.91967
 Alpha  occ. eigenvalues --   -9.91838  -9.91664  -9.91539  -9.91515  -9.91504
 Alpha  occ. eigenvalues --   -9.91373  -9.91247  -9.91231  -9.91208  -9.91204
 Alpha  occ. eigenvalues --   -9.91188  -9.90898  -9.90879  -9.90747  -9.90684
 Alpha  occ. eigenvalues --   -9.90421  -2.91804  -1.72213  -1.71716  -1.71498
 Alpha  occ. eigenvalues --   -0.98573  -0.95830  -0.93098  -0.90179  -0.89667
 Alpha  occ. eigenvalues --   -0.87970  -0.87437  -0.86684  -0.85312  -0.84813
 Alpha  occ. eigenvalues --   -0.74696  -0.74018  -0.73245  -0.72706  -0.72501
 Alpha  occ. eigenvalues --   -0.72094  -0.71346  -0.71205  -0.70487  -0.69939
 Alpha  occ. eigenvalues --   -0.69252  -0.68840  -0.68077  -0.67416  -0.67004
 Alpha  occ. eigenvalues --   -0.66485  -0.65634  -0.65112  -0.64733  -0.64129
 Alpha  occ. eigenvalues --   -0.63994  -0.62636  -0.61898  -0.61782  -0.61234
 Alpha  occ. eigenvalues --   -0.60314  -0.60154  -0.59799  -0.59618  -0.59503
 Alpha  occ. eigenvalues --   -0.58119  -0.57254  -0.56821  -0.55877  -0.54779
 Alpha  occ. eigenvalues --   -0.54187  -0.53428  -0.52713  -0.52481  -0.51975
 Alpha  occ. eigenvalues --   -0.51564  -0.51442  -0.50731  -0.50494  -0.49947
 Alpha  occ. eigenvalues --   -0.49904  -0.49410  -0.49097  -0.47343  -0.46905
 Alpha  occ. eigenvalues --   -0.46499  -0.45496  -0.45203  -0.44733  -0.44390
 Alpha  occ. eigenvalues --   -0.43424  -0.43052  -0.42862  -0.42202  -0.42108
 Alpha  occ. eigenvalues --   -0.41635  -0.41537  -0.41182  -0.41103  -0.40957
 Alpha  occ. eigenvalues --   -0.40616  -0.40452  -0.40235  -0.39929  -0.39741
 Alpha  occ. eigenvalues --   -0.39609  -0.39411  -0.39332  -0.39189  -0.38908
 Alpha  occ. eigenvalues --   -0.38736  -0.38670  -0.38314  -0.38099  -0.37980
 Alpha  occ. eigenvalues --   -0.37847  -0.37746  -0.37479  -0.37404  -0.37109
 Alpha  occ. eigenvalues --   -0.36991  -0.36703  -0.36633  -0.36386  -0.36216
 Alpha  occ. eigenvalues --   -0.36117  -0.35933  -0.35705  -0.35453  -0.35421
 Alpha  occ. eigenvalues --   -0.35261  -0.35203  -0.35119  -0.34871  -0.34811
 Alpha  occ. eigenvalues --   -0.34760  -0.34581  -0.34393  -0.34355  -0.34176
 Alpha  occ. eigenvalues --   -0.34089  -0.33814  -0.33669  -0.33472  -0.33342
 Alpha  occ. eigenvalues --   -0.33266  -0.32926  -0.32508  -0.32484  -0.32358
 Alpha  occ. eigenvalues --   -0.32215  -0.32132  -0.32023  -0.31451  -0.31309
 Alpha  occ. eigenvalues --   -0.31281  -0.31123  -0.30974  -0.30753  -0.30695
 Alpha  occ. eigenvalues --   -0.30573  -0.30489  -0.30343  -0.30281  -0.30263
 Alpha  occ. eigenvalues --   -0.29614  -0.29397  -0.29304  -0.29003  -0.28880
 Alpha  occ. eigenvalues --   -0.28658  -0.28494  -0.28051  -0.27741  -0.27417
 Alpha  occ. eigenvalues --   -0.27262  -0.27086  -0.26784  -0.26736  -0.26442
 Alpha  occ. eigenvalues --   -0.26440  -0.26245  -0.25732  -0.25446  -0.25249
 Alpha  occ. eigenvalues --   -0.24982  -0.24559  -0.23821  -0.23039  -0.22969
 Alpha  occ. eigenvalues --   -0.22852  -0.21934  -0.21838  -0.20892  -0.20659
 Alpha  occ. eigenvalues --   -0.20029  -0.19433  -0.18666  -0.18341  -0.17085
 Alpha  occ. eigenvalues --   -0.15589
 Alpha virt. eigenvalues --   -0.11132  -0.06439  -0.05975  -0.04375  -0.02895
 Alpha virt. eigenvalues --   -0.02757  -0.01926  -0.01019  -0.00552   0.00760
 Alpha virt. eigenvalues --    0.01685   0.02060   0.02243   0.02426   0.02851

 Mulliken charges:
               1
     1  Mg   0.712390
     2  C    0.069479
     3  C   -0.065074
     4  C   -0.061919
     5  C   -0.094264
     6  N   -0.111940
     7  C   -0.141716
     8  C    0.029119
     9  C    0.004371
    10  C   -0.033856
    11  C    0.117962
    12  C    0.185890
    13  C    0.088423
    14  C    0.040044
    15  O   -0.196831
    16  O   -0.265356
    17  N   -0.273231
    18  C    0.141439
    19  C   -0.117072
    20  C    0.038960
    21  C    0.069303
    22  C    0.155145
    23  C   -0.082163
    24  O   -0.129003
    25  C    0.115591
    26  N   -0.253919
    27  C    0.043343
    28  C    0.015139
    29  C   -0.003455
    30  C    0.049656
    31  C    0.142149
    32  C    0.107639
    33  C    0.071566
    34  N   -0.263172
    35  C    0.147873
    36  C   -0.177274
    37  C    0.037425
    38  C    0.082796
    39  C    0.186170
    40  C   -0.046183
    41  O   -0.131707
    42  C    0.022808
    43  C    0.103761
    44  O   -0.178611
    45  O   -0.280675
    46  C    0.239186
    47  C    0.286050
    48  C   -0.092236
    49  C   -0.137253
    50  C    0.149515
    51  C    0.132196
    52  C    0.062526
    53  C    0.069470
    54  C   -0.060420
    55  C    0.118732
    56  C    0.127437
    57  C    0.046507
    58  C    0.091736
    59  C   -0.079159
    60  C    0.091668
    61  C    0.119165
    62  C    0.071413
    63  C    0.130651
    64  C   -0.064476
    65  C    0.091818
    66  C    0.085881
    67  H   -0.067360
    68  H   -0.039803
    69  H   -0.077734
    70  H    0.001153
    71  H   -0.027472
    72  H    0.003767
    73  H    0.003191
    74  H   -0.003672
    75  H   -0.026396
    76  H   -0.022390
    77  H   -0.014085
    78  H    0.000419
    79  H    0.001987
    80  H   -0.008617
    81  H   -0.012360
    82  H    0.006922
    83  H   -0.007596
    84  H   -0.018242
    85  H   -0.024304
    86  H   -0.023270
    87  H    0.008329
    88  H   -0.014525
    89  H   -0.000001
    90  H   -0.020718
    91  H   -0.024924
    92  H   -0.012430
    93  H    0.001967
    94  H   -0.012394
    95  H    0.008213
    96  H   -0.005905
    97  H    0.000191
    98  H    0.000478
    99  H    0.026771
   100  H    0.012199
   101  H   -0.007360
   102  H    0.004832
   103  H    0.021109
   104  H   -0.027473
   105  H   -0.000851
   106  H   -0.001824
   107  H    0.007067
   108  H   -0.018911
   109  H   -0.046916
   110  H   -0.034715
   111  H   -0.029297
   112  H   -0.047931
   113  H   -0.038553
   114  H   -0.035586
   115  H   -0.012148
   116  H   -0.018005
   117  H   -0.007481
   118  H   -0.034511
   119  H   -0.037306
   120  H   -0.042261
   121  H   -0.004804
   122  H   -0.035889
   123  H   -0.040540
   124  H   -0.030269
   125  H   -0.023953
   126  H   -0.006498
   127  H   -0.021102
   128  H   -0.045529
   129  H   -0.058002
   130  H   -0.037087
   131  H   -0.054417
   132  H   -0.026415
   133  H   -0.030415
   134  H   -0.024634
   135  H   -0.027727
   136  H   -0.035421
   137  H   -0.016811
   138  H   -0.012920
   139  H   -0.023914
   140  H    0.001653
 Sum of Mulliken charges =  -0.00000

 Dipole moment (field-independent basis, Debye):
    X=              4.9379    Y=              2.4101    Z=             -2.5947  Tot=              6.0765
 Quadrupole moment (field-independent basis, Debye-Ang):
   XX=           -371.8914   YY=           -433.8817   ZZ=           -405.3987
   XY=            -24.4005   XZ=              9.5743   YZ=              5.7628

 Normal termination of Gaussian 16 at Fri Apr 29 09:31:17 2022.
