 Gaussian 16, Revision A.03,
 Gaussian 16:  ES64L-G16RevA.03 25-Dec-2016

 -----------------------------------
 #p cam-b3lyp/Def2SVP td=(nstates=5)
 -----------------------------------

 ------------------------------------------------------
 step_201_chromophore_6 TDDFT with cam-b3lyp functional
 ------------------------------------------------------
 Symbolic Z-matrix:
 Charge =  0 Multiplicity = 1

                         Standard orientation:
 ---------------------------------------------------------------------
 Center     Atomic      Atomic             Coordinates (Angstroms)
 Number     Number       Type             X           Y           Z
 ---------------------------------------------------------------------
      1         12           0       -5.059620    1.157043   -0.442816
      2          6           0       -4.193521   -2.307831   -0.201781
      3          6           0       -1.502448    1.758165   -0.294924
      4          6           0       -5.658136    4.371711   -0.232931
      5          6           0       -8.307173    0.381877    0.151765
      6          7           0       -3.047649   -0.162136   -0.112710
      7          6           0       -3.017778   -1.512097   -0.123386
      8          6           0       -1.544299   -2.046397   -0.262540
      9          6           0       -0.720872   -0.662560   -0.218980
     10          6           0       -1.850371    0.356005   -0.261764
     11          6           0        0.330616   -0.527922    0.973461
     12          6           0       -1.327501   -2.926186   -1.517421
     13          6           0       -0.751839   -4.307917   -1.280144
     14          6           0        0.299000   -4.654346   -0.166361
     15          8           0        0.082978   -5.307840    0.843215
     16          8           0        1.427693   -4.007527   -0.416382
     17          7           0       -3.785870    2.838690   -0.366254
     18          6           0       -2.412782    2.846978   -0.285771
     19          6           0       -1.920570    4.271475   -0.298545
     20          6           0       -3.131679    5.046181   -0.219883
     21          6           0       -4.255326    4.116706   -0.313118
     22          6           0       -0.438199    4.645293   -0.220436
     23          6           0       -3.301785    6.531368   -0.198764
     24          8           0       -4.341031    7.120944   -0.191661
     25          6           0       -2.054472    7.364486   -0.338362
     26          7           0       -6.711116    2.201012   -0.073331
     27          6           0       -6.710493    3.504000   -0.088007
     28          6           0       -8.048582    4.061579    0.267512
     29          6           0       -9.044976    2.747225    0.202874
     30          6           0       -7.975503    1.707328    0.151250
     31          6           0       -7.986273    4.750471    1.673468
     32          6           0       -9.952443    2.710482   -1.046543
     33          6           0      -11.336026    2.110255   -0.845917
     34          7           0       -6.104407   -0.617094   -0.166438
     35          6           0       -7.452810   -0.715273    0.045254
     36          6           0       -7.805568   -2.131191   -0.007821
     37          6           0       -6.520312   -2.811885   -0.194874
     38          6           0       -5.518488   -1.824852   -0.191753
     39          6           0       -9.168083   -2.698318    0.139424
     40          6           0       -5.874824   -4.175585   -0.262219
     41          8           0       -6.351258   -5.316727   -0.280593
     42          6           0       -4.322471   -3.854742   -0.179954
     43          6           0       -3.942121   -4.617573    1.017258
     44          8           0       -3.804366   -4.124030    2.118566
     45          8           0       -3.829067   -5.964569    0.782077
     46          6           0       -3.227462   -6.854533    1.799212
     47          6           0        2.619209   -4.455515    0.410450
     48          6           0        3.746101   -3.405717    0.232074
     49          6           0        5.083504   -3.543006    0.340556
     50          6           0        5.782311   -4.829123    0.792967
     51          6           0        5.955142   -2.409717   -0.175338
     52          6           0        6.963245   -2.780309   -1.304646
     53          6           0        8.378392   -2.968151   -0.754406
     54          6           0        9.301531   -1.731270   -1.004573
     55          6           0        9.728048   -1.550935   -2.500381
     56          6           0       10.486579   -1.852165   -0.093228
     57          6           0       10.696218   -0.484893    0.593639
     58          6           0       12.251668   -0.148585    0.582185
     59          6           0       12.591462    1.098979   -0.299405
     60          6           0       13.712054    0.606076   -1.248867
     61          6           0       12.907420    2.371591    0.501990
     62          6           0       12.136295    3.532312   -0.034368
     63          6           0       10.650992    3.666326    0.476781
     64          6           0       10.305222    4.968229    1.249821
     65          6           0        9.608259    5.866954    0.329742
     66          6           0        9.285891    4.734441    2.493583
     67          1           0       -0.435123    1.988801   -0.292748
     68          1           0       -5.898985    5.430802   -0.351749
     69          1           0       -9.373364    0.160572    0.236657
     70          1           0       -1.439134   -2.596573    0.672975
     71          1           0       -0.198700   -0.602269   -1.173853
     72          1           0        0.580785   -1.460764    1.479514
     73          1           0       -0.127730    0.143753    1.699368
     74          1           0        1.275349   -0.186759    0.551362
     75          1           0       -0.808978   -2.466929   -2.358158
     76          1           0       -2.306540   -3.138775   -1.948617
     77          1           0       -0.256732   -4.646852   -2.190478
     78          1           0       -1.506935   -5.037249   -0.988728
     79          1           0       -0.264385    5.351476    0.591520
     80          1           0       -0.063834    5.174854   -1.096336
     81          1           0        0.336888    3.881130   -0.161261
     82          1           0       -1.456425    7.175991   -1.229303
     83          1           0       -1.429620    7.193956    0.537820
     84          1           0       -2.256717    8.435484   -0.341177
     85          1           0       -8.336884    4.683520   -0.580460
     86          1           0       -9.657583    2.651782    1.099660
     87          1           0       -6.942177    4.772293    1.985920
     88          1           0       -8.556175    4.190043    2.415572
     89          1           0       -8.412731    5.753454    1.671779
     90          1           0       -9.483687    2.142122   -1.850492
     91          1           0       -9.958149    3.730860   -1.428383
     92          1           0      -11.472521    1.803049    0.190887
     93          1           0      -11.509673    1.286736   -1.538923
     94          1           0      -12.160875    2.818306   -0.922677
     95          1           0       -9.074913   -3.746903    0.422616
     96          1           0       -9.565879   -2.726884   -0.875017
     97          1           0       -9.885257   -2.143858    0.745220
     98          1           0       -3.861166   -4.399305   -1.004572
     99          1           0       -2.409393   -6.334064    2.296976
    100          1           0       -3.044276   -7.873122    1.459251
    101          1           0       -3.964421   -7.069151    2.572370
    102          1           0        2.810179   -5.452662    0.014958
    103          1           0        2.261980   -4.565421    1.434762
    104          1           0        3.392888   -2.464404   -0.187405
    105          1           0        5.150475   -5.474112    1.404600
    106          1           0        6.676315   -4.515169    1.331123
    107          1           0        6.118362   -5.359192   -0.098210
    108          1           0        6.475043   -1.889496    0.628920
    109          1           0        5.339514   -1.634556   -0.632041
    110          1           0        6.914225   -1.939578   -1.995990
    111          1           0        6.679212   -3.625082   -1.932443
    112          1           0        8.781946   -3.881317   -1.192265
    113          1           0        8.302889   -3.267246    0.290405
    114          1           0        8.694402   -0.892409   -0.664602
    115          1           0       10.779203   -1.777487   -2.679775
    116          1           0        9.651639   -0.478373   -2.675262
    117          1           0        9.108117   -2.068204   -3.232810
    118          1           0       11.364419   -2.153224   -0.665747
    119          1           0       10.420878   -2.622200    0.676648
    120          1           0       10.514699   -0.655478    1.654806
    121          1           0       10.070237    0.365428    0.323624
    122          1           0       12.826575   -1.004512    0.229198
    123          1           0       12.498948    0.051727    1.624664
    124          1           0       11.803450    1.340887   -1.012138
    125          1           0       13.966860    1.374629   -1.978654
    126          1           0       13.458282   -0.347026   -1.712956
    127          1           0       14.552147    0.482822   -0.565964
    128          1           0       13.937689    2.610530    0.763042
    129          1           0       12.590309    2.138677    1.518897
    130          1           0       12.349073    3.491326   -1.102866
    131          1           0       12.714093    4.429615    0.182718
    132          1           0       10.382009    2.825203    1.115549
    133          1           0       10.042779    3.586221   -0.423650
    134          1           0       11.199778    5.483645    1.599576
    135          1           0        9.993926    5.911399   -0.689281
    136          1           0        9.775032    6.885516    0.681973
    137          1           0        8.526641    5.826238    0.196737
    138          1           0        9.723177    5.266245    3.338058
    139          1           0        9.328939    3.711449    2.865385
    140          1           0        8.264952    5.008826    2.225889
 ---------------------------------------------------------------------

 SCF Done:  E(RCAM-B3LYP) =  -3007.16578077     A.U. after   17 cycles

 Excitation energies and oscillator strengths:

 Excited State   1:      Singlet-A      1.7805 eV  696.36 nm  f=0.3946  <S**2>=0.000
     245 -> 248       -0.18485
     246 -> 247        0.68400
     245 <- 248       -0.10714
 This state for optimization and/or second-order correction.
 Total Energy, E(TD-HF/TD-DFT) =  -3007.10034971
 Copying the excited state density for this state as the 1-particle RhoCI density.

 Excited State   2:      Singlet-A      2.3093 eV  536.88 nm  f=0.1064  <S**2>=0.000
     245 -> 247        0.63284
     246 -> 248        0.30296

 Excited State   3:      Singlet-A      3.3493 eV  370.18 nm  f=0.0059  <S**2>=0.000
     242 -> 247       -0.12142
     244 -> 247        0.67969

 Excited State   4:      Singlet-A      3.5600 eV  348.27 nm  f=0.4994  <S**2>=0.000
     239 -> 247       -0.12791
     240 -> 247        0.12180
     242 -> 247       -0.30610
     245 -> 247       -0.23656
     246 -> 248        0.55152

 Excited State   5:      Singlet-A      3.6011 eV  344.30 nm  f=0.0111  <S**2>=0.000
     243 -> 247        0.54735
     243 -> 249        0.32037
     243 -> 251        0.22514

 The electronic state is 1-A.
 Alpha  occ. eigenvalues --  -46.88586 -19.25226 -19.22801 -19.19533 -19.19095
 Alpha  occ. eigenvalues --  -19.18586 -19.17768 -14.41967 -14.41258 -14.39940
 Alpha  occ. eigenvalues --  -14.38430 -10.38969 -10.37812 -10.35089 -10.34877
 Alpha  occ. eigenvalues --  -10.33048 -10.30931 -10.30904 -10.30718 -10.30613
 Alpha  occ. eigenvalues --  -10.30341 -10.30154 -10.30020 -10.29576 -10.28540
 Alpha  occ. eigenvalues --  -10.28265 -10.28050 -10.28038 -10.28035 -10.28014
 Alpha  occ. eigenvalues --  -10.27951 -10.27862 -10.27688 -10.27607 -10.27380
 Alpha  occ. eigenvalues --  -10.27345 -10.27338 -10.27291 -10.27023 -10.26713
 Alpha  occ. eigenvalues --  -10.26587 -10.26337 -10.26269 -10.26251 -10.26083
 Alpha  occ. eigenvalues --  -10.25988 -10.25663 -10.25601 -10.25583 -10.25545
 Alpha  occ. eigenvalues --  -10.25468 -10.25309 -10.25291 -10.25269 -10.25265
 Alpha  occ. eigenvalues --  -10.25249 -10.25231 -10.24995 -10.24929 -10.24928
 Alpha  occ. eigenvalues --  -10.24879 -10.24644 -10.24576 -10.24392 -10.24339
 Alpha  occ. eigenvalues --  -10.24023  -3.17240  -1.92120  -1.91723  -1.91517
 Alpha  occ. eigenvalues --   -1.17043  -1.14264  -1.11890  -1.08278  -1.07498
 Alpha  occ. eigenvalues --   -1.05749  -1.05079  -1.04484  -1.02812  -1.02342
 Alpha  occ. eigenvalues --   -0.91637  -0.90971  -0.90116  -0.89334  -0.89234
 Alpha  occ. eigenvalues --   -0.88832  -0.87969  -0.87842  -0.87256  -0.86869
 Alpha  occ. eigenvalues --   -0.85458  -0.85147  -0.84423  -0.83403  -0.83147
 Alpha  occ. eigenvalues --   -0.82577  -0.81751  -0.81173  -0.80529  -0.80086
 Alpha  occ. eigenvalues --   -0.79830  -0.78664  -0.77429  -0.77145  -0.76709
 Alpha  occ. eigenvalues --   -0.75558  -0.75527  -0.75022  -0.74947  -0.74803
 Alpha  occ. eigenvalues --   -0.73223  -0.72118  -0.71749  -0.70751  -0.69264
 Alpha  occ. eigenvalues --   -0.68848  -0.68067  -0.67163  -0.66926  -0.65968
 Alpha  occ. eigenvalues --   -0.65793  -0.65699  -0.64645  -0.64608  -0.63991
 Alpha  occ. eigenvalues --   -0.63945  -0.63275  -0.63033  -0.60878  -0.60710
 Alpha  occ. eigenvalues --   -0.59982  -0.58825  -0.58632  -0.58061  -0.57698
 Alpha  occ. eigenvalues --   -0.56908  -0.56424  -0.56196  -0.55478  -0.55115
 Alpha  occ. eigenvalues --   -0.54670  -0.54591  -0.54251  -0.53877  -0.53723
 Alpha  occ. eigenvalues --   -0.53420  -0.53244  -0.53069  -0.52785  -0.52674
 Alpha  occ. eigenvalues --   -0.52373  -0.52260  -0.51817  -0.51646  -0.51607
 Alpha  occ. eigenvalues --   -0.51355  -0.51096  -0.50952  -0.50752  -0.50482
 Alpha  occ. eigenvalues --   -0.50301  -0.50152  -0.49925  -0.49789  -0.49583
 Alpha  occ. eigenvalues --   -0.49309  -0.49177  -0.48974  -0.48829  -0.48337
 Alpha  occ. eigenvalues --   -0.48295  -0.48228  -0.48057  -0.47752  -0.47576
 Alpha  occ. eigenvalues --   -0.47378  -0.47151  -0.47132  -0.47089  -0.46737
 Alpha  occ. eigenvalues --   -0.46619  -0.46480  -0.46368  -0.46132  -0.46103
 Alpha  occ. eigenvalues --   -0.45755  -0.45405  -0.45354  -0.45311  -0.45231
 Alpha  occ. eigenvalues --   -0.44927  -0.44542  -0.44206  -0.44079  -0.43894
 Alpha  occ. eigenvalues --   -0.43755  -0.43702  -0.43567  -0.43331  -0.42944
 Alpha  occ. eigenvalues --   -0.42783  -0.42638  -0.42513  -0.42285  -0.42108
 Alpha  occ. eigenvalues --   -0.42020  -0.41845  -0.41833  -0.41555  -0.41289
 Alpha  occ. eigenvalues --   -0.41121  -0.40626  -0.40541  -0.40080  -0.39948
 Alpha  occ. eigenvalues --   -0.39908  -0.39714  -0.39674  -0.38979  -0.38425
 Alpha  occ. eigenvalues --   -0.38260  -0.37952  -0.37600  -0.37573  -0.37196
 Alpha  occ. eigenvalues --   -0.37189  -0.37018  -0.36970  -0.36601  -0.35896
 Alpha  occ. eigenvalues --   -0.35840  -0.35140  -0.34506  -0.33826  -0.33635
 Alpha  occ. eigenvalues --   -0.33347  -0.33272  -0.32355  -0.31434  -0.30915
 Alpha  occ. eigenvalues --   -0.30546  -0.30406  -0.29882  -0.28246  -0.23859
 Alpha  occ. eigenvalues --   -0.20869
 Alpha virt. eigenvalues --   -0.08149  -0.01309   0.00589   0.02045   0.02642
 Alpha virt. eigenvalues --    0.04788   0.05784   0.06525   0.06840   0.07311
 Alpha virt. eigenvalues --    0.08112   0.08339   0.08877   0.09095   0.09296

 Mulliken charges:
               1
     1  Mg   0.844133
     2  C    0.045458
     3  C   -0.076454
     4  C   -0.089531
     5  C   -0.098935
     6  N   -0.177325
     7  C   -0.089534
     8  C   -0.027001
     9  C   -0.045438
    10  C   -0.013088
    11  C    0.062383
    12  C    0.125990
    13  C    0.029205
    14  C    0.115045
    15  O   -0.240157
    16  O   -0.327169
    17  N   -0.364122
    18  C    0.155296
    19  C   -0.115966
    20  C   -0.034523
    21  C    0.105026
    22  C    0.094598
    23  C   -0.000804
    24  O   -0.167843
    25  C    0.032445
    26  N   -0.335219
    27  C    0.071232
    28  C   -0.045286
    29  C   -0.054601
    30  C    0.066309
    31  C    0.083130
    32  C    0.052371
    33  C    0.005625
    34  N   -0.353821
    35  C    0.147108
    36  C   -0.175922
    37  C   -0.039598
    38  C    0.112885
    39  C    0.129226
    40  C    0.055396
    41  O   -0.170869
    42  C   -0.052817
    43  C    0.188962
    44  O   -0.214131
    45  O   -0.344526
    46  C    0.199256
    47  C    0.257283
    48  C   -0.115991
    49  C   -0.155104
    50  C    0.088207
    51  C    0.073492
    52  C    0.000854
    53  C    0.020958
    54  C   -0.117760
    55  C    0.062447
    56  C    0.076103
    57  C   -0.008248
    58  C    0.038233
    59  C   -0.135104
    60  C    0.040447
    61  C    0.063433
    62  C    0.015633
    63  C    0.074449
    64  C   -0.125415
    65  C    0.029378
    66  C    0.030162
    67  H   -0.030748
    68  H    0.001014
    69  H   -0.042148
    70  H    0.035038
    71  H    0.007407
    72  H    0.027680
    73  H    0.028520
    74  H    0.017511
    75  H    0.005562
    76  H    0.009979
    77  H    0.018924
    78  H    0.027321
    79  H    0.029362
    80  H    0.020775
    81  H    0.018882
    82  H    0.034652
    83  H    0.019362
    84  H    0.019149
    85  H    0.010276
    86  H    0.011089
    87  H    0.033704
    88  H    0.010993
    89  H    0.024267
    90  H    0.009936
    91  H    0.002768
    92  H    0.009013
    93  H    0.025504
    94  H    0.012469
    95  H    0.033856
    96  H    0.019227
    97  H    0.022994
    98  H    0.040375
    99  H    0.050391
   100  H    0.035557
   101  H    0.016474
   102  H    0.032200
   103  H    0.052326
   104  H    0.004372
   105  H    0.024204
   106  H    0.021063
   107  H    0.030781
   108  H    0.010036
   109  H   -0.014176
   110  H   -0.005102
   111  H    0.001129
   112  H   -0.017572
   113  H   -0.012840
   114  H   -0.005832
   115  H    0.010442
   116  H    0.005380
   117  H    0.016069
   118  H   -0.008454
   119  H   -0.005975
   120  H   -0.011538
   121  H    0.018174
   122  H   -0.005852
   123  H   -0.010631
   124  H   -0.001012
   125  H    0.000141
   126  H    0.014092
   127  H    0.001472
   128  H   -0.013332
   129  H   -0.027574
   130  H   -0.009745
   131  H   -0.023230
   132  H   -0.002613
   133  H   -0.001728
   134  H    0.007076
   135  H   -0.002301
   136  H   -0.008681
   137  H    0.007320
   138  H    0.011036
   139  H    0.000406
   140  H    0.023480
 Sum of Mulliken charges =  -0.00000

 Dipole moment (field-independent basis, Debye):
    X=              6.1679    Y=              3.3860    Z=             -2.7819  Tot=              7.5662
 Quadrupole moment (field-independent basis, Debye-Ang):
   XX=           -378.0878   YY=           -428.2302   ZZ=           -405.5397
   XY=            -27.3450   XZ=              9.9868   YZ=              5.6583

 Normal termination of Gaussian 16 at Fri Apr 29 08:36:23 2022.
