 Gaussian 16, Revision A.03,
 Gaussian 16:  ES64L-G16RevA.03 25-Dec-2016

 ---------------------------------
 #p PBE1PBE/Def2SVP td=(nstates=5)
 ---------------------------------

 ----------------------------------------------------
 step_201_chromophore_6 TDDFT with PBE1PBE functional
 ----------------------------------------------------
 Symbolic Z-matrix:
 Charge =  0 Multiplicity = 1

                         Standard orientation:
 ---------------------------------------------------------------------
 Center     Atomic      Atomic             Coordinates (Angstroms)
 Number     Number       Type             X           Y           Z
 ---------------------------------------------------------------------
      1         12           0       -5.059620    1.157043   -0.442816
      2          6           0       -4.193521   -2.307831   -0.201781
      3          6           0       -1.502448    1.758165   -0.294924
      4          6           0       -5.658136    4.371711   -0.232931
      5          6           0       -8.307173    0.381877    0.151765
      6          7           0       -3.047649   -0.162136   -0.112710
      7          6           0       -3.017778   -1.512097   -0.123386
      8          6           0       -1.544299   -2.046397   -0.262540
      9          6           0       -0.720872   -0.662560   -0.218980
     10          6           0       -1.850371    0.356005   -0.261764
     11          6           0        0.330616   -0.527922    0.973461
     12          6           0       -1.327501   -2.926186   -1.517421
     13          6           0       -0.751839   -4.307917   -1.280144
     14          6           0        0.299000   -4.654346   -0.166361
     15          8           0        0.082978   -5.307840    0.843215
     16          8           0        1.427693   -4.007527   -0.416382
     17          7           0       -3.785870    2.838690   -0.366254
     18          6           0       -2.412782    2.846978   -0.285771
     19          6           0       -1.920570    4.271475   -0.298545
     20          6           0       -3.131679    5.046181   -0.219883
     21          6           0       -4.255326    4.116706   -0.313118
     22          6           0       -0.438199    4.645293   -0.220436
     23          6           0       -3.301785    6.531368   -0.198764
     24          8           0       -4.341031    7.120944   -0.191661
     25          6           0       -2.054472    7.364486   -0.338362
     26          7           0       -6.711116    2.201012   -0.073331
     27          6           0       -6.710493    3.504000   -0.088007
     28          6           0       -8.048582    4.061579    0.267512
     29          6           0       -9.044976    2.747225    0.202874
     30          6           0       -7.975503    1.707328    0.151250
     31          6           0       -7.986273    4.750471    1.673468
     32          6           0       -9.952443    2.710482   -1.046543
     33          6           0      -11.336026    2.110255   -0.845917
     34          7           0       -6.104407   -0.617094   -0.166438
     35          6           0       -7.452810   -0.715273    0.045254
     36          6           0       -7.805568   -2.131191   -0.007821
     37          6           0       -6.520312   -2.811885   -0.194874
     38          6           0       -5.518488   -1.824852   -0.191753
     39          6           0       -9.168083   -2.698318    0.139424
     40          6           0       -5.874824   -4.175585   -0.262219
     41          8           0       -6.351258   -5.316727   -0.280593
     42          6           0       -4.322471   -3.854742   -0.179954
     43          6           0       -3.942121   -4.617573    1.017258
     44          8           0       -3.804366   -4.124030    2.118566
     45          8           0       -3.829067   -5.964569    0.782077
     46          6           0       -3.227462   -6.854533    1.799212
     47          6           0        2.619209   -4.455515    0.410450
     48          6           0        3.746101   -3.405717    0.232074
     49          6           0        5.083504   -3.543006    0.340556
     50          6           0        5.782311   -4.829123    0.792967
     51          6           0        5.955142   -2.409717   -0.175338
     52          6           0        6.963245   -2.780309   -1.304646
     53          6           0        8.378392   -2.968151   -0.754406
     54          6           0        9.301531   -1.731270   -1.004573
     55          6           0        9.728048   -1.550935   -2.500381
     56          6           0       10.486579   -1.852165   -0.093228
     57          6           0       10.696218   -0.484893    0.593639
     58          6           0       12.251668   -0.148585    0.582185
     59          6           0       12.591462    1.098979   -0.299405
     60          6           0       13.712054    0.606076   -1.248867
     61          6           0       12.907420    2.371591    0.501990
     62          6           0       12.136295    3.532312   -0.034368
     63          6           0       10.650992    3.666326    0.476781
     64          6           0       10.305222    4.968229    1.249821
     65          6           0        9.608259    5.866954    0.329742
     66          6           0        9.285891    4.734441    2.493583
     67          1           0       -0.435123    1.988801   -0.292748
     68          1           0       -5.898985    5.430802   -0.351749
     69          1           0       -9.373364    0.160572    0.236657
     70          1           0       -1.439134   -2.596573    0.672975
     71          1           0       -0.198700   -0.602269   -1.173853
     72          1           0        0.580785   -1.460764    1.479514
     73          1           0       -0.127730    0.143753    1.699368
     74          1           0        1.275349   -0.186759    0.551362
     75          1           0       -0.808978   -2.466929   -2.358158
     76          1           0       -2.306540   -3.138775   -1.948617
     77          1           0       -0.256732   -4.646852   -2.190478
     78          1           0       -1.506935   -5.037249   -0.988728
     79          1           0       -0.264385    5.351476    0.591520
     80          1           0       -0.063834    5.174854   -1.096336
     81          1           0        0.336888    3.881130   -0.161261
     82          1           0       -1.456425    7.175991   -1.229303
     83          1           0       -1.429620    7.193956    0.537820
     84          1           0       -2.256717    8.435484   -0.341177
     85          1           0       -8.336884    4.683520   -0.580460
     86          1           0       -9.657583    2.651782    1.099660
     87          1           0       -6.942177    4.772293    1.985920
     88          1           0       -8.556175    4.190043    2.415572
     89          1           0       -8.412731    5.753454    1.671779
     90          1           0       -9.483687    2.142122   -1.850492
     91          1           0       -9.958149    3.730860   -1.428383
     92          1           0      -11.472521    1.803049    0.190887
     93          1           0      -11.509673    1.286736   -1.538923
     94          1           0      -12.160875    2.818306   -0.922677
     95          1           0       -9.074913   -3.746903    0.422616
     96          1           0       -9.565879   -2.726884   -0.875017
     97          1           0       -9.885257   -2.143858    0.745220
     98          1           0       -3.861166   -4.399305   -1.004572
     99          1           0       -2.409393   -6.334064    2.296976
    100          1           0       -3.044276   -7.873122    1.459251
    101          1           0       -3.964421   -7.069151    2.572370
    102          1           0        2.810179   -5.452662    0.014958
    103          1           0        2.261980   -4.565421    1.434762
    104          1           0        3.392888   -2.464404   -0.187405
    105          1           0        5.150475   -5.474112    1.404600
    106          1           0        6.676315   -4.515169    1.331123
    107          1           0        6.118362   -5.359192   -0.098210
    108          1           0        6.475043   -1.889496    0.628920
    109          1           0        5.339514   -1.634556   -0.632041
    110          1           0        6.914225   -1.939578   -1.995990
    111          1           0        6.679212   -3.625082   -1.932443
    112          1           0        8.781946   -3.881317   -1.192265
    113          1           0        8.302889   -3.267246    0.290405
    114          1           0        8.694402   -0.892409   -0.664602
    115          1           0       10.779203   -1.777487   -2.679775
    116          1           0        9.651639   -0.478373   -2.675262
    117          1           0        9.108117   -2.068204   -3.232810
    118          1           0       11.364419   -2.153224   -0.665747
    119          1           0       10.420878   -2.622200    0.676648
    120          1           0       10.514699   -0.655478    1.654806
    121          1           0       10.070237    0.365428    0.323624
    122          1           0       12.826575   -1.004512    0.229198
    123          1           0       12.498948    0.051727    1.624664
    124          1           0       11.803450    1.340887   -1.012138
    125          1           0       13.966860    1.374629   -1.978654
    126          1           0       13.458282   -0.347026   -1.712956
    127          1           0       14.552147    0.482822   -0.565964
    128          1           0       13.937689    2.610530    0.763042
    129          1           0       12.590309    2.138677    1.518897
    130          1           0       12.349073    3.491326   -1.102866
    131          1           0       12.714093    4.429615    0.182718
    132          1           0       10.382009    2.825203    1.115549
    133          1           0       10.042779    3.586221   -0.423650
    134          1           0       11.199778    5.483645    1.599576
    135          1           0        9.993926    5.911399   -0.689281
    136          1           0        9.775032    6.885516    0.681973
    137          1           0        8.526641    5.826238    0.196737
    138          1           0        9.723177    5.266245    3.338058
    139          1           0        9.328939    3.711449    2.865385
    140          1           0        8.264952    5.008826    2.225889
 ---------------------------------------------------------------------

 SCF Done:  E(RPBE1PBE) =  -3005.35361845     A.U. after   15 cycles

 Excitation energies and oscillator strengths:

 Excited State   1:      Singlet-A      1.9106 eV  648.92 nm  f=0.3822  <S**2>=0.000
     245 -> 248       -0.18330
     246 -> 247        0.69047
     246 <- 247       -0.10139
 This state for optimization and/or second-order correction.
 Total Energy, E(TD-HF/TD-DFT) =  -3005.28340383
 Copying the excited state density for this state as the 1-particle RhoCI density.

 Excited State   2:      Singlet-A      2.3035 eV  538.25 nm  f=0.1057  <S**2>=0.000
     245 -> 247        0.64605
     246 -> 248        0.27787

 Excited State   3:      Singlet-A      2.9337 eV  422.62 nm  f=0.0072  <S**2>=0.000
     243 -> 247        0.10134
     244 -> 247        0.68704

 Excited State   4:      Singlet-A      3.0727 eV  403.51 nm  f=0.0012  <S**2>=0.000
     243 -> 247        0.66793
     243 -> 249        0.16165
     244 -> 247       -0.11194

 Excited State   5:      Singlet-A      3.1727 eV  390.79 nm  f=0.0017  <S**2>=0.000
     242 -> 247        0.66653
     242 -> 249       -0.14585
     242 -> 250       -0.10173

 The electronic state is 1-A.
 Alpha  occ. eigenvalues --  -46.91999 -19.25907 -19.23514 -19.19854 -19.19065
 Alpha  occ. eigenvalues --  -19.19023 -19.18036 -14.41319 -14.40863 -14.39478
 Alpha  occ. eigenvalues --  -14.38244 -10.36040 -10.34860 -10.32472 -10.31755
 Alpha  occ. eigenvalues --  -10.30429 -10.28534 -10.28424 -10.28292 -10.28085
 Alpha  occ. eigenvalues --  -10.27637 -10.27535 -10.27516 -10.27432 -10.26601
 Alpha  occ. eigenvalues --  -10.26096 -10.26007 -10.25792 -10.25788 -10.25749
 Alpha  occ. eigenvalues --  -10.25500 -10.25482 -10.25252 -10.25245 -10.25197
 Alpha  occ. eigenvalues --  -10.25092 -10.25055 -10.24980 -10.24534 -10.24117
 Alpha  occ. eigenvalues --  -10.24057 -10.23904 -10.23829 -10.23795 -10.23725
 Alpha  occ. eigenvalues --  -10.23682 -10.23471 -10.23132 -10.23081 -10.23070
 Alpha  occ. eigenvalues --  -10.23016 -10.23003 -10.22957 -10.22946 -10.22781
 Alpha  occ. eigenvalues --  -10.22693 -10.22640 -10.22634 -10.22495 -10.22485
 Alpha  occ. eigenvalues --  -10.22402 -10.22239 -10.22129 -10.21853 -10.21772
 Alpha  occ. eigenvalues --  -10.21353  -3.14228  -1.87048  -1.86631  -1.86427
 Alpha  occ. eigenvalues --   -1.11882  -1.09069  -1.06422  -1.03204  -1.02390
 Alpha  occ. eigenvalues --   -1.00629  -0.99745  -0.99063  -0.97481  -0.97067
 Alpha  occ. eigenvalues --   -0.86094  -0.85051  -0.84190  -0.83677  -0.83393
 Alpha  occ. eigenvalues --   -0.83024  -0.82243  -0.81935  -0.81427  -0.80968
 Alpha  occ. eigenvalues --   -0.79935  -0.79357  -0.78620  -0.77816  -0.77378
 Alpha  occ. eigenvalues --   -0.76788  -0.75921  -0.75315  -0.74869  -0.74319
 Alpha  occ. eigenvalues --   -0.73985  -0.72761  -0.71701  -0.71521  -0.70862
 Alpha  occ. eigenvalues --   -0.69949  -0.69584  -0.69366  -0.69071  -0.68941
 Alpha  occ. eigenvalues --   -0.67504  -0.66643  -0.66159  -0.65069  -0.63681
 Alpha  occ. eigenvalues --   -0.63053  -0.62459  -0.61619  -0.61146  -0.60497
 Alpha  occ. eigenvalues --   -0.60214  -0.59860  -0.59268  -0.58745  -0.58530
 Alpha  occ. eigenvalues --   -0.58117  -0.57769  -0.57190  -0.55466  -0.55180
 Alpha  occ. eigenvalues --   -0.54383  -0.53456  -0.53305  -0.52676  -0.52325
 Alpha  occ. eigenvalues --   -0.51360  -0.50957  -0.50542  -0.50016  -0.49640
 Alpha  occ. eigenvalues --   -0.49223  -0.49133  -0.48699  -0.48406  -0.48133
 Alpha  occ. eigenvalues --   -0.47980  -0.47753  -0.47506  -0.47355  -0.47105
 Alpha  occ. eigenvalues --   -0.46809  -0.46632  -0.46353  -0.46259  -0.46154
 Alpha  occ. eigenvalues --   -0.45976  -0.45578  -0.45527  -0.45289  -0.45062
 Alpha  occ. eigenvalues --   -0.44870  -0.44691  -0.44637  -0.44415  -0.44103
 Alpha  occ. eigenvalues --   -0.43828  -0.43596  -0.43547  -0.43458  -0.42973
 Alpha  occ. eigenvalues --   -0.42922  -0.42781  -0.42646  -0.42297  -0.42180
 Alpha  occ. eigenvalues --   -0.42009  -0.41817  -0.41755  -0.41709  -0.41407
 Alpha  occ. eigenvalues --   -0.41250  -0.41177  -0.40948  -0.40778  -0.40695
 Alpha  occ. eigenvalues --   -0.40629  -0.40140  -0.40068  -0.39984  -0.39902
 Alpha  occ. eigenvalues --   -0.39800  -0.39425  -0.39050  -0.38972  -0.38763
 Alpha  occ. eigenvalues --   -0.38570  -0.38432  -0.38245  -0.37855  -0.37713
 Alpha  occ. eigenvalues --   -0.37570  -0.37334  -0.37256  -0.37131  -0.36922
 Alpha  occ. eigenvalues --   -0.36839  -0.36761  -0.36547  -0.36327  -0.36229
 Alpha  occ. eigenvalues --   -0.35983  -0.35489  -0.35264  -0.35025  -0.34739
 Alpha  occ. eigenvalues --   -0.34694  -0.34574  -0.34496  -0.33768  -0.33355
 Alpha  occ. eigenvalues --   -0.33068  -0.32705  -0.32612  -0.32361  -0.32068
 Alpha  occ. eigenvalues --   -0.32029  -0.31979  -0.31926  -0.31721  -0.30986
 Alpha  occ. eigenvalues --   -0.30707  -0.29989  -0.29456  -0.28926  -0.28899
 Alpha  occ. eigenvalues --   -0.28611  -0.28304  -0.27221  -0.26723  -0.25936
 Alpha  occ. eigenvalues --   -0.25795  -0.25653  -0.25032  -0.24138  -0.20774
 Alpha  occ. eigenvalues --   -0.18496
 Alpha virt. eigenvalues --   -0.10671  -0.04813  -0.03649  -0.01798  -0.00625
 Alpha virt. eigenvalues --    0.00330   0.01212   0.01981   0.02500   0.03644
 Alpha virt. eigenvalues --    0.04684   0.04920   0.05055   0.05352   0.05809

 Mulliken charges:
               1
     1  Mg   0.987492
     2  C    0.024666
     3  C   -0.062058
     4  C   -0.075885
     5  C   -0.089580
     6  N   -0.284259
     7  C    0.001208
     8  C   -0.099133
     9  C   -0.113102
    10  C    0.025154
    11  C    0.001356
    12  C    0.067945
    13  C   -0.045393
    14  C    0.182771
    15  O   -0.273993
    16  O   -0.355140
    17  N   -0.479934
    18  C    0.173790
    19  C   -0.137171
    20  C   -0.091070
    21  C    0.145352
    22  C    0.034894
    23  C    0.051489
    24  O   -0.209457
    25  C   -0.041385
    26  N   -0.448910
    27  C    0.098550
    28  C   -0.123470
    29  C   -0.130394
    30  C    0.102158
    31  C    0.025943
    32  C   -0.002227
    33  C   -0.066918
    34  N   -0.485871
    35  C    0.174531
    36  C   -0.198001
    37  C   -0.078490
    38  C    0.164673
    39  C    0.072449
    40  C    0.143299
    41  O   -0.212911
    42  C   -0.154779
    43  C    0.280671
    44  O   -0.250308
    45  O   -0.377674
    46  C    0.144700
    47  C    0.219340
    48  C   -0.129307
    49  C   -0.198293
    50  C    0.024702
    51  C    0.008320
    52  C   -0.060501
    53  C   -0.033325
    54  C   -0.211571
    55  C    0.006208
    56  C    0.029384
    57  C   -0.073621
    58  C   -0.017152
    59  C   -0.217032
    60  C   -0.025469
    61  C    0.015613
    62  C   -0.052017
    63  C    0.018611
    64  C   -0.220693
    65  C   -0.028888
    66  C   -0.028565
    67  H    0.001380
    68  H    0.032832
    69  H   -0.006126
    70  H    0.074405
    71  H    0.045031
    72  H    0.054949
    73  H    0.056567
    74  H    0.043686
    75  H    0.036747
    76  H    0.045079
    77  H    0.051888
    78  H    0.061727
    79  H    0.055602
    80  H    0.046798
    81  H    0.043036
    82  H    0.060840
    83  H    0.046638
    84  H    0.046291
    85  H    0.046236
    86  H    0.047189
    87  H    0.062920
    88  H    0.038115
    89  H    0.051580
    90  H    0.043095
    91  H    0.036610
    92  H    0.034805
    93  H    0.052418
    94  H    0.041354
    95  H    0.063334
    96  H    0.050425
    97  H    0.050043
    98  H    0.077437
    99  H    0.071946
   100  H    0.057200
   101  H    0.038875
   102  H    0.058162
   103  H    0.077110
   104  H    0.034500
   105  H    0.051390
   106  H    0.048848
   107  H    0.058132
   108  H    0.043029
   109  H    0.017943
   110  H    0.028133
   111  H    0.032872
   112  H    0.015717
   113  H    0.021154
   114  H    0.033765
   115  H    0.037066
   116  H    0.033369
   117  H    0.042385
   118  H    0.022846
   119  H    0.025315
   120  H    0.023392
   121  H    0.047846
   122  H    0.025462
   123  H    0.021575
   124  H    0.037862
   125  H    0.028693
   126  H    0.042830
   127  H    0.030988
   128  H    0.017033
   129  H    0.006473
   130  H    0.023663
   131  H    0.009843
   132  H    0.030608
   133  H    0.030159
   134  H    0.042557
   135  H    0.026609
   136  H    0.020658
   137  H    0.034352
   138  H    0.038792
   139  H    0.027249
   140  H    0.049347
 Sum of Mulliken charges =  -0.00000

 Dipole moment (field-independent basis, Debye):
    X=              5.6237    Y=              2.9212    Z=             -2.7795  Tot=              6.9199
 Quadrupole moment (field-independent basis, Debye-Ang):
   XX=           -367.1354   YY=           -426.4449   ZZ=           -403.2017
   XY=            -26.0942   XZ=              9.9001   YZ=              5.7231

 Normal termination of Gaussian 16 at Fri Apr 29 08:52:02 2022.
