 Gaussian 16, Revision A.03,
 Gaussian 16:  ES64L-G16RevA.03 25-Dec-2016

 --------------------------------
 #p wB97XD/Def2SVP td=(nstates=5)
 --------------------------------

 ---------------------------------------------------
 step_201_chromophore_6 TDDFT with wB97XD functional
 ---------------------------------------------------
 Symbolic Z-matrix:
 Charge =  0 Multiplicity = 1

                         Standard orientation:
 ---------------------------------------------------------------------
 Center     Atomic      Atomic             Coordinates (Angstroms)
 Number     Number       Type             X           Y           Z
 ---------------------------------------------------------------------
      1         12           0       -5.059620    1.157043   -0.442816
      2          6           0       -4.193521   -2.307831   -0.201781
      3          6           0       -1.502448    1.758165   -0.294924
      4          6           0       -5.658136    4.371711   -0.232931
      5          6           0       -8.307173    0.381877    0.151765
      6          7           0       -3.047649   -0.162136   -0.112710
      7          6           0       -3.017778   -1.512097   -0.123386
      8          6           0       -1.544299   -2.046397   -0.262540
      9          6           0       -0.720872   -0.662560   -0.218980
     10          6           0       -1.850371    0.356005   -0.261764
     11          6           0        0.330616   -0.527922    0.973461
     12          6           0       -1.327501   -2.926186   -1.517421
     13          6           0       -0.751839   -4.307917   -1.280144
     14          6           0        0.299000   -4.654346   -0.166361
     15          8           0        0.082978   -5.307840    0.843215
     16          8           0        1.427693   -4.007527   -0.416382
     17          7           0       -3.785870    2.838690   -0.366254
     18          6           0       -2.412782    2.846978   -0.285771
     19          6           0       -1.920570    4.271475   -0.298545
     20          6           0       -3.131679    5.046181   -0.219883
     21          6           0       -4.255326    4.116706   -0.313118
     22          6           0       -0.438199    4.645293   -0.220436
     23          6           0       -3.301785    6.531368   -0.198764
     24          8           0       -4.341031    7.120944   -0.191661
     25          6           0       -2.054472    7.364486   -0.338362
     26          7           0       -6.711116    2.201012   -0.073331
     27          6           0       -6.710493    3.504000   -0.088007
     28          6           0       -8.048582    4.061579    0.267512
     29          6           0       -9.044976    2.747225    0.202874
     30          6           0       -7.975503    1.707328    0.151250
     31          6           0       -7.986273    4.750471    1.673468
     32          6           0       -9.952443    2.710482   -1.046543
     33          6           0      -11.336026    2.110255   -0.845917
     34          7           0       -6.104407   -0.617094   -0.166438
     35          6           0       -7.452810   -0.715273    0.045254
     36          6           0       -7.805568   -2.131191   -0.007821
     37          6           0       -6.520312   -2.811885   -0.194874
     38          6           0       -5.518488   -1.824852   -0.191753
     39          6           0       -9.168083   -2.698318    0.139424
     40          6           0       -5.874824   -4.175585   -0.262219
     41          8           0       -6.351258   -5.316727   -0.280593
     42          6           0       -4.322471   -3.854742   -0.179954
     43          6           0       -3.942121   -4.617573    1.017258
     44          8           0       -3.804366   -4.124030    2.118566
     45          8           0       -3.829067   -5.964569    0.782077
     46          6           0       -3.227462   -6.854533    1.799212
     47          6           0        2.619209   -4.455515    0.410450
     48          6           0        3.746101   -3.405717    0.232074
     49          6           0        5.083504   -3.543006    0.340556
     50          6           0        5.782311   -4.829123    0.792967
     51          6           0        5.955142   -2.409717   -0.175338
     52          6           0        6.963245   -2.780309   -1.304646
     53          6           0        8.378392   -2.968151   -0.754406
     54          6           0        9.301531   -1.731270   -1.004573
     55          6           0        9.728048   -1.550935   -2.500381
     56          6           0       10.486579   -1.852165   -0.093228
     57          6           0       10.696218   -0.484893    0.593639
     58          6           0       12.251668   -0.148585    0.582185
     59          6           0       12.591462    1.098979   -0.299405
     60          6           0       13.712054    0.606076   -1.248867
     61          6           0       12.907420    2.371591    0.501990
     62          6           0       12.136295    3.532312   -0.034368
     63          6           0       10.650992    3.666326    0.476781
     64          6           0       10.305222    4.968229    1.249821
     65          6           0        9.608259    5.866954    0.329742
     66          6           0        9.285891    4.734441    2.493583
     67          1           0       -0.435123    1.988801   -0.292748
     68          1           0       -5.898985    5.430802   -0.351749
     69          1           0       -9.373364    0.160572    0.236657
     70          1           0       -1.439134   -2.596573    0.672975
     71          1           0       -0.198700   -0.602269   -1.173853
     72          1           0        0.580785   -1.460764    1.479514
     73          1           0       -0.127730    0.143753    1.699368
     74          1           0        1.275349   -0.186759    0.551362
     75          1           0       -0.808978   -2.466929   -2.358158
     76          1           0       -2.306540   -3.138775   -1.948617
     77          1           0       -0.256732   -4.646852   -2.190478
     78          1           0       -1.506935   -5.037249   -0.988728
     79          1           0       -0.264385    5.351476    0.591520
     80          1           0       -0.063834    5.174854   -1.096336
     81          1           0        0.336888    3.881130   -0.161261
     82          1           0       -1.456425    7.175991   -1.229303
     83          1           0       -1.429620    7.193956    0.537820
     84          1           0       -2.256717    8.435484   -0.341177
     85          1           0       -8.336884    4.683520   -0.580460
     86          1           0       -9.657583    2.651782    1.099660
     87          1           0       -6.942177    4.772293    1.985920
     88          1           0       -8.556175    4.190043    2.415572
     89          1           0       -8.412731    5.753454    1.671779
     90          1           0       -9.483687    2.142122   -1.850492
     91          1           0       -9.958149    3.730860   -1.428383
     92          1           0      -11.472521    1.803049    0.190887
     93          1           0      -11.509673    1.286736   -1.538923
     94          1           0      -12.160875    2.818306   -0.922677
     95          1           0       -9.074913   -3.746903    0.422616
     96          1           0       -9.565879   -2.726884   -0.875017
     97          1           0       -9.885257   -2.143858    0.745220
     98          1           0       -3.861166   -4.399305   -1.004572
     99          1           0       -2.409393   -6.334064    2.296976
    100          1           0       -3.044276   -7.873122    1.459251
    101          1           0       -3.964421   -7.069151    2.572370
    102          1           0        2.810179   -5.452662    0.014958
    103          1           0        2.261980   -4.565421    1.434762
    104          1           0        3.392888   -2.464404   -0.187405
    105          1           0        5.150475   -5.474112    1.404600
    106          1           0        6.676315   -4.515169    1.331123
    107          1           0        6.118362   -5.359192   -0.098210
    108          1           0        6.475043   -1.889496    0.628920
    109          1           0        5.339514   -1.634556   -0.632041
    110          1           0        6.914225   -1.939578   -1.995990
    111          1           0        6.679212   -3.625082   -1.932443
    112          1           0        8.781946   -3.881317   -1.192265
    113          1           0        8.302889   -3.267246    0.290405
    114          1           0        8.694402   -0.892409   -0.664602
    115          1           0       10.779203   -1.777487   -2.679775
    116          1           0        9.651639   -0.478373   -2.675262
    117          1           0        9.108117   -2.068204   -3.232810
    118          1           0       11.364419   -2.153224   -0.665747
    119          1           0       10.420878   -2.622200    0.676648
    120          1           0       10.514699   -0.655478    1.654806
    121          1           0       10.070237    0.365428    0.323624
    122          1           0       12.826575   -1.004512    0.229198
    123          1           0       12.498948    0.051727    1.624664
    124          1           0       11.803450    1.340887   -1.012138
    125          1           0       13.966860    1.374629   -1.978654
    126          1           0       13.458282   -0.347026   -1.712956
    127          1           0       14.552147    0.482822   -0.565964
    128          1           0       13.937689    2.610530    0.763042
    129          1           0       12.590309    2.138677    1.518897
    130          1           0       12.349073    3.491326   -1.102866
    131          1           0       12.714093    4.429615    0.182718
    132          1           0       10.382009    2.825203    1.115549
    133          1           0       10.042779    3.586221   -0.423650
    134          1           0       11.199778    5.483645    1.599576
    135          1           0        9.993926    5.911399   -0.689281
    136          1           0        9.775032    6.885516    0.681973
    137          1           0        8.526641    5.826238    0.196737
    138          1           0        9.723177    5.266245    3.338058
    139          1           0        9.328939    3.711449    2.865385
    140          1           0        8.264952    5.008826    2.225889
 ---------------------------------------------------------------------

 SCF Done:  E(RwB97XD) =  -3007.86422740     A.U. after   17 cycles

 Excitation energies and oscillator strengths:

 Excited State   1:      Singlet-A      1.7375 eV  713.58 nm  f=0.3933  <S**2>=0.000
     245 -> 248       -0.18850
     246 -> 247        0.68175
     245 <- 248       -0.11493
 This state for optimization and/or second-order correction.
 Total Energy, E(TD-HF/TD-DFT) =  -3007.80037531
 Copying the excited state density for this state as the 1-particle RhoCI density.

 Excited State   2:      Singlet-A      2.2583 eV  549.03 nm  f=0.1034  <S**2>=0.000
     245 -> 247        0.63031
     246 -> 248        0.30424

 Excited State   3:      Singlet-A      3.4031 eV  364.32 nm  f=0.0034  <S**2>=0.000
     241 -> 247       -0.14722
     244 -> 247        0.66581
     244 -> 249       -0.11569

 Excited State   4:      Singlet-A      3.5608 eV  348.19 nm  f=0.4770  <S**2>=0.000
     239 -> 247       -0.16331
     240 -> 247        0.10374
     241 -> 247       -0.32339
     245 -> 247       -0.22647
     246 -> 248        0.54278

 Excited State   5:      Singlet-A      3.6500 eV  339.69 nm  f=0.0099  <S**2>=0.000
     243 -> 247        0.52294
     243 -> 249       -0.34065
     243 -> 250       -0.23762

 The electronic state is 1-A.
 Alpha  occ. eigenvalues --  -46.94920 -19.30441 -19.27998 -19.24448 -19.24151
 Alpha  occ. eigenvalues --  -19.23594 -19.22664 -14.46561 -14.45820 -14.44567
 Alpha  occ. eigenvalues --  -14.42972 -10.42768 -10.41617 -10.39096 -10.38868
 Alpha  occ. eigenvalues --  -10.36956 -10.35056 -10.34989 -10.34853 -10.34634
 Alpha  occ. eigenvalues --  -10.34604 -10.34049 -10.33867 -10.33517 -10.32465
 Alpha  occ. eigenvalues --  -10.32411 -10.32082 -10.32077 -10.32073 -10.32018
 Alpha  occ. eigenvalues --  -10.31961 -10.31880 -10.31869 -10.31744 -10.31425
 Alpha  occ. eigenvalues --  -10.31395 -10.31330 -10.31314 -10.30935 -10.30557
 Alpha  occ. eigenvalues --  -10.30554 -10.30218 -10.30206 -10.30204 -10.29990
 Alpha  occ. eigenvalues --  -10.29990 -10.29613 -10.29529 -10.29466 -10.29452
 Alpha  occ. eigenvalues --  -10.29355 -10.29275 -10.29244 -10.29181 -10.29148
 Alpha  occ. eigenvalues --  -10.29075 -10.29072 -10.29017 -10.28884 -10.28866
 Alpha  occ. eigenvalues --  -10.28789 -10.28598 -10.28513 -10.28242 -10.28228
 Alpha  occ. eigenvalues --  -10.27835  -3.21016  -1.94585  -1.94162  -1.93963
 Alpha  occ. eigenvalues --   -1.19220  -1.16392  -1.14148  -1.10475  -1.09680
 Alpha  occ. eigenvalues --   -1.07913  -1.07068  -1.06497  -1.04893  -1.04342
 Alpha  occ. eigenvalues --   -0.93571  -0.92760  -0.91886  -0.91190  -0.91059
 Alpha  occ. eigenvalues --   -0.90667  -0.89891  -0.89621  -0.89216  -0.88852
 Alpha  occ. eigenvalues --   -0.87350  -0.86998  -0.86289  -0.85282  -0.85032
 Alpha  occ. eigenvalues --   -0.84439  -0.83688  -0.83071  -0.82451  -0.82041
 Alpha  occ. eigenvalues --   -0.81678  -0.80665  -0.79303  -0.79048  -0.78559
 Alpha  occ. eigenvalues --   -0.77472  -0.77320  -0.76948  -0.76765  -0.76644
 Alpha  occ. eigenvalues --   -0.75137  -0.74089  -0.73717  -0.72685  -0.71175
 Alpha  occ. eigenvalues --   -0.70720  -0.70066  -0.69165  -0.68803  -0.67888
 Alpha  occ. eigenvalues --   -0.67736  -0.67546  -0.66647  -0.66434  -0.65992
 Alpha  occ. eigenvalues --   -0.65790  -0.65239  -0.64853  -0.62898  -0.62726
 Alpha  occ. eigenvalues --   -0.61912  -0.60768  -0.60622  -0.60022  -0.59684
 Alpha  occ. eigenvalues --   -0.58828  -0.58436  -0.58052  -0.57441  -0.57012
 Alpha  occ. eigenvalues --   -0.56610  -0.56538  -0.56151  -0.55782  -0.55591
 Alpha  occ. eigenvalues --   -0.55327  -0.55151  -0.54975  -0.54728  -0.54613
 Alpha  occ. eigenvalues --   -0.54318  -0.54181  -0.53737  -0.53559  -0.53474
 Alpha  occ. eigenvalues --   -0.53254  -0.52974  -0.52913  -0.52687  -0.52405
 Alpha  occ. eigenvalues --   -0.52192  -0.52036  -0.51847  -0.51677  -0.51461
 Alpha  occ. eigenvalues --   -0.51240  -0.51126  -0.50895  -0.50757  -0.50293
 Alpha  occ. eigenvalues --   -0.50243  -0.50122  -0.49978  -0.49703  -0.49492
 Alpha  occ. eigenvalues --   -0.49279  -0.49033  -0.48994  -0.48968  -0.48639
 Alpha  occ. eigenvalues --   -0.48507  -0.48399  -0.48233  -0.48101  -0.47957
 Alpha  occ. eigenvalues --   -0.47659  -0.47290  -0.47265  -0.47183  -0.47151
 Alpha  occ. eigenvalues --   -0.46825  -0.46455  -0.46145  -0.45974  -0.45798
 Alpha  occ. eigenvalues --   -0.45627  -0.45606  -0.45431  -0.45282  -0.44952
 Alpha  occ. eigenvalues --   -0.44710  -0.44535  -0.44434  -0.44205  -0.44014
 Alpha  occ. eigenvalues --   -0.43910  -0.43809  -0.43695  -0.43433  -0.43171
 Alpha  occ. eigenvalues --   -0.43039  -0.42527  -0.42393  -0.41975  -0.41837
 Alpha  occ. eigenvalues --   -0.41796  -0.41583  -0.41544  -0.40830  -0.40335
 Alpha  occ. eigenvalues --   -0.40120  -0.39784  -0.39496  -0.39448  -0.39066
 Alpha  occ. eigenvalues --   -0.39027  -0.39026  -0.38973  -0.38693  -0.37803
 Alpha  occ. eigenvalues --   -0.37674  -0.36982  -0.36465  -0.35750  -0.35641
 Alpha  occ. eigenvalues --   -0.35498  -0.35198  -0.34256  -0.33570  -0.32992
 Alpha  occ. eigenvalues --   -0.32647  -0.32579  -0.31837  -0.30354  -0.25799
 Alpha  occ. eigenvalues --   -0.22690
 Alpha virt. eigenvalues --   -0.06496   0.00595   0.02640   0.04681   0.05282
 Alpha virt. eigenvalues --    0.07070   0.08020   0.08812   0.09312   0.09964
 Alpha virt. eigenvalues --    0.11409   0.11492   0.11756   0.12105   0.12474

 Mulliken charges:
               1
     1  Mg   0.979526
     2  C    0.029103
     3  C   -0.080093
     4  C   -0.102217
     5  C   -0.103493
     6  N   -0.243815
     7  C   -0.038665
     8  C   -0.076487
     9  C   -0.092334
    10  C    0.010784
    11  C    0.014005
    12  C    0.082568
    13  C   -0.023707
    14  C    0.167597
    15  O   -0.271280
    16  O   -0.354471
    17  N   -0.448654
    18  C    0.171631
    19  C   -0.128259
    20  C   -0.081950
    21  C    0.136339
    22  C    0.046318
    23  C    0.049321
    24  O   -0.201326
    25  C   -0.029378
    26  N   -0.414133
    27  C    0.095558
    28  C   -0.099069
    29  C   -0.102672
    30  C    0.088460
    31  C    0.036512
    32  C    0.009324
    33  C   -0.051619
    34  N   -0.444422
    35  C    0.160332
    36  C   -0.192881
    37  C   -0.078717
    38  C    0.144300
    39  C    0.082340
    40  C    0.126687
    41  O   -0.205566
    42  C   -0.116504
    43  C    0.255752
    44  O   -0.243592
    45  O   -0.376174
    46  C    0.158644
    47  C    0.231117
    48  C   -0.137174
    49  C   -0.185735
    50  C    0.037777
    51  C    0.028591
    52  C   -0.047227
    53  C   -0.014888
    54  C   -0.174927
    55  C    0.014862
    56  C    0.042450
    57  C   -0.055548
    58  C    0.001648
    59  C   -0.191228
    60  C   -0.006270
    61  C    0.026355
    62  C   -0.030647
    63  C    0.035527
    64  C   -0.190924
    65  C   -0.018944
    66  C   -0.015856
    67  H   -0.006494
    68  H    0.028064
    69  H   -0.016842
    70  H    0.061842
    71  H    0.034313
    72  H    0.050565
    73  H    0.049872
    74  H    0.038255
    75  H    0.031129
    76  H    0.033514
    77  H    0.046651
    78  H    0.050695
    79  H    0.051061
    80  H    0.043435
    81  H    0.042294
    82  H    0.055699
    83  H    0.039928
    84  H    0.046207
    85  H    0.035852
    86  H    0.035701
    87  H    0.054846
    88  H    0.033153
    89  H    0.046864
    90  H    0.034363
    91  H    0.027073
    92  H    0.027574
    93  H    0.047650
    94  H    0.035689
    95  H    0.058192
    96  H    0.042742
    97  H    0.044343
    98  H    0.067278
    99  H    0.069503
   100  H    0.054023
   101  H    0.034391
   102  H    0.053780
   103  H    0.073336
   104  H    0.030586
   105  H    0.047705
   106  H    0.042412
   107  H    0.052106
   108  H    0.034494
   109  H    0.010916
   110  H    0.018914
   111  H    0.026155
   112  H    0.007812
   113  H    0.005254
   114  H    0.017314
   115  H    0.031245
   116  H    0.027242
   117  H    0.037296
   118  H    0.009840
   119  H    0.018815
   120  H    0.015628
   121  H    0.036300
   122  H    0.014977
   123  H    0.013507
   124  H    0.021625
   125  H    0.023026
   126  H    0.034695
   127  H    0.022072
   128  H    0.012007
   129  H   -0.005873
   130  H    0.013286
   131  H    0.001394
   132  H    0.015641
   133  H    0.021617
   134  H    0.033276
   135  H    0.019586
   136  H    0.014390
   137  H    0.027804
   138  H    0.033065
   139  H    0.021510
   140  H    0.043245
 Sum of Mulliken charges =  -0.00000

 Dipole moment (field-independent basis, Debye):
    X=              6.3560    Y=              3.5684    Z=             -2.8494  Tot=              7.8263
 Quadrupole moment (field-independent basis, Debye-Ang):
   XX=           -373.8303   YY=           -423.4641   ZZ=           -402.8562
   XY=            -27.9074   XZ=             10.0150   YZ=              5.6212

 Normal termination of Gaussian 16 at Fri Apr 29 09:19:27 2022.
