 Gaussian 16, Revision A.03,
 Gaussian 16:  ES64L-G16RevA.03 25-Dec-2016

 --------------------
 #p ZINDO=(nstates=5)
 --------------------

 ----------------------------
 step_201_chromophore_6 ZINDO
 ----------------------------
 Symbolic Z-matrix:
 Charge =  0 Multiplicity = 1

                         Standard orientation:
 ---------------------------------------------------------------------
 Center     Atomic      Atomic             Coordinates (Angstroms)
 Number     Number       Type             X           Y           Z
 ---------------------------------------------------------------------
      1         12           0       -5.059620    1.157043   -0.442816
      2          6           0       -4.193521   -2.307831   -0.201781
      3          6           0       -1.502448    1.758165   -0.294924
      4          6           0       -5.658136    4.371711   -0.232931
      5          6           0       -8.307173    0.381877    0.151765
      6          7           0       -3.047649   -0.162136   -0.112710
      7          6           0       -3.017778   -1.512097   -0.123386
      8          6           0       -1.544299   -2.046397   -0.262540
      9          6           0       -0.720872   -0.662560   -0.218980
     10          6           0       -1.850371    0.356005   -0.261764
     11          6           0        0.330616   -0.527922    0.973461
     12          6           0       -1.327501   -2.926186   -1.517421
     13          6           0       -0.751839   -4.307917   -1.280144
     14          6           0        0.299000   -4.654346   -0.166361
     15          8           0        0.082978   -5.307840    0.843215
     16          8           0        1.427693   -4.007527   -0.416382
     17          7           0       -3.785870    2.838690   -0.366254
     18          6           0       -2.412782    2.846978   -0.285771
     19          6           0       -1.920570    4.271475   -0.298545
     20          6           0       -3.131679    5.046181   -0.219883
     21          6           0       -4.255326    4.116706   -0.313118
     22          6           0       -0.438199    4.645293   -0.220436
     23          6           0       -3.301785    6.531368   -0.198764
     24          8           0       -4.341031    7.120944   -0.191661
     25          6           0       -2.054472    7.364486   -0.338362
     26          7           0       -6.711116    2.201012   -0.073331
     27          6           0       -6.710493    3.504000   -0.088007
     28          6           0       -8.048582    4.061579    0.267512
     29          6           0       -9.044976    2.747225    0.202874
     30          6           0       -7.975503    1.707328    0.151250
     31          6           0       -7.986273    4.750471    1.673468
     32          6           0       -9.952443    2.710482   -1.046543
     33          6           0      -11.336026    2.110255   -0.845917
     34          7           0       -6.104407   -0.617094   -0.166438
     35          6           0       -7.452810   -0.715273    0.045254
     36          6           0       -7.805568   -2.131191   -0.007821
     37          6           0       -6.520312   -2.811885   -0.194874
     38          6           0       -5.518488   -1.824852   -0.191753
     39          6           0       -9.168083   -2.698318    0.139424
     40          6           0       -5.874824   -4.175585   -0.262219
     41          8           0       -6.351258   -5.316727   -0.280593
     42          6           0       -4.322471   -3.854742   -0.179954
     43          6           0       -3.942121   -4.617573    1.017258
     44          8           0       -3.804366   -4.124030    2.118566
     45          8           0       -3.829067   -5.964569    0.782077
     46          6           0       -3.227462   -6.854533    1.799212
     47          6           0        2.619209   -4.455515    0.410450
     48          6           0        3.746101   -3.405717    0.232074
     49          6           0        5.083504   -3.543006    0.340556
     50          6           0        5.782311   -4.829123    0.792967
     51          6           0        5.955142   -2.409717   -0.175338
     52          6           0        6.963245   -2.780309   -1.304646
     53          6           0        8.378392   -2.968151   -0.754406
     54          6           0        9.301531   -1.731270   -1.004573
     55          6           0        9.728048   -1.550935   -2.500381
     56          6           0       10.486579   -1.852165   -0.093228
     57          6           0       10.696218   -0.484893    0.593639
     58          6           0       12.251668   -0.148585    0.582185
     59          6           0       12.591462    1.098979   -0.299405
     60          6           0       13.712054    0.606076   -1.248867
     61          6           0       12.907420    2.371591    0.501990
     62          6           0       12.136295    3.532312   -0.034368
     63          6           0       10.650992    3.666326    0.476781
     64          6           0       10.305222    4.968229    1.249821
     65          6           0        9.608259    5.866954    0.329742
     66          6           0        9.285891    4.734441    2.493583
     67          1           0       -0.435123    1.988801   -0.292748
     68          1           0       -5.898985    5.430802   -0.351749
     69          1           0       -9.373364    0.160572    0.236657
     70          1           0       -1.439134   -2.596573    0.672975
     71          1           0       -0.198700   -0.602269   -1.173853
     72          1           0        0.580785   -1.460764    1.479514
     73          1           0       -0.127730    0.143753    1.699368
     74          1           0        1.275349   -0.186759    0.551362
     75          1           0       -0.808978   -2.466929   -2.358158
     76          1           0       -2.306540   -3.138775   -1.948617
     77          1           0       -0.256732   -4.646852   -2.190478
     78          1           0       -1.506935   -5.037249   -0.988728
     79          1           0       -0.264385    5.351476    0.591520
     80          1           0       -0.063834    5.174854   -1.096336
     81          1           0        0.336888    3.881130   -0.161261
     82          1           0       -1.456425    7.175991   -1.229303
     83          1           0       -1.429620    7.193956    0.537820
     84          1           0       -2.256717    8.435484   -0.341177
     85          1           0       -8.336884    4.683520   -0.580460
     86          1           0       -9.657583    2.651782    1.099660
     87          1           0       -6.942177    4.772293    1.985920
     88          1           0       -8.556175    4.190043    2.415572
     89          1           0       -8.412731    5.753454    1.671779
     90          1           0       -9.483687    2.142122   -1.850492
     91          1           0       -9.958149    3.730860   -1.428383
     92          1           0      -11.472521    1.803049    0.190887
     93          1           0      -11.509673    1.286736   -1.538923
     94          1           0      -12.160875    2.818306   -0.922677
     95          1           0       -9.074913   -3.746903    0.422616
     96          1           0       -9.565879   -2.726884   -0.875017
     97          1           0       -9.885257   -2.143858    0.745220
     98          1           0       -3.861166   -4.399305   -1.004572
     99          1           0       -2.409393   -6.334064    2.296976
    100          1           0       -3.044276   -7.873122    1.459251
    101          1           0       -3.964421   -7.069151    2.572370
    102          1           0        2.810179   -5.452662    0.014958
    103          1           0        2.261980   -4.565421    1.434762
    104          1           0        3.392888   -2.464404   -0.187405
    105          1           0        5.150475   -5.474112    1.404600
    106          1           0        6.676315   -4.515169    1.331123
    107          1           0        6.118362   -5.359192   -0.098210
    108          1           0        6.475043   -1.889496    0.628920
    109          1           0        5.339514   -1.634556   -0.632041
    110          1           0        6.914225   -1.939578   -1.995990
    111          1           0        6.679212   -3.625082   -1.932443
    112          1           0        8.781946   -3.881317   -1.192265
    113          1           0        8.302889   -3.267246    0.290405
    114          1           0        8.694402   -0.892409   -0.664602
    115          1           0       10.779203   -1.777487   -2.679775
    116          1           0        9.651639   -0.478373   -2.675262
    117          1           0        9.108117   -2.068204   -3.232810
    118          1           0       11.364419   -2.153224   -0.665747
    119          1           0       10.420878   -2.622200    0.676648
    120          1           0       10.514699   -0.655478    1.654806
    121          1           0       10.070237    0.365428    0.323624
    122          1           0       12.826575   -1.004512    0.229198
    123          1           0       12.498948    0.051727    1.624664
    124          1           0       11.803450    1.340887   -1.012138
    125          1           0       13.966860    1.374629   -1.978654
    126          1           0       13.458282   -0.347026   -1.712956
    127          1           0       14.552147    0.482822   -0.565964
    128          1           0       13.937689    2.610530    0.763042
    129          1           0       12.590309    2.138677    1.518897
    130          1           0       12.349073    3.491326   -1.102866
    131          1           0       12.714093    4.429615    0.182718
    132          1           0       10.382009    2.825203    1.115549
    133          1           0       10.042779    3.586221   -0.423650
    134          1           0       11.199778    5.483645    1.599576
    135          1           0        9.993926    5.911399   -0.689281
    136          1           0        9.775032    6.885516    0.681973
    137          1           0        8.526641    5.826238    0.196737
    138          1           0        9.723177    5.266245    3.338058
    139          1           0        9.328939    3.711449    2.865385
    140          1           0        8.264952    5.008826    2.225889
 ---------------------------------------------------------------------

 SCF Done:  E(RZINDO/S) =  -474.306253315     A.U. after   20 cycles

 Excitation energies and oscillator strengths:

 Excited State   1:      Singlet-A      1.3349 eV  928.79 nm  f=0.5632  <S**2>=0.000
     175 ->178         0.17517
     176 ->177         0.66680
 This state for optimization and/or second-order correction.
 Total Energy, E(CIS/TDA) =  -474.257196845
 Copying the excited state density for this state as the 1-particle RhoCI density.

 Excited State   2:      Singlet-A      1.9621 eV  631.91 nm  f=0.0342  <S**2>=0.000
     175 ->177         0.53375
     176 ->178        -0.42664

 Excited State   3:      Singlet-A      2.9460 eV  420.86 nm  f=0.2831  <S**2>=0.000
     167 ->177         0.10598
     167 ->179        -0.16128
     168 ->177         0.23999
     168 ->179        -0.30677
     168 ->180         0.15995
     168 ->184         0.10753
     168 ->186         0.12434
     175 ->177         0.20170
     176 ->178         0.29858
     176 ->179        -0.16703

 Excited State   4:      Singlet-A      2.9678 eV  417.76 nm  f=0.4497  <S**2>=0.000
     167 ->179         0.12067
     168 ->177        -0.16626
     168 ->179         0.22889
     168 ->180        -0.13330
     171 ->177        -0.10339
     175 ->177         0.26115
     176 ->178         0.37961
     176 ->179        -0.21871
     176 ->180        -0.14756

 Excited State   5:      Singlet-A      3.0839 eV  402.04 nm  f=0.0444  <S**2>=0.000
     170 ->177         0.23281
     170 ->178        -0.19099
     170 ->179         0.23206
     170 ->180         0.36236
     170 ->188         0.12975
     171 ->179        -0.11567
     171 ->180        -0.16982
     174 ->177         0.10916

 The electronic state is 1-A.
 Alpha  occ. eigenvalues --   -1.85052  -1.81279  -1.79128  -1.73736  -1.71290
 Alpha  occ. eigenvalues --   -1.69993  -1.66689  -1.61991  -1.61594  -1.55549
 Alpha  occ. eigenvalues --   -1.54891  -1.51299  -1.48365  -1.47523  -1.46840
 Alpha  occ. eigenvalues --   -1.44279  -1.42179  -1.39503  -1.39263  -1.38852
 Alpha  occ. eigenvalues --   -1.35244  -1.32929  -1.32248  -1.31682  -1.28208
 Alpha  occ. eigenvalues --   -1.26882  -1.25168  -1.21971  -1.19636  -1.17862
 Alpha  occ. eigenvalues --   -1.17240  -1.15913  -1.15388  -1.14456  -1.13085
 Alpha  occ. eigenvalues --   -1.12736  -1.12303  -1.11650  -1.05492  -1.03282
 Alpha  occ. eigenvalues --   -1.03212  -1.00929  -0.99868  -0.97760  -0.96872
 Alpha  occ. eigenvalues --   -0.96841  -0.96096  -0.94761  -0.93235  -0.92289
 Alpha  occ. eigenvalues --   -0.91635  -0.90351  -0.89352  -0.88482  -0.88030
 Alpha  occ. eigenvalues --   -0.86327  -0.83616  -0.83479  -0.81544  -0.80644
 Alpha  occ. eigenvalues --   -0.79783  -0.78513  -0.76886  -0.76553  -0.76202
 Alpha  occ. eigenvalues --   -0.75279  -0.74201  -0.74053  -0.73832  -0.73602
 Alpha  occ. eigenvalues --   -0.72908  -0.71917  -0.71448  -0.70323  -0.70267
 Alpha  occ. eigenvalues --   -0.70168  -0.69972  -0.68494  -0.68119  -0.67587
 Alpha  occ. eigenvalues --   -0.67495  -0.67005  -0.66404  -0.66166  -0.65930
 Alpha  occ. eigenvalues --   -0.65579  -0.64697  -0.64023  -0.63652  -0.63213
 Alpha  occ. eigenvalues --   -0.62582  -0.62341  -0.61853  -0.61243  -0.61006
 Alpha  occ. eigenvalues --   -0.60782  -0.60592  -0.60460  -0.60255  -0.60218
 Alpha  occ. eigenvalues --   -0.60090  -0.60065  -0.59749  -0.59397  -0.58748
 Alpha  occ. eigenvalues --   -0.58718  -0.57740  -0.57380  -0.57235  -0.57079
 Alpha  occ. eigenvalues --   -0.56167  -0.55876  -0.55769  -0.55438  -0.55060
 Alpha  occ. eigenvalues --   -0.55002  -0.54277  -0.53539  -0.53122  -0.52814
 Alpha  occ. eigenvalues --   -0.52655  -0.52523  -0.52309  -0.51759  -0.51624
 Alpha  occ. eigenvalues --   -0.51281  -0.51215  -0.50852  -0.50486  -0.50225
 Alpha  occ. eigenvalues --   -0.49998  -0.49453  -0.49179  -0.48993  -0.48726
 Alpha  occ. eigenvalues --   -0.48535  -0.48313  -0.48286  -0.47937  -0.47693
 Alpha  occ. eigenvalues --   -0.47633  -0.47406  -0.47001  -0.46666  -0.46427
 Alpha  occ. eigenvalues --   -0.46300  -0.46000  -0.45739  -0.45583  -0.45531
 Alpha  occ. eigenvalues --   -0.44976  -0.44876  -0.44353  -0.44238  -0.43328
 Alpha  occ. eigenvalues --   -0.43178  -0.43069  -0.42525  -0.42134  -0.41943
 Alpha  occ. eigenvalues --   -0.41408  -0.40631  -0.40112  -0.38637  -0.38477
 Alpha  occ. eigenvalues --   -0.36819  -0.36323  -0.35621  -0.34987  -0.34213
 Alpha  occ. eigenvalues --   -0.34053  -0.33015  -0.32204  -0.30628  -0.26458
 Alpha  occ. eigenvalues --   -0.21624
 Alpha virt. eigenvalues --   -0.08002  -0.01901  -0.00296   0.01285   0.01724
 Alpha virt. eigenvalues --    0.02273   0.03237   0.03958   0.04059   0.05381
 Alpha virt. eigenvalues --    0.06503   0.07023   0.07220   0.07553   0.08316

 Mulliken charges:
               1
     1  Mg   0.429141
     2  C   -0.026008
     3  C   -0.092312
     4  C   -0.094520
     5  C   -0.061064
     6  N   -0.257281
     7  C    0.088153
     8  C   -0.003128
     9  C   -0.004356
    10  C    0.163609
    11  C   -0.049360
    12  C   -0.009971
    13  C   -0.001391
    14  C    0.465897
    15  O   -0.521058
    16  O   -0.275223
    17  N   -0.330915
    18  C    0.121584
    19  C    0.023929
    20  C   -0.039114
    21  C    0.154415
    22  C   -0.039017
    23  C    0.336418
    24  O   -0.503639
    25  C   -0.034235
    26  N   -0.267137
    27  C    0.195876
    28  C   -0.008642
    29  C   -0.008988
    30  C    0.095613
    31  C   -0.046157
    32  C   -0.022583
    33  C   -0.055825
    34  N   -0.314755
    35  C    0.072522
    36  C    0.003517
    37  C   -0.076823
    38  C    0.101726
    39  C   -0.035782
    40  C    0.328096
    41  O   -0.519678
    42  C    0.058665
    43  C    0.500320
    44  O   -0.534593
    45  O   -0.273810
    46  C    0.072582
    47  C    0.100349
    48  C   -0.092508
    49  C   -0.001682
    50  C   -0.041936
    51  C   -0.017310
    52  C   -0.034416
    53  C   -0.038415
    54  C   -0.004060
    55  C   -0.055972
    56  C   -0.027744
    57  C   -0.048692
    58  C   -0.044932
    59  C   -0.014467
    60  C   -0.061028
    61  C   -0.030291
    62  C   -0.035579
    63  C   -0.026631
    64  C   -0.004006
    65  C   -0.047669
    66  C   -0.067311
    67  H    0.034559
    68  H    0.040082
    69  H    0.022751
    70  H    0.049383
    71  H    0.026270
    72  H    0.031227
    73  H    0.029695
    74  H    0.021131
    75  H    0.027716
    76  H    0.020211
    77  H    0.031268
    78  H    0.037706
    79  H    0.029988
    80  H    0.027849
    81  H    0.031333
    82  H    0.034947
    83  H    0.029539
    84  H    0.030985
    85  H    0.035647
    86  H    0.035845
    87  H    0.030649
    88  H    0.021411
    89  H    0.024524
    90  H    0.020609
    91  H    0.016763
    92  H    0.017946
    93  H    0.025010
    94  H    0.016588
    95  H    0.033088
    96  H    0.025748
    97  H    0.030374
    98  H    0.053097
    99  H    0.054344
   100  H    0.042655
   101  H    0.032455
   102  H    0.048181
   103  H    0.061989
   104  H    0.029324
   105  H    0.029543
   106  H    0.024587
   107  H    0.032100
   108  H    0.026871
   109  H    0.010767
   110  H    0.012317
   111  H    0.021194
   112  H    0.009282
   113  H    0.017879
   114  H    0.023013
   115  H    0.023783
   116  H    0.012347
   117  H    0.024691
   118  H    0.018611
   119  H    0.018873
   120  H    0.006730
   121  H    0.035391
   122  H    0.025867
   123  H    0.016611
   124  H    0.019247
   125  H    0.013014
   126  H    0.023128
   127  H    0.014960
   128  H    0.024114
   129  H    0.004123
   130  H    0.020511
   131  H    0.005548
   132  H    0.019539
   133  H    0.018058
   134  H    0.030742
   135  H    0.006386
   136  H   -0.001158
   137  H    0.020240
   138  H    0.019106
   139  H    0.015798
   140  H    0.032902
 Sum of Mulliken charges =  -0.00000

 Dipole moment (field-independent basis, Debye):
    X=              9.1527    Y=              5.9557    Z=             -4.9183  Tot=             11.9763
 N-N= 4.324665526518D+03 E-N= 0.000000000000D+00  KE=-9.323883277269D+03
 Leave Link  601 at Fri Apr 29 09:31:25 2022, MaxMem=  6710886400 cpu:               1.0 elap:               0.1
 (Enter /sw/apps/gaussian-16.0/g16/l9999.exe)
 1\1\GINC-BP1-COMPUTE176\SP\RZINDO CIS\STO-3G\C55H74Mg1N4O6\OF15641\29-
 Apr-2022\0\\#p ZINDO=(nstates=5)\\step_201_chromophore_6 ZINDO\\0,1\Mg
 ,0,17.245,-2.812,27.356\C,0,16.471,-0.809,30.22\C,0,19.385,-4.669,29.5
 94\C,0,18.398,-4.489,24.788\C,0,15.759,-0.514,25.353\N,0,17.977,-2.639
 ,29.665\C,0,17.441,-1.789,30.567\C,0,17.859,-2.179,32.033\C,0,18.862,-
 3.405,31.74\C,0,18.672,-3.592,30.242\C,0,20.357,-3.207,32.261\C,0,16.6
 53,-2.493,32.951\C,0,16.568,-1.707,34.244\C,0,17.809,-1.248,35.089\O,0

 Normal termination of Gaussian 16 at Fri Apr 29 09:31:25 2022.
