 Gaussian 16, Revision A.03,
 Gaussian 16:  ES64L-G16RevA.03 25-Dec-2016

 ------------------------------
 #p blyp/Def2SVP td=(nstates=5)
 ------------------------------

 ---------------------------------------------------
 step_1301_chromophore_22 TDDFT with blyp functional
 ---------------------------------------------------
 Symbolic Z-matrix:
 Charge =  0 Multiplicity = 1

                         Standard orientation:
 ---------------------------------------------------------------------
 Center     Atomic      Atomic             Coordinates (Angstroms)
 Number     Number       Type             X           Y           Z
 ---------------------------------------------------------------------
      1         12           0        6.446161    0.343537   -0.190635
      2          6           0        3.793164   -2.192783   -0.298686
      3          6           0        4.302271    2.518234   -1.784264
      4          6           0        8.655391    2.636377    0.313768
      5          6           0        8.679869   -2.150700    0.996321
      6          7           0        4.308701    0.137404   -0.880162
      7          6           0        3.401558   -0.900328   -0.804977
      8          6           0        2.073526   -0.479012   -1.488116
      9          6           0        2.408429    0.939025   -2.128897
     10          6           0        3.780173    1.237490   -1.537710
     11          6           0        2.509080    0.755411   -3.683553
     12          6           0        0.810730   -0.448206   -0.518117
     13          6           0       -0.489194   -1.121720   -1.160011
     14          6           0       -1.791334   -1.014854   -0.462915
     15          8           0       -2.046406   -0.963320    0.767261
     16          8           0       -2.764164   -1.036995   -1.410447
     17          7           0        6.527492    2.337986   -0.739454
     18          6           0        5.528742    3.069281   -1.327073
     19          6           0        5.953539    4.431907   -1.487130
     20          6           0        7.196167    4.561001   -0.720281
     21          6           0        7.528239    3.157566   -0.360651
     22          6           0        5.018048    5.543910   -2.068388
     23          6           0        7.984783    5.766918   -0.318470
     24          8           0        8.993045    5.785722    0.354276
     25          6           0        7.482254    7.173387   -0.751342
     26          7           0        8.300846    0.319133    0.763435
     27          6           0        9.085026    1.378734    0.705184
     28          6           0       10.452607    1.125674    1.437310
     29          6           0       10.502311   -0.466321    1.366782
     30          6           0        9.087371   -0.832338    0.958470
     31          6           0       11.713184    1.796235    0.896968
     32          6           0       10.891710   -1.040082    2.763144
     33          6           0       12.133352   -1.816657    2.725150
     34          7           0        6.307728   -1.679103    0.315434
     35          6           0        7.311552   -2.536194    0.806623
     36          6           0        6.713122   -3.913120    1.004716
     37          6           0        5.309611   -3.739989    0.610553
     38          6           0        5.123542   -2.448210    0.144086
     39          6           0        7.338500   -5.115504    1.364057
     40          6           0        4.089312   -4.475325    0.579510
     41          8           0        3.856351   -5.647992    0.893780
     42          6           0        3.022466   -3.481120   -0.126223
     43          6           0        1.871267   -3.410560    0.884942
     44          8           0        1.921822   -2.916843    1.995870
     45          8           0        0.827022   -4.120059    0.448910
     46          6           0       -0.397038   -4.246501    1.293955
     47          6           0       -4.124896   -1.134679   -0.835727
     48          6           0       -5.112145   -0.696781   -1.881573
     49          6           0       -6.383241   -0.303256   -1.723679
     50          6           0       -7.236691   -0.378288   -0.469862
     51          6           0       -7.203007    0.293061   -2.890781
     52          6           0       -8.148796   -0.818558   -3.459761
     53          6           0       -9.623890   -0.422447   -3.679157
     54          6           0      -10.638556   -1.289847   -2.932378
     55          6           0      -10.786663   -2.609739   -3.680859
     56          6           0      -12.028000   -0.594561   -2.687778
     57          6           0      -12.345613   -0.477400   -1.191708
     58          6           0      -13.856850   -0.299051   -0.916232
     59          6           0      -14.155400    0.820727    0.194483
     60          6           0      -15.668024    1.306040    0.253968
     61          6           0      -13.753235    0.334888    1.626338
     62          6           0      -13.223772    1.560858    2.452049
     63          6           0      -13.962292    1.908167    3.742655
     64          6           0      -13.024366    2.631043    4.809862
     65          6           0      -12.829068    1.799004    6.164000
     66          6           0      -13.542953    4.112172    5.139586
     67          1           0        3.536441    3.136313   -2.258887
     68          1           0        9.378865    3.374625    0.668191
     69          1           0        9.448280   -2.856716    1.316365
     70          1           0        1.837096   -1.168056   -2.299361
     71          1           0        1.685456    1.682085   -1.794558
     72          1           0        3.466861    1.156982   -4.014620
     73          1           0        1.703277    1.378541   -4.071109
     74          1           0        2.370285   -0.255085   -4.068342
     75          1           0        0.580612    0.570916   -0.208121
     76          1           0        1.007069   -1.014636    0.391194
     77          1           0       -0.264870   -2.178731   -1.020839
     78          1           0       -0.537152   -0.914564   -2.228743
     79          1           0        4.884977    6.082842   -1.130962
     80          1           0        4.041742    5.123391   -2.308522
     81          1           0        5.362282    6.233610   -2.838753
     82          1           0        7.406908    7.318794   -1.829180
     83          1           0        8.232926    7.906456   -0.458533
     84          1           0        6.538541    7.290358   -0.219104
     85          1           0       10.172532    1.448699    2.440091
     86          1           0       11.215601   -0.799077    0.611878
     87          1           0       11.549665    2.488607    0.071361
     88          1           0       12.373107    1.011703    0.524488
     89          1           0       12.155298    2.240272    1.789038
     90          1           0       10.120572   -1.663600    3.216043
     91          1           0       11.128056   -0.257321    3.483508
     92          1           0       12.018093   -2.846767    2.388851
     93          1           0       12.510742   -1.831214    3.747521
     94          1           0       12.867981   -1.461544    2.002415
     95          1           0        8.244258   -4.753177    1.850552
     96          1           0        7.558102   -5.653400    0.442133
     97          1           0        6.661460   -5.670767    2.014421
     98          1           0        2.686344   -3.834862   -1.100817
     99          1           0       -1.229798   -4.273669    0.591227
    100          1           0       -0.617222   -3.344354    1.863772
    101          1           0       -0.433579   -5.198867    1.822804
    102          1           0       -4.289806   -0.642229    0.122809
    103          1           0       -4.234164   -2.189364   -0.582072
    104          1           0       -4.643822   -0.568026   -2.857098
    105          1           0       -6.835350   -1.170071    0.162727
    106          1           0       -8.253186   -0.662008   -0.744330
    107          1           0       -7.232296    0.529924    0.133221
    108          1           0       -6.478711    0.667411   -3.614597
    109          1           0       -7.696361    1.220807   -2.600801
    110          1           0       -7.945061   -1.801775   -3.034737
    111          1           0       -7.765373   -0.895968   -4.476501
    112          1           0       -9.756782   -0.439135   -4.760252
    113          1           0       -9.754833    0.636120   -3.455129
    114          1           0      -10.340667   -1.481755   -1.901808
    115          1           0      -10.084719   -2.638366   -4.514616
    116          1           0      -11.792839   -2.687705   -4.092677
    117          1           0      -10.443995   -3.411675   -3.026103
    118          1           0      -12.815141   -1.112595   -3.236181
    119          1           0      -12.026395    0.385301   -3.164913
    120          1           0      -11.748667    0.206226   -0.588003
    121          1           0      -12.196506   -1.464361   -0.754241
    122          1           0      -14.247617   -1.204129   -0.451152
    123          1           0      -14.424393   -0.153780   -1.834696
    124          1           0      -13.560550    1.655526   -0.175237
    125          1           0      -16.117831    1.233410    1.244570
    126          1           0      -16.200470    0.595590   -0.376985
    127          1           0      -15.581183    2.344630   -0.066110
    128          1           0      -12.958770   -0.410383    1.587460
    129          1           0      -14.580827   -0.019129    2.241598
    130          1           0      -13.363494    2.460959    1.853877
    131          1           0      -12.162252    1.381572    2.622117
    132          1           0      -14.288869    0.931117    4.097950
    133          1           0      -14.852990    2.492007    3.509842
    134          1           0      -12.032281    2.828243    4.402180
    135          1           0      -11.775460    1.731903    6.435566
    136          1           0      -13.283590    0.814215    6.274619
    137          1           0      -13.128191    2.245730    7.112660
    138          1           0      -13.921375    4.164296    6.160870
    139          1           0      -14.428626    4.390225    4.568289
    140          1           0      -12.741261    4.817104    4.919037
 ---------------------------------------------------------------------

 SCF Done:  E(RB-LYP) =  -3007.36231977     A.U. after   20 cycles

 Excitation energies and oscillator strengths:

 Excited State   1:      Singlet-A      1.7296 eV  716.86 nm  f=0.0839  <S**2>=0.000
     244 -> 247        0.59438
     246 -> 247       -0.37516
 This state for optimization and/or second-order correction.
 Total Energy, E(TD-HF/TD-DFT) =  -3007.29875985
 Copying the excited state density for this state as the 1-particle RhoCI density.

 Excited State   2:      Singlet-A      1.7664 eV  701.89 nm  f=0.2360  <S**2>=0.000
     244 -> 247        0.38013
     245 -> 248        0.16700
     246 -> 247        0.58522
     246 <- 247       -0.13904

 Excited State   3:      Singlet-A      1.8970 eV  653.58 nm  f=0.0054  <S**2>=0.000
     243 -> 247        0.68834
     245 -> 247       -0.13844

 Excited State   4:      Singlet-A      1.9750 eV  627.76 nm  f=0.0803  <S**2>=0.000
     243 -> 247        0.14740
     245 -> 247        0.63783
     246 -> 248       -0.24291

 Excited State   5:      Singlet-A      2.2845 eV  542.71 nm  f=0.0000  <S**2>=0.000
     241 -> 247        0.70708

 The electronic state is 1-A.
 Alpha  occ. eigenvalues --  -46.26847 -18.82830 -18.82107 -18.76844 -18.75828
 Alpha  occ. eigenvalues --  -18.75638 -18.75351 -14.03749 -14.02961 -14.01392
 Alpha  occ. eigenvalues --  -14.01231 -10.04487 -10.03532  -9.99653  -9.99604
 Alpha  occ. eigenvalues --   -9.97918  -9.97615  -9.97516  -9.96652  -9.96511
 Alpha  occ. eigenvalues --   -9.96390  -9.96310  -9.96161  -9.95935  -9.94968
 Alpha  occ. eigenvalues --   -9.94920  -9.94647  -9.94488  -9.94357  -9.94280
 Alpha  occ. eigenvalues --   -9.93938  -9.93938  -9.93936  -9.93742  -9.93709
 Alpha  occ. eigenvalues --   -9.93489  -9.93421  -9.93302  -9.93240  -9.93128
 Alpha  occ. eigenvalues --   -9.92966  -9.92835  -9.92297  -9.92292  -9.92154
 Alpha  occ. eigenvalues --   -9.92115  -9.92081  -9.91996  -9.91835  -9.91786
 Alpha  occ. eigenvalues --   -9.91746  -9.91632  -9.91489  -9.91391  -9.91360
 Alpha  occ. eigenvalues --   -9.91327  -9.91263  -9.91162  -9.91148  -9.90993
 Alpha  occ. eigenvalues --   -9.90954  -9.90916  -9.90864  -9.90847  -9.90827
 Alpha  occ. eigenvalues --   -9.90635  -2.91479  -1.71918  -1.71352  -1.71193
 Alpha  occ. eigenvalues --   -0.98202  -0.97936  -0.91837  -0.90524  -0.89085
 Alpha  occ. eigenvalues --   -0.88659  -0.86506  -0.85746  -0.84989  -0.83194
 Alpha  occ. eigenvalues --   -0.75176  -0.73641  -0.73193  -0.72704  -0.72166
 Alpha  occ. eigenvalues --   -0.71771  -0.71607  -0.70970  -0.70695  -0.69997
 Alpha  occ. eigenvalues --   -0.69827  -0.69319  -0.68105  -0.67959  -0.67198
 Alpha  occ. eigenvalues --   -0.66476  -0.66005  -0.65114  -0.64801  -0.64067
 Alpha  occ. eigenvalues --   -0.63893  -0.62551  -0.62347  -0.61988  -0.60891
 Alpha  occ. eigenvalues --   -0.60443  -0.59935  -0.59741  -0.59472  -0.58755
 Alpha  occ. eigenvalues --   -0.58207  -0.57015  -0.56649  -0.55536  -0.54107
 Alpha  occ. eigenvalues --   -0.53770  -0.53531  -0.52988  -0.51913  -0.51771
 Alpha  occ. eigenvalues --   -0.51502  -0.51190  -0.50879  -0.50290  -0.50070
 Alpha  occ. eigenvalues --   -0.49849  -0.49695  -0.48819  -0.48376  -0.46535
 Alpha  occ. eigenvalues --   -0.46450  -0.45988  -0.45680  -0.44878  -0.44328
 Alpha  occ. eigenvalues --   -0.43710  -0.43267  -0.42901  -0.42682  -0.42348
 Alpha  occ. eigenvalues --   -0.41670  -0.41444  -0.41194  -0.41080  -0.40824
 Alpha  occ. eigenvalues --   -0.40658  -0.40513  -0.40304  -0.39997  -0.39812
 Alpha  occ. eigenvalues --   -0.39757  -0.39486  -0.39408  -0.39351  -0.39256
 Alpha  occ. eigenvalues --   -0.39048  -0.39004  -0.38784  -0.38671  -0.37976
 Alpha  occ. eigenvalues --   -0.37869  -0.37746  -0.37651  -0.37476  -0.37366
 Alpha  occ. eigenvalues --   -0.37091  -0.36965  -0.36920  -0.36641  -0.36204
 Alpha  occ. eigenvalues --   -0.36135  -0.36063  -0.35916  -0.35883  -0.35815
 Alpha  occ. eigenvalues --   -0.35618  -0.35516  -0.35327  -0.35065  -0.34841
 Alpha  occ. eigenvalues --   -0.34740  -0.34434  -0.34222  -0.34012  -0.33874
 Alpha  occ. eigenvalues --   -0.33815  -0.33667  -0.33306  -0.33136  -0.33060
 Alpha  occ. eigenvalues --   -0.32907  -0.32759  -0.32718  -0.32649  -0.32178
 Alpha  occ. eigenvalues --   -0.32037  -0.31918  -0.31862  -0.31522  -0.31474
 Alpha  occ. eigenvalues --   -0.31347  -0.31270  -0.31190  -0.30962  -0.30820
 Alpha  occ. eigenvalues --   -0.30723  -0.30508  -0.30118  -0.29915  -0.29824
 Alpha  occ. eigenvalues --   -0.29438  -0.29269  -0.29085  -0.28999  -0.28890
 Alpha  occ. eigenvalues --   -0.28836  -0.28682  -0.28323  -0.27723  -0.27517
 Alpha  occ. eigenvalues --   -0.27206  -0.26941  -0.26711  -0.26509  -0.26458
 Alpha  occ. eigenvalues --   -0.26300  -0.26006  -0.25838  -0.25537  -0.25449
 Alpha  occ. eigenvalues --   -0.25187  -0.24791  -0.24338  -0.24192  -0.23487
 Alpha  occ. eigenvalues --   -0.23231  -0.22061  -0.21925  -0.21143  -0.20663
 Alpha  occ. eigenvalues --   -0.20365  -0.19751  -0.18850  -0.18285  -0.17451
 Alpha  occ. eigenvalues --   -0.15969
 Alpha virt. eigenvalues --   -0.11970  -0.06944  -0.06464  -0.04815  -0.03273
 Alpha virt. eigenvalues --   -0.01958  -0.01789  -0.01541  -0.01025  -0.00312
 Alpha virt. eigenvalues --    0.00893   0.01467   0.02240   0.02589   0.02876

 Mulliken charges:
               1
     1  Mg   0.685623
     2  C   -0.025939
     3  C   -0.049526
     4  C   -0.037436
     5  C   -0.086238
     6  N   -0.204585
     7  C   -0.043800
     8  C    0.021117
     9  C   -0.029264
    10  C    0.004022
    11  C    0.120181
    12  C    0.094063
    13  C    0.080567
    14  C    0.095497
    15  O   -0.228456
    16  O   -0.262792
    17  N   -0.286280
    18  C    0.159346
    19  C   -0.139753
    20  C    0.051188
    21  C    0.103540
    22  C    0.150023
    23  C   -0.096257
    24  O   -0.146804
    25  C    0.100702
    26  N   -0.247480
    27  C   -0.006636
    28  C   -0.005162
    29  C    0.024144
    30  C    0.052957
    31  C    0.159677
    32  C    0.108865
    33  C    0.052904
    34  N   -0.306912
    35  C    0.146656
    36  C   -0.175701
    37  C    0.100196
    38  C    0.119855
    39  C    0.179577
    40  C   -0.066163
    41  O   -0.150452
    42  C    0.071367
    43  C    0.099635
    44  O   -0.182886
    45  O   -0.259191
    46  C    0.205623
    47  C    0.304834
    48  C   -0.080380
    49  C   -0.168515
    50  C    0.147490
    51  C    0.123755
    52  C    0.076061
    53  C    0.116994
    54  C   -0.095214
    55  C    0.135271
    56  C    0.109746
    57  C    0.064474
    58  C    0.090988
    59  C   -0.134443
    60  C    0.110599
    61  C    0.119157
    62  C    0.019549
    63  C    0.105768
    64  C   -0.055507
    65  C    0.073411
    66  C    0.073951
    67  H   -0.058287
    68  H   -0.045730
    69  H   -0.049049
    70  H   -0.025508
    71  H   -0.013712
    72  H   -0.001028
    73  H   -0.007768
    74  H    0.003550
    75  H   -0.014379
    76  H    0.011324
    77  H    0.011895
    78  H   -0.001285
    79  H    0.007516
    80  H   -0.015939
    81  H    0.017725
    82  H    0.001835
    83  H   -0.012395
    84  H    0.008909
    85  H   -0.000668
    86  H   -0.020525
    87  H    0.008803
    88  H   -0.020554
    89  H   -0.003858
    90  H   -0.012924
    91  H   -0.024140
    92  H   -0.021744
    93  H   -0.011285
    94  H   -0.015486
    95  H   -0.013607
    96  H    0.018806
    97  H    0.023583
    98  H   -0.006930
    99  H    0.001797
   100  H    0.040266
   101  H    0.033145
   102  H    0.014603
   103  H   -0.010975
   104  H   -0.036522
   105  H   -0.019521
   106  H   -0.006165
   107  H    0.007814
   108  H   -0.040290
   109  H   -0.026165
   110  H   -0.012782
   111  H   -0.037715
   112  H   -0.037604
   113  H   -0.045588
   114  H   -0.024183
   115  H   -0.026444
   116  H   -0.012246
   117  H   -0.014528
   118  H   -0.039554
   119  H   -0.041713
   120  H   -0.016256
   121  H   -0.027748
   122  H   -0.037469
   123  H   -0.033010
   124  H   -0.025315
   125  H   -0.011630
   126  H   -0.013150
   127  H   -0.003924
   128  H   -0.035349
   129  H   -0.029377
   130  H   -0.029852
   131  H   -0.025288
   132  H   -0.034606
   133  H   -0.022360
   134  H   -0.019118
   135  H   -0.023590
   136  H   -0.010888
   137  H   -0.029935
   138  H   -0.012900
   139  H   -0.023184
   140  H   -0.005430
 Sum of Mulliken charges =  -0.00000

 Dipole moment (field-independent basis, Debye):
    X=             -1.4868    Y=              1.2903    Z=             -4.3577  Tot=              4.7817
 Quadrupole moment (field-independent basis, Debye-Ang):
   XX=           -371.5773   YY=           -425.8395   ZZ=           -402.8773
   XY=            -13.2577   XZ=             -0.1984   YZ=             -3.2928

 Normal termination of Gaussian 16 at Wed Apr 27 21:25:35 2022.
