 Gaussian 16, Revision A.03,
 Gaussian 16:  ES64L-G16RevA.03 25-Dec-2016

 -----------------------------------
 #p cam-b3lyp/Def2SVP td=(nstates=5)
 -----------------------------------

 --------------------------------------------------------
 step_1301_chromophore_22 TDDFT with cam-b3lyp functional
 --------------------------------------------------------
 Symbolic Z-matrix:
 Charge =  0 Multiplicity = 1

                         Standard orientation:
 ---------------------------------------------------------------------
 Center     Atomic      Atomic             Coordinates (Angstroms)
 Number     Number       Type             X           Y           Z
 ---------------------------------------------------------------------
      1         12           0        6.446161    0.343537   -0.190635
      2          6           0        3.793164   -2.192783   -0.298686
      3          6           0        4.302271    2.518234   -1.784264
      4          6           0        8.655391    2.636377    0.313768
      5          6           0        8.679869   -2.150700    0.996321
      6          7           0        4.308701    0.137404   -0.880162
      7          6           0        3.401558   -0.900328   -0.804977
      8          6           0        2.073526   -0.479012   -1.488116
      9          6           0        2.408429    0.939025   -2.128897
     10          6           0        3.780173    1.237490   -1.537710
     11          6           0        2.509080    0.755411   -3.683553
     12          6           0        0.810730   -0.448206   -0.518117
     13          6           0       -0.489194   -1.121720   -1.160011
     14          6           0       -1.791334   -1.014854   -0.462915
     15          8           0       -2.046406   -0.963320    0.767261
     16          8           0       -2.764164   -1.036995   -1.410447
     17          7           0        6.527492    2.337986   -0.739454
     18          6           0        5.528742    3.069281   -1.327073
     19          6           0        5.953539    4.431907   -1.487130
     20          6           0        7.196167    4.561001   -0.720281
     21          6           0        7.528239    3.157566   -0.360651
     22          6           0        5.018048    5.543910   -2.068388
     23          6           0        7.984783    5.766918   -0.318470
     24          8           0        8.993045    5.785722    0.354276
     25          6           0        7.482254    7.173387   -0.751342
     26          7           0        8.300846    0.319133    0.763435
     27          6           0        9.085026    1.378734    0.705184
     28          6           0       10.452607    1.125674    1.437310
     29          6           0       10.502311   -0.466321    1.366782
     30          6           0        9.087371   -0.832338    0.958470
     31          6           0       11.713184    1.796235    0.896968
     32          6           0       10.891710   -1.040082    2.763144
     33          6           0       12.133352   -1.816657    2.725150
     34          7           0        6.307728   -1.679103    0.315434
     35          6           0        7.311552   -2.536194    0.806623
     36          6           0        6.713122   -3.913120    1.004716
     37          6           0        5.309611   -3.739989    0.610553
     38          6           0        5.123542   -2.448210    0.144086
     39          6           0        7.338500   -5.115504    1.364057
     40          6           0        4.089312   -4.475325    0.579510
     41          8           0        3.856351   -5.647992    0.893780
     42          6           0        3.022466   -3.481120   -0.126223
     43          6           0        1.871267   -3.410560    0.884942
     44          8           0        1.921822   -2.916843    1.995870
     45          8           0        0.827022   -4.120059    0.448910
     46          6           0       -0.397038   -4.246501    1.293955
     47          6           0       -4.124896   -1.134679   -0.835727
     48          6           0       -5.112145   -0.696781   -1.881573
     49          6           0       -6.383241   -0.303256   -1.723679
     50          6           0       -7.236691   -0.378288   -0.469862
     51          6           0       -7.203007    0.293061   -2.890781
     52          6           0       -8.148796   -0.818558   -3.459761
     53          6           0       -9.623890   -0.422447   -3.679157
     54          6           0      -10.638556   -1.289847   -2.932378
     55          6           0      -10.786663   -2.609739   -3.680859
     56          6           0      -12.028000   -0.594561   -2.687778
     57          6           0      -12.345613   -0.477400   -1.191708
     58          6           0      -13.856850   -0.299051   -0.916232
     59          6           0      -14.155400    0.820727    0.194483
     60          6           0      -15.668024    1.306040    0.253968
     61          6           0      -13.753235    0.334888    1.626338
     62          6           0      -13.223772    1.560858    2.452049
     63          6           0      -13.962292    1.908167    3.742655
     64          6           0      -13.024366    2.631043    4.809862
     65          6           0      -12.829068    1.799004    6.164000
     66          6           0      -13.542953    4.112172    5.139586
     67          1           0        3.536441    3.136313   -2.258887
     68          1           0        9.378865    3.374625    0.668191
     69          1           0        9.448280   -2.856716    1.316365
     70          1           0        1.837096   -1.168056   -2.299361
     71          1           0        1.685456    1.682085   -1.794558
     72          1           0        3.466861    1.156982   -4.014620
     73          1           0        1.703277    1.378541   -4.071109
     74          1           0        2.370285   -0.255085   -4.068342
     75          1           0        0.580612    0.570916   -0.208121
     76          1           0        1.007069   -1.014636    0.391194
     77          1           0       -0.264870   -2.178731   -1.020839
     78          1           0       -0.537152   -0.914564   -2.228743
     79          1           0        4.884977    6.082842   -1.130962
     80          1           0        4.041742    5.123391   -2.308522
     81          1           0        5.362282    6.233610   -2.838753
     82          1           0        7.406908    7.318794   -1.829180
     83          1           0        8.232926    7.906456   -0.458533
     84          1           0        6.538541    7.290358   -0.219104
     85          1           0       10.172532    1.448699    2.440091
     86          1           0       11.215601   -0.799077    0.611878
     87          1           0       11.549665    2.488607    0.071361
     88          1           0       12.373107    1.011703    0.524488
     89          1           0       12.155298    2.240272    1.789038
     90          1           0       10.120572   -1.663600    3.216043
     91          1           0       11.128056   -0.257321    3.483508
     92          1           0       12.018093   -2.846767    2.388851
     93          1           0       12.510742   -1.831214    3.747521
     94          1           0       12.867981   -1.461544    2.002415
     95          1           0        8.244258   -4.753177    1.850552
     96          1           0        7.558102   -5.653400    0.442133
     97          1           0        6.661460   -5.670767    2.014421
     98          1           0        2.686344   -3.834862   -1.100817
     99          1           0       -1.229798   -4.273669    0.591227
    100          1           0       -0.617222   -3.344354    1.863772
    101          1           0       -0.433579   -5.198867    1.822804
    102          1           0       -4.289806   -0.642229    0.122809
    103          1           0       -4.234164   -2.189364   -0.582072
    104          1           0       -4.643822   -0.568026   -2.857098
    105          1           0       -6.835350   -1.170071    0.162727
    106          1           0       -8.253186   -0.662008   -0.744330
    107          1           0       -7.232296    0.529924    0.133221
    108          1           0       -6.478711    0.667411   -3.614597
    109          1           0       -7.696361    1.220807   -2.600801
    110          1           0       -7.945061   -1.801775   -3.034737
    111          1           0       -7.765373   -0.895968   -4.476501
    112          1           0       -9.756782   -0.439135   -4.760252
    113          1           0       -9.754833    0.636120   -3.455129
    114          1           0      -10.340667   -1.481755   -1.901808
    115          1           0      -10.084719   -2.638366   -4.514616
    116          1           0      -11.792839   -2.687705   -4.092677
    117          1           0      -10.443995   -3.411675   -3.026103
    118          1           0      -12.815141   -1.112595   -3.236181
    119          1           0      -12.026395    0.385301   -3.164913
    120          1           0      -11.748667    0.206226   -0.588003
    121          1           0      -12.196506   -1.464361   -0.754241
    122          1           0      -14.247617   -1.204129   -0.451152
    123          1           0      -14.424393   -0.153780   -1.834696
    124          1           0      -13.560550    1.655526   -0.175237
    125          1           0      -16.117831    1.233410    1.244570
    126          1           0      -16.200470    0.595590   -0.376985
    127          1           0      -15.581183    2.344630   -0.066110
    128          1           0      -12.958770   -0.410383    1.587460
    129          1           0      -14.580827   -0.019129    2.241598
    130          1           0      -13.363494    2.460959    1.853877
    131          1           0      -12.162252    1.381572    2.622117
    132          1           0      -14.288869    0.931117    4.097950
    133          1           0      -14.852990    2.492007    3.509842
    134          1           0      -12.032281    2.828243    4.402180
    135          1           0      -11.775460    1.731903    6.435566
    136          1           0      -13.283590    0.814215    6.274619
    137          1           0      -13.128191    2.245730    7.112660
    138          1           0      -13.921375    4.164296    6.160870
    139          1           0      -14.428626    4.390225    4.568289
    140          1           0      -12.741261    4.817104    4.919037
 ---------------------------------------------------------------------

 SCF Done:  E(RCAM-B3LYP) =  -3007.14096618     A.U. after   17 cycles

 Excitation energies and oscillator strengths:

 Excited State   1:      Singlet-A      1.6234 eV  763.73 nm  f=0.3986  <S**2>=0.000
     245 -> 248        0.17697
     246 -> 247        0.68799
     245 <- 248        0.11137
 This state for optimization and/or second-order correction.
 Total Energy, E(TD-HF/TD-DFT) =  -3007.08130688
 Copying the excited state density for this state as the 1-particle RhoCI density.

 Excited State   2:      Singlet-A      2.1761 eV  569.74 nm  f=0.1326  <S**2>=0.000
     245 -> 247        0.64648
     246 -> 248       -0.27438

 Excited State   3:      Singlet-A      3.0599 eV  405.19 nm  f=0.0133  <S**2>=0.000
     243 -> 247       -0.10555
     244 -> 247        0.67892

 Excited State   4:      Singlet-A      3.3588 eV  369.13 nm  f=0.0131  <S**2>=0.000
     243 -> 247        0.64511
     246 -> 248        0.20108

 Excited State   5:      Singlet-A      3.4660 eV  357.71 nm  f=0.0183  <S**2>=0.000
     240 -> 247        0.54784
     240 -> 249        0.30561
     240 -> 250       -0.16295
     241 -> 247       -0.15469
     246 -> 248       -0.12241

 The electronic state is 1-A.
 Alpha  occ. eigenvalues --  -46.88321 -19.25796 -19.25093 -19.19848 -19.18925
 Alpha  occ. eigenvalues --  -19.18732 -19.18627 -14.42780 -14.41692 -14.39868
 Alpha  occ. eigenvalues --  -14.39619 -10.39918 -10.38953 -10.35027 -10.34884
 Alpha  occ. eigenvalues --  -10.32088 -10.32006 -10.31696 -10.31184 -10.30858
 Alpha  occ. eigenvalues --  -10.30803 -10.30760 -10.30644 -10.30339 -10.29873
 Alpha  occ. eigenvalues --  -10.29223 -10.28910 -10.28834 -10.28813 -10.28343
 Alpha  occ. eigenvalues --  -10.28329 -10.27975 -10.27881 -10.27799 -10.27780
 Alpha  occ. eigenvalues --  -10.27721 -10.27611 -10.27545 -10.27197 -10.27137
 Alpha  occ. eigenvalues --  -10.26967 -10.26597 -10.25976 -10.25922 -10.25915
 Alpha  occ. eigenvalues --  -10.25899 -10.25772 -10.25761 -10.25533 -10.25525
 Alpha  occ. eigenvalues --  -10.25514 -10.25487 -10.25458 -10.25054 -10.25030
 Alpha  occ. eigenvalues --  -10.25029 -10.24950 -10.24874 -10.24844 -10.24832
 Alpha  occ. eigenvalues --  -10.24722 -10.24584 -10.24548 -10.24459 -10.24405
 Alpha  occ. eigenvalues --  -10.24295  -3.16861  -1.91778  -1.91312  -1.91171
 Alpha  occ. eigenvalues --   -1.16695  -1.16525  -1.10341  -1.08819  -1.07062
 Alpha  occ. eigenvalues --   -1.06541  -1.04208  -1.03362  -1.02662  -1.00582
 Alpha  occ. eigenvalues --   -0.92275  -0.90530  -0.89874  -0.89496  -0.88928
 Alpha  occ. eigenvalues --   -0.88485  -0.88316  -0.87541  -0.87118  -0.86620
 Alpha  occ. eigenvalues --   -0.86391  -0.85778  -0.84305  -0.84167  -0.83356
 Alpha  occ. eigenvalues --   -0.82506  -0.82024  -0.80988  -0.80736  -0.79998
 Alpha  occ. eigenvalues --   -0.79812  -0.78335  -0.78058  -0.77536  -0.76344
 Alpha  occ. eigenvalues --   -0.75821  -0.75216  -0.75065  -0.74769  -0.73995
 Alpha  occ. eigenvalues --   -0.73282  -0.71929  -0.71532  -0.70379  -0.68718
 Alpha  occ. eigenvalues --   -0.68341  -0.68090  -0.67463  -0.66233  -0.65834
 Alpha  occ. eigenvalues --   -0.65673  -0.65471  -0.64869  -0.64254  -0.63987
 Alpha  occ. eigenvalues --   -0.63882  -0.63703  -0.62742  -0.62017  -0.60140
 Alpha  occ. eigenvalues --   -0.60086  -0.59469  -0.59197  -0.58281  -0.57641
 Alpha  occ. eigenvalues --   -0.57238  -0.56665  -0.56177  -0.55853  -0.55337
 Alpha  occ. eigenvalues --   -0.54831  -0.54626  -0.54306  -0.53901  -0.53760
 Alpha  occ. eigenvalues --   -0.53409  -0.53152  -0.53087  -0.52858  -0.52594
 Alpha  occ. eigenvalues --   -0.52579  -0.52290  -0.52031  -0.51985  -0.51818
 Alpha  occ. eigenvalues --   -0.51542  -0.51426  -0.51333  -0.51122  -0.50365
 Alpha  occ. eigenvalues --   -0.50224  -0.50120  -0.49969  -0.49792  -0.49685
 Alpha  occ. eigenvalues --   -0.49374  -0.49224  -0.49082  -0.48940  -0.48785
 Alpha  occ. eigenvalues --   -0.48529  -0.48314  -0.48239  -0.48101  -0.47862
 Alpha  occ. eigenvalues --   -0.47764  -0.47602  -0.47402  -0.47126  -0.46880
 Alpha  occ. eigenvalues --   -0.46700  -0.46467  -0.46099  -0.45966  -0.45860
 Alpha  occ. eigenvalues --   -0.45495  -0.45291  -0.45267  -0.44844  -0.44703
 Alpha  occ. eigenvalues --   -0.44669  -0.44591  -0.44405  -0.44160  -0.43804
 Alpha  occ. eigenvalues --   -0.43662  -0.43588  -0.43419  -0.43214  -0.43089
 Alpha  occ. eigenvalues --   -0.42951  -0.42645  -0.42598  -0.42536  -0.42254
 Alpha  occ. eigenvalues --   -0.42173  -0.42096  -0.41474  -0.41239  -0.41099
 Alpha  occ. eigenvalues --   -0.40997  -0.40612  -0.40339  -0.40233  -0.40073
 Alpha  occ. eigenvalues --   -0.39915  -0.39833  -0.39305  -0.38751  -0.38374
 Alpha  occ. eigenvalues --   -0.38234  -0.37764  -0.37630  -0.37476  -0.37280
 Alpha  occ. eigenvalues --   -0.37072  -0.36986  -0.36692  -0.36510  -0.36475
 Alpha  occ. eigenvalues --   -0.36153  -0.35814  -0.34792  -0.34406  -0.34232
 Alpha  occ. eigenvalues --   -0.33847  -0.33762  -0.33338  -0.31057  -0.30774
 Alpha  occ. eigenvalues --   -0.30600  -0.30047  -0.29982  -0.28636  -0.24177
 Alpha  occ. eigenvalues --   -0.21253
 Alpha virt. eigenvalues --   -0.09256  -0.01790  -0.00007   0.02090   0.03757
 Alpha virt. eigenvalues --    0.04362   0.05110   0.05696   0.06242   0.06266
 Alpha virt. eigenvalues --    0.07966   0.08268   0.08393   0.08905   0.09089

 Mulliken charges:
               1
     1  Mg   0.819067
     2  C   -0.047679
     3  C   -0.060385
     4  C   -0.065914
     5  C   -0.094195
     6  N   -0.271796
     7  C   -0.001788
     8  C   -0.024107
     9  C   -0.084714
    10  C    0.020691
    11  C    0.062516
    12  C    0.046811
    13  C    0.008645
    14  C    0.181568
    15  O   -0.271816
    16  O   -0.327110
    17  N   -0.376182
    18  C    0.162500
    19  C   -0.136339
    20  C   -0.023989
    21  C    0.134199
    22  C    0.096326
    23  C   -0.017387
    24  O   -0.187620
    25  C    0.025450
    26  N   -0.321027
    27  C    0.023929
    28  C   -0.056447
    29  C   -0.038225
    30  C    0.072930
    31  C    0.097962
    32  C    0.049259
    33  C   -0.004557
    34  N   -0.391798
    35  C    0.153270
    36  C   -0.164673
    37  C    0.016779
    38  C    0.151840
    39  C    0.120316
    40  C    0.030283
    41  O   -0.189686
    42  C    0.002497
    43  C    0.181164
    44  O   -0.219252
    45  O   -0.322450
    46  C    0.170174
    47  C    0.272574
    48  C   -0.103189
    49  C   -0.194880
    50  C    0.091374
    51  C    0.070451
    52  C    0.012083
    53  C    0.062723
    54  C   -0.151494
    55  C    0.074981
    56  C    0.062125
    57  C    0.003077
    58  C    0.041985
    59  C   -0.183472
    60  C    0.054592
    61  C    0.059153
    62  C   -0.028091
    63  C    0.055241
    64  C   -0.119326
    65  C    0.015438
    66  C    0.020142
    67  H   -0.023869
    68  H   -0.007396
    69  H   -0.015234
    70  H    0.007938
    71  H    0.020007
    72  H    0.025086
    73  H    0.016340
    74  H    0.027903
    75  H    0.015642
    76  H    0.038642
    77  H    0.039300
    78  H    0.032415
    79  H    0.031632
    80  H    0.012013
    81  H    0.043737
    82  H    0.028748
    83  H    0.023111
    84  H    0.034039
    85  H    0.033683
    86  H    0.014099
    87  H    0.034606
    88  H    0.003368
    89  H    0.020948
    90  H    0.017637
    91  H    0.004528
    92  H    0.000908
    93  H    0.013760
    94  H    0.006138
    95  H    0.008551
    96  H    0.045190
    97  H    0.050486
    98  H    0.036368
    99  H    0.021972
   100  H    0.065345
   101  H    0.056114
   102  H    0.045012
   103  H    0.017125
   104  H   -0.000508
   105  H    0.004354
   106  H    0.014273
   107  H    0.033532
   108  H   -0.009273
   109  H    0.003265
   110  H    0.015919
   111  H   -0.006095
   112  H   -0.007167
   113  H   -0.016260
   114  H    0.005128
   115  H   -0.001745
   116  H    0.011803
   117  H    0.009633
   118  H   -0.010467
   119  H   -0.012677
   120  H    0.009499
   121  H    0.000336
   122  H   -0.009074
   123  H   -0.004384
   124  H    0.004858
   125  H    0.010416
   126  H    0.010697
   127  H    0.018774
   128  H   -0.005903
   129  H   -0.001267
   130  H   -0.003163
   131  H    0.002206
   132  H   -0.007691
   133  H    0.003376
   134  H    0.012246
   135  H    0.000599
   136  H    0.012574
   137  H   -0.005452
   138  H    0.009994
   139  H    0.000122
   140  H    0.017108
 Sum of Mulliken charges =  -0.00000

 Dipole moment (field-independent basis, Debye):
    X=             -1.6474    Y=              2.0031    Z=             -4.7175  Tot=              5.3834
 Quadrupole moment (field-independent basis, Debye-Ang):
   XX=           -370.8481   YY=           -421.8974   ZZ=           -402.2832
   XY=             -9.5253   XZ=             -1.6475   YZ=             -4.5193

 Normal termination of Gaussian 16 at Wed Apr 27 20:30:08 2022.
