 Gaussian 16, Revision A.03,
 Gaussian 16:  ES64L-G16RevA.03 25-Dec-2016

 ---------------------------------
 #p PBE1PBE/Def2SVP td=(nstates=5)
 ---------------------------------

 ------------------------------------------------------
 step_1301_chromophore_22 TDDFT with PBE1PBE functional
 ------------------------------------------------------
 Symbolic Z-matrix:
 Charge =  0 Multiplicity = 1

                         Standard orientation:
 ---------------------------------------------------------------------
 Center     Atomic      Atomic             Coordinates (Angstroms)
 Number     Number       Type             X           Y           Z
 ---------------------------------------------------------------------
      1         12           0        6.446161    0.343537   -0.190635
      2          6           0        3.793164   -2.192783   -0.298686
      3          6           0        4.302271    2.518234   -1.784264
      4          6           0        8.655391    2.636377    0.313768
      5          6           0        8.679869   -2.150700    0.996321
      6          7           0        4.308701    0.137404   -0.880162
      7          6           0        3.401558   -0.900328   -0.804977
      8          6           0        2.073526   -0.479012   -1.488116
      9          6           0        2.408429    0.939025   -2.128897
     10          6           0        3.780173    1.237490   -1.537710
     11          6           0        2.509080    0.755411   -3.683553
     12          6           0        0.810730   -0.448206   -0.518117
     13          6           0       -0.489194   -1.121720   -1.160011
     14          6           0       -1.791334   -1.014854   -0.462915
     15          8           0       -2.046406   -0.963320    0.767261
     16          8           0       -2.764164   -1.036995   -1.410447
     17          7           0        6.527492    2.337986   -0.739454
     18          6           0        5.528742    3.069281   -1.327073
     19          6           0        5.953539    4.431907   -1.487130
     20          6           0        7.196167    4.561001   -0.720281
     21          6           0        7.528239    3.157566   -0.360651
     22          6           0        5.018048    5.543910   -2.068388
     23          6           0        7.984783    5.766918   -0.318470
     24          8           0        8.993045    5.785722    0.354276
     25          6           0        7.482254    7.173387   -0.751342
     26          7           0        8.300846    0.319133    0.763435
     27          6           0        9.085026    1.378734    0.705184
     28          6           0       10.452607    1.125674    1.437310
     29          6           0       10.502311   -0.466321    1.366782
     30          6           0        9.087371   -0.832338    0.958470
     31          6           0       11.713184    1.796235    0.896968
     32          6           0       10.891710   -1.040082    2.763144
     33          6           0       12.133352   -1.816657    2.725150
     34          7           0        6.307728   -1.679103    0.315434
     35          6           0        7.311552   -2.536194    0.806623
     36          6           0        6.713122   -3.913120    1.004716
     37          6           0        5.309611   -3.739989    0.610553
     38          6           0        5.123542   -2.448210    0.144086
     39          6           0        7.338500   -5.115504    1.364057
     40          6           0        4.089312   -4.475325    0.579510
     41          8           0        3.856351   -5.647992    0.893780
     42          6           0        3.022466   -3.481120   -0.126223
     43          6           0        1.871267   -3.410560    0.884942
     44          8           0        1.921822   -2.916843    1.995870
     45          8           0        0.827022   -4.120059    0.448910
     46          6           0       -0.397038   -4.246501    1.293955
     47          6           0       -4.124896   -1.134679   -0.835727
     48          6           0       -5.112145   -0.696781   -1.881573
     49          6           0       -6.383241   -0.303256   -1.723679
     50          6           0       -7.236691   -0.378288   -0.469862
     51          6           0       -7.203007    0.293061   -2.890781
     52          6           0       -8.148796   -0.818558   -3.459761
     53          6           0       -9.623890   -0.422447   -3.679157
     54          6           0      -10.638556   -1.289847   -2.932378
     55          6           0      -10.786663   -2.609739   -3.680859
     56          6           0      -12.028000   -0.594561   -2.687778
     57          6           0      -12.345613   -0.477400   -1.191708
     58          6           0      -13.856850   -0.299051   -0.916232
     59          6           0      -14.155400    0.820727    0.194483
     60          6           0      -15.668024    1.306040    0.253968
     61          6           0      -13.753235    0.334888    1.626338
     62          6           0      -13.223772    1.560858    2.452049
     63          6           0      -13.962292    1.908167    3.742655
     64          6           0      -13.024366    2.631043    4.809862
     65          6           0      -12.829068    1.799004    6.164000
     66          6           0      -13.542953    4.112172    5.139586
     67          1           0        3.536441    3.136313   -2.258887
     68          1           0        9.378865    3.374625    0.668191
     69          1           0        9.448280   -2.856716    1.316365
     70          1           0        1.837096   -1.168056   -2.299361
     71          1           0        1.685456    1.682085   -1.794558
     72          1           0        3.466861    1.156982   -4.014620
     73          1           0        1.703277    1.378541   -4.071109
     74          1           0        2.370285   -0.255085   -4.068342
     75          1           0        0.580612    0.570916   -0.208121
     76          1           0        1.007069   -1.014636    0.391194
     77          1           0       -0.264870   -2.178731   -1.020839
     78          1           0       -0.537152   -0.914564   -2.228743
     79          1           0        4.884977    6.082842   -1.130962
     80          1           0        4.041742    5.123391   -2.308522
     81          1           0        5.362282    6.233610   -2.838753
     82          1           0        7.406908    7.318794   -1.829180
     83          1           0        8.232926    7.906456   -0.458533
     84          1           0        6.538541    7.290358   -0.219104
     85          1           0       10.172532    1.448699    2.440091
     86          1           0       11.215601   -0.799077    0.611878
     87          1           0       11.549665    2.488607    0.071361
     88          1           0       12.373107    1.011703    0.524488
     89          1           0       12.155298    2.240272    1.789038
     90          1           0       10.120572   -1.663600    3.216043
     91          1           0       11.128056   -0.257321    3.483508
     92          1           0       12.018093   -2.846767    2.388851
     93          1           0       12.510742   -1.831214    3.747521
     94          1           0       12.867981   -1.461544    2.002415
     95          1           0        8.244258   -4.753177    1.850552
     96          1           0        7.558102   -5.653400    0.442133
     97          1           0        6.661460   -5.670767    2.014421
     98          1           0        2.686344   -3.834862   -1.100817
     99          1           0       -1.229798   -4.273669    0.591227
    100          1           0       -0.617222   -3.344354    1.863772
    101          1           0       -0.433579   -5.198867    1.822804
    102          1           0       -4.289806   -0.642229    0.122809
    103          1           0       -4.234164   -2.189364   -0.582072
    104          1           0       -4.643822   -0.568026   -2.857098
    105          1           0       -6.835350   -1.170071    0.162727
    106          1           0       -8.253186   -0.662008   -0.744330
    107          1           0       -7.232296    0.529924    0.133221
    108          1           0       -6.478711    0.667411   -3.614597
    109          1           0       -7.696361    1.220807   -2.600801
    110          1           0       -7.945061   -1.801775   -3.034737
    111          1           0       -7.765373   -0.895968   -4.476501
    112          1           0       -9.756782   -0.439135   -4.760252
    113          1           0       -9.754833    0.636120   -3.455129
    114          1           0      -10.340667   -1.481755   -1.901808
    115          1           0      -10.084719   -2.638366   -4.514616
    116          1           0      -11.792839   -2.687705   -4.092677
    117          1           0      -10.443995   -3.411675   -3.026103
    118          1           0      -12.815141   -1.112595   -3.236181
    119          1           0      -12.026395    0.385301   -3.164913
    120          1           0      -11.748667    0.206226   -0.588003
    121          1           0      -12.196506   -1.464361   -0.754241
    122          1           0      -14.247617   -1.204129   -0.451152
    123          1           0      -14.424393   -0.153780   -1.834696
    124          1           0      -13.560550    1.655526   -0.175237
    125          1           0      -16.117831    1.233410    1.244570
    126          1           0      -16.200470    0.595590   -0.376985
    127          1           0      -15.581183    2.344630   -0.066110
    128          1           0      -12.958770   -0.410383    1.587460
    129          1           0      -14.580827   -0.019129    2.241598
    130          1           0      -13.363494    2.460959    1.853877
    131          1           0      -12.162252    1.381572    2.622117
    132          1           0      -14.288869    0.931117    4.097950
    133          1           0      -14.852990    2.492007    3.509842
    134          1           0      -12.032281    2.828243    4.402180
    135          1           0      -11.775460    1.731903    6.435566
    136          1           0      -13.283590    0.814215    6.274619
    137          1           0      -13.128191    2.245730    7.112660
    138          1           0      -13.921375    4.164296    6.160870
    139          1           0      -14.428626    4.390225    4.568289
    140          1           0      -12.741261    4.817104    4.919037
 ---------------------------------------------------------------------

 SCF Done:  E(RPBE1PBE) =  -3005.33035649     A.U. after   15 cycles

 Excitation energies and oscillator strengths:

 Excited State   1:      Singlet-A      1.7890 eV  693.03 nm  f=0.3847  <S**2>=0.000
     245 -> 248        0.17089
     246 -> 247        0.69650
     246 <- 247       -0.11912
 This state for optimization and/or second-order correction.
 Total Energy, E(TD-HF/TD-DFT) =  -3005.26461155
 Copying the excited state density for this state as the 1-particle RhoCI density.

 Excited State   2:      Singlet-A      2.1844 eV  567.60 nm  f=0.1243  <S**2>=0.000
     245 -> 247        0.65585
     246 -> 248       -0.25424

 Excited State   3:      Singlet-A      2.7311 eV  453.97 nm  f=0.0099  <S**2>=0.000
     244 -> 247        0.68662

 Excited State   4:      Singlet-A      2.8456 eV  435.70 nm  f=0.0024  <S**2>=0.000
     243 -> 247        0.67525
     243 -> 249        0.11727

 Excited State   5:      Singlet-A      2.9604 eV  418.81 nm  f=0.0003  <S**2>=0.000
     240 -> 247        0.52477
     240 -> 249       -0.11670
     241 -> 247        0.42213
     241 -> 249       -0.10927

 The electronic state is 1-A.
 Alpha  occ. eigenvalues --  -46.91739 -19.26488 -19.25726 -19.20150 -19.19223
 Alpha  occ. eigenvalues --  -19.18954 -19.18778 -14.42249 -14.41278 -14.39499
 Alpha  occ. eigenvalues --  -14.39403 -10.36924 -10.35971 -10.32225 -10.31948
 Alpha  occ. eigenvalues --  -10.29897 -10.29408 -10.28919 -10.28894 -10.28666
 Alpha  occ. eigenvalues --  -10.28568 -10.28449 -10.28304 -10.27962 -10.27440
 Alpha  occ. eigenvalues --  -10.27024 -10.26684 -10.26664 -10.26462 -10.26155
 Alpha  occ. eigenvalues --  -10.26145 -10.25728 -10.25510 -10.25489 -10.25469
 Alpha  occ. eigenvalues --  -10.25288 -10.25195 -10.25157 -10.24933 -10.24800
 Alpha  occ. eigenvalues --  -10.24693 -10.24088 -10.23661 -10.23563 -10.23497
 Alpha  occ. eigenvalues --  -10.23329 -10.23303 -10.23261 -10.23237 -10.23160
 Alpha  occ. eigenvalues --  -10.23101 -10.22993 -10.22748 -10.22659 -10.22604
 Alpha  occ. eigenvalues --  -10.22595 -10.22528 -10.22471 -10.22454 -10.22402
 Alpha  occ. eigenvalues --  -10.22306 -10.21987 -10.21967 -10.21867 -10.21826
 Alpha  occ. eigenvalues --  -10.21797  -3.13861  -1.86719  -1.86230  -1.86093
 Alpha  occ. eigenvalues --   -1.11511  -1.11300  -1.05028  -1.03606  -1.01874
 Alpha  occ. eigenvalues --   -1.01375  -0.98831  -0.98001  -0.97237  -0.95281
 Alpha  occ. eigenvalues --   -0.86665  -0.84640  -0.84191  -0.83625  -0.83129
 Alpha  occ. eigenvalues --   -0.82744  -0.82442  -0.81870  -0.81510  -0.80830
 Alpha  occ. eigenvalues --   -0.80506  -0.79998  -0.78556  -0.78414  -0.77637
 Alpha  occ. eigenvalues --   -0.76754  -0.76288  -0.75277  -0.74919  -0.74176
 Alpha  occ. eigenvalues --   -0.73997  -0.72589  -0.72291  -0.71872  -0.70683
 Alpha  occ. eigenvalues --   -0.69970  -0.69596  -0.69151  -0.68898  -0.68162
 Alpha  occ. eigenvalues --   -0.67617  -0.66427  -0.65966  -0.64706  -0.63106
 Alpha  occ. eigenvalues --   -0.62734  -0.62346  -0.61946  -0.60471  -0.60261
 Alpha  occ. eigenvalues --   -0.60152  -0.59645  -0.59440  -0.58829  -0.58467
 Alpha  occ. eigenvalues --   -0.58011  -0.57866  -0.56930  -0.56628  -0.54637
 Alpha  occ. eigenvalues --   -0.54526  -0.54085  -0.53677  -0.52851  -0.52295
 Alpha  occ. eigenvalues --   -0.51704  -0.51139  -0.50552  -0.50449  -0.49893
 Alpha  occ. eigenvalues --   -0.49288  -0.49234  -0.48898  -0.48371  -0.48306
 Alpha  occ. eigenvalues --   -0.47851  -0.47716  -0.47646  -0.47452  -0.47119
 Alpha  occ. eigenvalues --   -0.47060  -0.46668  -0.46597  -0.46554  -0.46307
 Alpha  occ. eigenvalues --   -0.46201  -0.46037  -0.45845  -0.45688  -0.44929
 Alpha  occ. eigenvalues --   -0.44754  -0.44709  -0.44588  -0.44469  -0.44232
 Alpha  occ. eigenvalues --   -0.43997  -0.43872  -0.43625  -0.43606  -0.43313
 Alpha  occ. eigenvalues --   -0.43102  -0.42976  -0.42851  -0.42750  -0.42411
 Alpha  occ. eigenvalues --   -0.42381  -0.42192  -0.42005  -0.41841  -0.41537
 Alpha  occ. eigenvalues --   -0.41431  -0.41161  -0.40806  -0.40630  -0.40576
 Alpha  occ. eigenvalues --   -0.40178  -0.40059  -0.39927  -0.39655  -0.39465
 Alpha  occ. eigenvalues --   -0.39381  -0.39307  -0.39192  -0.38866  -0.38558
 Alpha  occ. eigenvalues --   -0.38410  -0.38368  -0.38159  -0.37949  -0.37932
 Alpha  occ. eigenvalues --   -0.37786  -0.37471  -0.37396  -0.37295  -0.37115
 Alpha  occ. eigenvalues --   -0.36967  -0.36855  -0.36396  -0.36100  -0.35814
 Alpha  occ. eigenvalues --   -0.35812  -0.35418  -0.35154  -0.35104  -0.35013
 Alpha  occ. eigenvalues --   -0.34792  -0.34646  -0.34057  -0.33712  -0.33230
 Alpha  occ. eigenvalues --   -0.33194  -0.32655  -0.32569  -0.32293  -0.32116
 Alpha  occ. eigenvalues --   -0.32028  -0.31992  -0.31559  -0.31535  -0.31373
 Alpha  occ. eigenvalues --   -0.31158  -0.30643  -0.29734  -0.29657  -0.29109
 Alpha  occ. eigenvalues --   -0.28963  -0.28845  -0.28425  -0.26742  -0.25745
 Alpha  occ. eigenvalues --   -0.25719  -0.25311  -0.25159  -0.24437  -0.21143
 Alpha  occ. eigenvalues --   -0.18901
 Alpha virt. eigenvalues --   -0.11649  -0.05307  -0.04220  -0.02296  -0.00182
 Alpha virt. eigenvalues --    0.00820   0.01194   0.01236   0.01583   0.02481
 Alpha virt. eigenvalues --    0.03730   0.04474   0.05174   0.05510   0.05733

 Mulliken charges:
               1
     1  Mg   0.972650
     2  C   -0.055212
     3  C   -0.049854
     4  C   -0.065779
     5  C   -0.082617
     6  N   -0.377192
     7  C    0.077959
     8  C   -0.092377
     9  C   -0.163237
    10  C    0.054489
    11  C    0.008076
    12  C    0.000444
    13  C   -0.076235
    14  C    0.251577
    15  O   -0.306407
    16  O   -0.358434
    17  N   -0.492916
    18  C    0.181917
    19  C   -0.151830
    20  C   -0.077969
    21  C    0.169087
    22  C    0.033144
    23  C    0.034023
    24  O   -0.225863
    25  C   -0.048598
    26  N   -0.419832
    27  C    0.064401
    28  C   -0.132957
    29  C   -0.121185
    30  C    0.105028
    31  C    0.040672
    32  C   -0.010149
    33  C   -0.074634
    34  N   -0.509286
    35  C    0.179504
    36  C   -0.180908
    37  C   -0.025425
    38  C    0.193112
    39  C    0.056925
    40  C    0.117995
    41  O   -0.234320
    42  C   -0.104070
    43  C    0.270661
    44  O   -0.254791
    45  O   -0.356851
    46  C    0.115494
    47  C    0.235374
    48  C   -0.115792
    49  C   -0.244637
    50  C    0.025304
    51  C    0.013343
    52  C   -0.051952
    53  C    0.005216
    54  C   -0.243926
    55  C    0.018560
    56  C    0.018433
    57  C   -0.070238
    58  C   -0.010302
    59  C   -0.266748
    60  C   -0.003769
    61  C   -0.000320
    62  C   -0.085214
    63  C   -0.001422
    64  C   -0.210928
    65  C   -0.041192
    66  C   -0.037830
    67  H    0.006904
    68  H    0.026044
    69  H    0.016664
    70  H    0.045328
    71  H    0.054246
    72  H    0.053323
    73  H    0.044289
    74  H    0.053674
    75  H    0.047770
    76  H    0.075246
    77  H    0.078430
    78  H    0.063381
    79  H    0.060403
    80  H    0.040291
    81  H    0.069097
    82  H    0.054988
    83  H    0.050609
    84  H    0.060813
    85  H    0.070392
    86  H    0.050268
    87  H    0.060887
    88  H    0.031034
    89  H    0.048336
    90  H    0.049984
    91  H    0.037183
    92  H    0.028914
    93  H    0.041911
    94  H    0.034291
    95  H    0.038209
    96  H    0.074148
    97  H    0.078155
    98  H    0.071931
    99  H    0.043253
   100  H    0.086144
   101  H    0.077340
   102  H    0.070578
   103  H    0.044926
   104  H    0.029401
   105  H    0.032502
   106  H    0.046647
   107  H    0.060901
   108  H    0.022496
   109  H    0.034618
   110  H    0.047290
   111  H    0.028504
   112  H    0.025846
   113  H    0.016114
   114  H    0.046311
   115  H    0.026335
   116  H    0.038290
   117  H    0.036669
   118  H    0.020791
   119  H    0.020370
   120  H    0.041154
   121  H    0.034322
   122  H    0.025222
   123  H    0.026929
   124  H    0.042341
   125  H    0.037286
   126  H    0.038208
   127  H    0.045385
   128  H    0.027492
   129  H    0.031002
   130  H    0.030747
   131  H    0.034073
   132  H    0.025295
   133  H    0.034746
   134  H    0.048666
   135  H    0.027918
   136  H    0.038542
   137  H    0.020634
   138  H    0.036545
   139  H    0.027083
   140  H    0.043754
 Sum of Mulliken charges =  -0.00000

 Dipole moment (field-independent basis, Debye):
    X=             -1.5358    Y=              1.7444    Z=             -4.6209  Tot=              5.1724
 Quadrupole moment (field-independent basis, Debye-Ang):
   XX=           -364.5061   YY=           -419.5234   ZZ=           -399.1933
   XY=            -11.7069   XZ=              0.0493   YZ=             -4.6867

 Normal termination of Gaussian 16 at Wed Apr 27 20:44:21 2022.
