 Gaussian 16, Revision A.03,
 Gaussian 16:  ES64L-G16RevA.03 25-Dec-2016

 --------------------------------
 #p wB97XD/Def2SVP td=(nstates=5)
 --------------------------------

 -----------------------------------------------------
 step_1301_chromophore_22 TDDFT with wB97XD functional
 -----------------------------------------------------
 Symbolic Z-matrix:
 Charge =  0 Multiplicity = 1

                         Standard orientation:
 ---------------------------------------------------------------------
 Center     Atomic      Atomic             Coordinates (Angstroms)
 Number     Number       Type             X           Y           Z
 ---------------------------------------------------------------------
      1         12           0        6.446161    0.343537   -0.190635
      2          6           0        3.793164   -2.192783   -0.298686
      3          6           0        4.302271    2.518234   -1.784264
      4          6           0        8.655391    2.636377    0.313768
      5          6           0        8.679869   -2.150700    0.996321
      6          7           0        4.308701    0.137404   -0.880162
      7          6           0        3.401558   -0.900328   -0.804977
      8          6           0        2.073526   -0.479012   -1.488116
      9          6           0        2.408429    0.939025   -2.128897
     10          6           0        3.780173    1.237490   -1.537710
     11          6           0        2.509080    0.755411   -3.683553
     12          6           0        0.810730   -0.448206   -0.518117
     13          6           0       -0.489194   -1.121720   -1.160011
     14          6           0       -1.791334   -1.014854   -0.462915
     15          8           0       -2.046406   -0.963320    0.767261
     16          8           0       -2.764164   -1.036995   -1.410447
     17          7           0        6.527492    2.337986   -0.739454
     18          6           0        5.528742    3.069281   -1.327073
     19          6           0        5.953539    4.431907   -1.487130
     20          6           0        7.196167    4.561001   -0.720281
     21          6           0        7.528239    3.157566   -0.360651
     22          6           0        5.018048    5.543910   -2.068388
     23          6           0        7.984783    5.766918   -0.318470
     24          8           0        8.993045    5.785722    0.354276
     25          6           0        7.482254    7.173387   -0.751342
     26          7           0        8.300846    0.319133    0.763435
     27          6           0        9.085026    1.378734    0.705184
     28          6           0       10.452607    1.125674    1.437310
     29          6           0       10.502311   -0.466321    1.366782
     30          6           0        9.087371   -0.832338    0.958470
     31          6           0       11.713184    1.796235    0.896968
     32          6           0       10.891710   -1.040082    2.763144
     33          6           0       12.133352   -1.816657    2.725150
     34          7           0        6.307728   -1.679103    0.315434
     35          6           0        7.311552   -2.536194    0.806623
     36          6           0        6.713122   -3.913120    1.004716
     37          6           0        5.309611   -3.739989    0.610553
     38          6           0        5.123542   -2.448210    0.144086
     39          6           0        7.338500   -5.115504    1.364057
     40          6           0        4.089312   -4.475325    0.579510
     41          8           0        3.856351   -5.647992    0.893780
     42          6           0        3.022466   -3.481120   -0.126223
     43          6           0        1.871267   -3.410560    0.884942
     44          8           0        1.921822   -2.916843    1.995870
     45          8           0        0.827022   -4.120059    0.448910
     46          6           0       -0.397038   -4.246501    1.293955
     47          6           0       -4.124896   -1.134679   -0.835727
     48          6           0       -5.112145   -0.696781   -1.881573
     49          6           0       -6.383241   -0.303256   -1.723679
     50          6           0       -7.236691   -0.378288   -0.469862
     51          6           0       -7.203007    0.293061   -2.890781
     52          6           0       -8.148796   -0.818558   -3.459761
     53          6           0       -9.623890   -0.422447   -3.679157
     54          6           0      -10.638556   -1.289847   -2.932378
     55          6           0      -10.786663   -2.609739   -3.680859
     56          6           0      -12.028000   -0.594561   -2.687778
     57          6           0      -12.345613   -0.477400   -1.191708
     58          6           0      -13.856850   -0.299051   -0.916232
     59          6           0      -14.155400    0.820727    0.194483
     60          6           0      -15.668024    1.306040    0.253968
     61          6           0      -13.753235    0.334888    1.626338
     62          6           0      -13.223772    1.560858    2.452049
     63          6           0      -13.962292    1.908167    3.742655
     64          6           0      -13.024366    2.631043    4.809862
     65          6           0      -12.829068    1.799004    6.164000
     66          6           0      -13.542953    4.112172    5.139586
     67          1           0        3.536441    3.136313   -2.258887
     68          1           0        9.378865    3.374625    0.668191
     69          1           0        9.448280   -2.856716    1.316365
     70          1           0        1.837096   -1.168056   -2.299361
     71          1           0        1.685456    1.682085   -1.794558
     72          1           0        3.466861    1.156982   -4.014620
     73          1           0        1.703277    1.378541   -4.071109
     74          1           0        2.370285   -0.255085   -4.068342
     75          1           0        0.580612    0.570916   -0.208121
     76          1           0        1.007069   -1.014636    0.391194
     77          1           0       -0.264870   -2.178731   -1.020839
     78          1           0       -0.537152   -0.914564   -2.228743
     79          1           0        4.884977    6.082842   -1.130962
     80          1           0        4.041742    5.123391   -2.308522
     81          1           0        5.362282    6.233610   -2.838753
     82          1           0        7.406908    7.318794   -1.829180
     83          1           0        8.232926    7.906456   -0.458533
     84          1           0        6.538541    7.290358   -0.219104
     85          1           0       10.172532    1.448699    2.440091
     86          1           0       11.215601   -0.799077    0.611878
     87          1           0       11.549665    2.488607    0.071361
     88          1           0       12.373107    1.011703    0.524488
     89          1           0       12.155298    2.240272    1.789038
     90          1           0       10.120572   -1.663600    3.216043
     91          1           0       11.128056   -0.257321    3.483508
     92          1           0       12.018093   -2.846767    2.388851
     93          1           0       12.510742   -1.831214    3.747521
     94          1           0       12.867981   -1.461544    2.002415
     95          1           0        8.244258   -4.753177    1.850552
     96          1           0        7.558102   -5.653400    0.442133
     97          1           0        6.661460   -5.670767    2.014421
     98          1           0        2.686344   -3.834862   -1.100817
     99          1           0       -1.229798   -4.273669    0.591227
    100          1           0       -0.617222   -3.344354    1.863772
    101          1           0       -0.433579   -5.198867    1.822804
    102          1           0       -4.289806   -0.642229    0.122809
    103          1           0       -4.234164   -2.189364   -0.582072
    104          1           0       -4.643822   -0.568026   -2.857098
    105          1           0       -6.835350   -1.170071    0.162727
    106          1           0       -8.253186   -0.662008   -0.744330
    107          1           0       -7.232296    0.529924    0.133221
    108          1           0       -6.478711    0.667411   -3.614597
    109          1           0       -7.696361    1.220807   -2.600801
    110          1           0       -7.945061   -1.801775   -3.034737
    111          1           0       -7.765373   -0.895968   -4.476501
    112          1           0       -9.756782   -0.439135   -4.760252
    113          1           0       -9.754833    0.636120   -3.455129
    114          1           0      -10.340667   -1.481755   -1.901808
    115          1           0      -10.084719   -2.638366   -4.514616
    116          1           0      -11.792839   -2.687705   -4.092677
    117          1           0      -10.443995   -3.411675   -3.026103
    118          1           0      -12.815141   -1.112595   -3.236181
    119          1           0      -12.026395    0.385301   -3.164913
    120          1           0      -11.748667    0.206226   -0.588003
    121          1           0      -12.196506   -1.464361   -0.754241
    122          1           0      -14.247617   -1.204129   -0.451152
    123          1           0      -14.424393   -0.153780   -1.834696
    124          1           0      -13.560550    1.655526   -0.175237
    125          1           0      -16.117831    1.233410    1.244570
    126          1           0      -16.200470    0.595590   -0.376985
    127          1           0      -15.581183    2.344630   -0.066110
    128          1           0      -12.958770   -0.410383    1.587460
    129          1           0      -14.580827   -0.019129    2.241598
    130          1           0      -13.363494    2.460959    1.853877
    131          1           0      -12.162252    1.381572    2.622117
    132          1           0      -14.288869    0.931117    4.097950
    133          1           0      -14.852990    2.492007    3.509842
    134          1           0      -12.032281    2.828243    4.402180
    135          1           0      -11.775460    1.731903    6.435566
    136          1           0      -13.283590    0.814215    6.274619
    137          1           0      -13.128191    2.245730    7.112660
    138          1           0      -13.921375    4.164296    6.160870
    139          1           0      -14.428626    4.390225    4.568289
    140          1           0      -12.741261    4.817104    4.919037
 ---------------------------------------------------------------------

 SCF Done:  E(RwB97XD) =  -3007.83620689     A.U. after   19 cycles

 Excitation energies and oscillator strengths:

 Excited State   1:      Singlet-A      1.5607 eV  794.41 nm  f=0.3975  <S**2>=0.000
     245 -> 248        0.18275
     246 -> 247        0.68557
     245 <- 248        0.12106
 This state for optimization and/or second-order correction.
 Total Energy, E(TD-HF/TD-DFT) =  -3007.77885201
 Copying the excited state density for this state as the 1-particle RhoCI density.

 Excited State   2:      Singlet-A      2.1208 eV  584.60 nm  f=0.1274  <S**2>=0.000
     245 -> 247        0.64342
     246 -> 248       -0.27801

 Excited State   3:      Singlet-A      3.0955 eV  400.53 nm  f=0.0128  <S**2>=0.000
     242 -> 247        0.11091
     244 -> 247        0.67054

 Excited State   4:      Singlet-A      3.3867 eV  366.09 nm  f=0.0272  <S**2>=0.000
     241 -> 247       -0.12655
     242 -> 247        0.60816
     242 -> 249       -0.11614
     244 -> 247       -0.10771
     246 -> 248       -0.24942

 Excited State   5:      Singlet-A      3.4979 eV  354.45 nm  f=0.0748  <S**2>=0.000
     240 -> 247        0.44548
     240 -> 249        0.28791
     240 -> 250        0.14358
     241 -> 247       -0.27959
     241 -> 250       -0.10240
     246 -> 248       -0.22268

 The electronic state is 1-A.
 Alpha  occ. eigenvalues --  -46.94672 -19.31044 -19.30311 -19.24798 -19.23989
 Alpha  occ. eigenvalues --  -19.23683 -19.23656 -14.47416 -14.46281 -14.44477
 Alpha  occ. eigenvalues --  -14.44270 -10.43721 -10.42817 -10.39059 -10.38863
 Alpha  occ. eigenvalues --  -10.36130 -10.35901 -10.35453 -10.35229 -10.34922
 Alpha  occ. eigenvalues --  -10.34852 -10.34768 -10.34656 -10.34392 -10.34085
 Alpha  occ. eigenvalues --  -10.33246 -10.33072 -10.32902 -10.32887 -10.32443
 Alpha  occ. eigenvalues --  -10.32404 -10.31925 -10.31920 -10.31904 -10.31821
 Alpha  occ. eigenvalues --  -10.31772 -10.31658 -10.31552 -10.31218 -10.31144
 Alpha  occ. eigenvalues --  -10.30965 -10.30485 -10.29917 -10.29869 -10.29816
 Alpha  occ. eigenvalues --  -10.29797 -10.29711 -10.29617 -10.29582 -10.29466
 Alpha  occ. eigenvalues --  -10.29442 -10.29407 -10.29324 -10.28981 -10.28972
 Alpha  occ. eigenvalues --  -10.28892 -10.28880 -10.28827 -10.28809 -10.28768
 Alpha  occ. eigenvalues --  -10.28659 -10.28409 -10.28381 -10.28282 -10.28223
 Alpha  occ. eigenvalues --  -10.28193  -3.20644  -1.94252  -1.93765  -1.93626
 Alpha  occ. eigenvalues --   -1.18888  -1.18707  -1.12566  -1.11061  -1.09257
 Alpha  occ. eigenvalues --   -1.08729  -1.06226  -1.05391  -1.04677  -1.02606
 Alpha  occ. eigenvalues --   -0.94263  -0.92323  -0.91728  -0.91296  -0.90778
 Alpha  occ. eigenvalues --   -0.90404  -0.90114  -0.89457  -0.89054  -0.88569
 Alpha  occ. eigenvalues --   -0.88191  -0.87667  -0.86159  -0.86032  -0.85271
 Alpha  occ. eigenvalues --   -0.84401  -0.83929  -0.82929  -0.82606  -0.81928
 Alpha  occ. eigenvalues --   -0.81663  -0.80291  -0.79977  -0.79471  -0.78300
 Alpha  occ. eigenvalues --   -0.77660  -0.77177  -0.76850  -0.76588  -0.75832
 Alpha  occ. eigenvalues --   -0.75216  -0.73922  -0.73511  -0.72319  -0.70685
 Alpha  occ. eigenvalues --   -0.70267  -0.69978  -0.69483  -0.68103  -0.67750
 Alpha  occ. eigenvalues --   -0.67649  -0.67309  -0.66880  -0.66265  -0.65947
 Alpha  occ. eigenvalues --   -0.65692  -0.65528  -0.64574  -0.64019  -0.62132
 Alpha  occ. eigenvalues --   -0.62038  -0.61465  -0.61151  -0.60236  -0.59650
 Alpha  occ. eigenvalues --   -0.59209  -0.58595  -0.58062  -0.57855  -0.57262
 Alpha  occ. eigenvalues --   -0.56734  -0.56596  -0.56294  -0.55757  -0.55711
 Alpha  occ. eigenvalues --   -0.55279  -0.55063  -0.55018  -0.54799  -0.54527
 Alpha  occ. eigenvalues --   -0.54472  -0.54258  -0.53959  -0.53884  -0.53690
 Alpha  occ. eigenvalues --   -0.53483  -0.53347  -0.53211  -0.53049  -0.52331
 Alpha  occ. eigenvalues --   -0.52113  -0.52008  -0.51898  -0.51731  -0.51561
 Alpha  occ. eigenvalues --   -0.51307  -0.51159  -0.50953  -0.50850  -0.50691
 Alpha  occ. eigenvalues --   -0.50456  -0.50274  -0.50156  -0.50026  -0.49727
 Alpha  occ. eigenvalues --   -0.49701  -0.49484  -0.49273  -0.49058  -0.48838
 Alpha  occ. eigenvalues --   -0.48634  -0.48407  -0.48038  -0.47827  -0.47786
 Alpha  occ. eigenvalues --   -0.47376  -0.47200  -0.47142  -0.46771  -0.46613
 Alpha  occ. eigenvalues --   -0.46533  -0.46518  -0.46338  -0.46026  -0.45729
 Alpha  occ. eigenvalues --   -0.45589  -0.45558  -0.45321  -0.45114  -0.45007
 Alpha  occ. eigenvalues --   -0.44888  -0.44559  -0.44529  -0.44471  -0.44168
 Alpha  occ. eigenvalues --   -0.44134  -0.43984  -0.43431  -0.43144  -0.42952
 Alpha  occ. eigenvalues --   -0.42942  -0.42494  -0.42197  -0.42148  -0.41982
 Alpha  occ. eigenvalues --   -0.41765  -0.41736  -0.41151  -0.40667  -0.40220
 Alpha  occ. eigenvalues --   -0.40135  -0.39608  -0.39576  -0.39324  -0.39162
 Alpha  occ. eigenvalues --   -0.39115  -0.39070  -0.38542  -0.38467  -0.38361
 Alpha  occ. eigenvalues --   -0.38142  -0.37667  -0.36638  -0.36419  -0.36180
 Alpha  occ. eigenvalues --   -0.35759  -0.35689  -0.35480  -0.33287  -0.32766
 Alpha  occ. eigenvalues --   -0.32599  -0.32144  -0.32071  -0.30828  -0.26104
 Alpha  occ. eigenvalues --   -0.23048
 Alpha virt. eigenvalues --   -0.07630   0.00115   0.02048   0.04196   0.06618
 Alpha virt. eigenvalues --    0.06792   0.07633   0.07937   0.08376   0.08873
 Alpha virt. eigenvalues --    0.10342   0.11257   0.11892   0.12336   0.12492

 Mulliken charges:
               1
     1  Mg   0.961271
     2  C   -0.058877
     3  C   -0.068315
     4  C   -0.080626
     5  C   -0.102271
     6  N   -0.341493
     7  C    0.042007
     8  C   -0.065343
     9  C   -0.137138
    10  C    0.042879
    11  C    0.017222
    12  C    0.011705
    13  C   -0.050201
    14  C    0.239386
    15  O   -0.302538
    16  O   -0.357420
    17  N   -0.460542
    18  C    0.175903
    19  C   -0.146057
    20  C   -0.072205
    21  C    0.161320
    22  C    0.049413
    23  C    0.031092
    24  O   -0.219799
    25  C   -0.035770
    26  N   -0.393123
    27  C    0.052096
    28  C   -0.106178
    29  C   -0.091685
    30  C    0.095741
    31  C    0.049957
    32  C    0.002739
    33  C   -0.058349
    34  N   -0.476343
    35  C    0.170239
    36  C   -0.175548
    37  C   -0.023938
    38  C    0.179791
    39  C    0.070595
    40  C    0.101174
    41  O   -0.224820
    42  C   -0.063409
    43  C    0.242049
    44  O   -0.247372
    45  O   -0.352879
    46  C    0.129673
    47  C    0.246736
    48  C   -0.125771
    49  C   -0.226215
    50  C    0.041508
    51  C    0.029777
    52  C   -0.040183
    53  C    0.024331
    54  C   -0.209171
    55  C    0.028745
    56  C    0.028023
    57  C   -0.048668
    58  C    0.004188
    59  C   -0.234966
    60  C    0.007058
    61  C    0.015309
    62  C   -0.069388
    63  C    0.015723
    64  C   -0.184618
    65  C   -0.029614
    66  C   -0.024019
    67  H   -0.000097
    68  H    0.018274
    69  H    0.009434
    70  H    0.030372
    71  H    0.045286
    72  H    0.046197
    73  H    0.038790
    74  H    0.049199
    75  H    0.040885
    76  H    0.062786
    77  H    0.062262
    78  H    0.057973
    79  H    0.052009
    80  H    0.036258
    81  H    0.066471
    82  H    0.050114
    83  H    0.049512
    84  H    0.054673
    85  H    0.059688
    86  H    0.038468
    87  H    0.055938
    88  H    0.024309
    89  H    0.043445
    90  H    0.041920
    91  H    0.028672
    92  H    0.022228
    93  H    0.037003
    94  H    0.026271
    95  H    0.030074
    96  H    0.069022
    97  H    0.074283
    98  H    0.067119
    99  H    0.039071
   100  H    0.083468
   101  H    0.074966
   102  H    0.065605
   103  H    0.039810
   104  H    0.026833
   105  H    0.026584
   106  H    0.035576
   107  H    0.056692
   108  H    0.015489
   109  H    0.027019
   110  H    0.038140
   111  H    0.020887
   112  H    0.017325
   113  H    0.006136
   114  H    0.027399
   115  H    0.018840
   116  H    0.032728
   117  H    0.031959
   118  H    0.011175
   119  H    0.011888
   120  H    0.031805
   121  H    0.023605
   122  H    0.015138
   123  H    0.018741
   124  H    0.028049
   125  H    0.030484
   126  H    0.032401
   127  H    0.040516
   128  H    0.019282
   129  H    0.019994
   130  H    0.019241
   131  H    0.025976
   132  H    0.013888
   133  H    0.025921
   134  H    0.037904
   135  H    0.022029
   136  H    0.033105
   137  H    0.013990
   138  H    0.029652
   139  H    0.020298
   140  H    0.038757
 Sum of Mulliken charges =  -0.00000

 Dipole moment (field-independent basis, Debye):
    X=             -1.6699    Y=              2.0807    Z=             -4.7677  Tot=              5.4634
 Quadrupole moment (field-independent basis, Debye-Ang):
   XX=           -365.8241   YY=           -417.4407   ZZ=           -398.9210
   XY=             -9.3904   XZ=             -1.1437   YZ=             -5.0112

 Normal termination of Gaussian 16 at Wed Apr 27 21:14:07 2022.
