 Gaussian 16, Revision A.03,
 Gaussian 16:  ES64L-G16RevA.03 25-Dec-2016

 --------------------
 #p ZINDO=(nstates=5)
 --------------------

 ------------------------------
 step_1301_chromophore_22 ZINDO
 ------------------------------
 Symbolic Z-matrix:
 Charge =  0 Multiplicity = 1

                         Standard orientation:
 ---------------------------------------------------------------------
 Center     Atomic      Atomic             Coordinates (Angstroms)
 Number     Number       Type             X           Y           Z
 ---------------------------------------------------------------------
      1         12           0        6.446161    0.343537   -0.190635
      2          6           0        3.793164   -2.192783   -0.298686
      3          6           0        4.302271    2.518234   -1.784264
      4          6           0        8.655391    2.636377    0.313768
      5          6           0        8.679869   -2.150700    0.996321
      6          7           0        4.308701    0.137404   -0.880162
      7          6           0        3.401558   -0.900328   -0.804977
      8          6           0        2.073526   -0.479012   -1.488116
      9          6           0        2.408429    0.939025   -2.128897
     10          6           0        3.780173    1.237490   -1.537710
     11          6           0        2.509080    0.755411   -3.683553
     12          6           0        0.810730   -0.448206   -0.518117
     13          6           0       -0.489194   -1.121720   -1.160011
     14          6           0       -1.791334   -1.014854   -0.462915
     15          8           0       -2.046406   -0.963320    0.767261
     16          8           0       -2.764164   -1.036995   -1.410447
     17          7           0        6.527492    2.337986   -0.739454
     18          6           0        5.528742    3.069281   -1.327073
     19          6           0        5.953539    4.431907   -1.487130
     20          6           0        7.196167    4.561001   -0.720281
     21          6           0        7.528239    3.157566   -0.360651
     22          6           0        5.018048    5.543910   -2.068388
     23          6           0        7.984783    5.766918   -0.318470
     24          8           0        8.993045    5.785722    0.354276
     25          6           0        7.482254    7.173387   -0.751342
     26          7           0        8.300846    0.319133    0.763435
     27          6           0        9.085026    1.378734    0.705184
     28          6           0       10.452607    1.125674    1.437310
     29          6           0       10.502311   -0.466321    1.366782
     30          6           0        9.087371   -0.832338    0.958470
     31          6           0       11.713184    1.796235    0.896968
     32          6           0       10.891710   -1.040082    2.763144
     33          6           0       12.133352   -1.816657    2.725150
     34          7           0        6.307728   -1.679103    0.315434
     35          6           0        7.311552   -2.536194    0.806623
     36          6           0        6.713122   -3.913120    1.004716
     37          6           0        5.309611   -3.739989    0.610553
     38          6           0        5.123542   -2.448210    0.144086
     39          6           0        7.338500   -5.115504    1.364057
     40          6           0        4.089312   -4.475325    0.579510
     41          8           0        3.856351   -5.647992    0.893780
     42          6           0        3.022466   -3.481120   -0.126223
     43          6           0        1.871267   -3.410560    0.884942
     44          8           0        1.921822   -2.916843    1.995870
     45          8           0        0.827022   -4.120059    0.448910
     46          6           0       -0.397038   -4.246501    1.293955
     47          6           0       -4.124896   -1.134679   -0.835727
     48          6           0       -5.112145   -0.696781   -1.881573
     49          6           0       -6.383241   -0.303256   -1.723679
     50          6           0       -7.236691   -0.378288   -0.469862
     51          6           0       -7.203007    0.293061   -2.890781
     52          6           0       -8.148796   -0.818558   -3.459761
     53          6           0       -9.623890   -0.422447   -3.679157
     54          6           0      -10.638556   -1.289847   -2.932378
     55          6           0      -10.786663   -2.609739   -3.680859
     56          6           0      -12.028000   -0.594561   -2.687778
     57          6           0      -12.345613   -0.477400   -1.191708
     58          6           0      -13.856850   -0.299051   -0.916232
     59          6           0      -14.155400    0.820727    0.194483
     60          6           0      -15.668024    1.306040    0.253968
     61          6           0      -13.753235    0.334888    1.626338
     62          6           0      -13.223772    1.560858    2.452049
     63          6           0      -13.962292    1.908167    3.742655
     64          6           0      -13.024366    2.631043    4.809862
     65          6           0      -12.829068    1.799004    6.164000
     66          6           0      -13.542953    4.112172    5.139586
     67          1           0        3.536441    3.136313   -2.258887
     68          1           0        9.378865    3.374625    0.668191
     69          1           0        9.448280   -2.856716    1.316365
     70          1           0        1.837096   -1.168056   -2.299361
     71          1           0        1.685456    1.682085   -1.794558
     72          1           0        3.466861    1.156982   -4.014620
     73          1           0        1.703277    1.378541   -4.071109
     74          1           0        2.370285   -0.255085   -4.068342
     75          1           0        0.580612    0.570916   -0.208121
     76          1           0        1.007069   -1.014636    0.391194
     77          1           0       -0.264870   -2.178731   -1.020839
     78          1           0       -0.537152   -0.914564   -2.228743
     79          1           0        4.884977    6.082842   -1.130962
     80          1           0        4.041742    5.123391   -2.308522
     81          1           0        5.362282    6.233610   -2.838753
     82          1           0        7.406908    7.318794   -1.829180
     83          1           0        8.232926    7.906456   -0.458533
     84          1           0        6.538541    7.290358   -0.219104
     85          1           0       10.172532    1.448699    2.440091
     86          1           0       11.215601   -0.799077    0.611878
     87          1           0       11.549665    2.488607    0.071361
     88          1           0       12.373107    1.011703    0.524488
     89          1           0       12.155298    2.240272    1.789038
     90          1           0       10.120572   -1.663600    3.216043
     91          1           0       11.128056   -0.257321    3.483508
     92          1           0       12.018093   -2.846767    2.388851
     93          1           0       12.510742   -1.831214    3.747521
     94          1           0       12.867981   -1.461544    2.002415
     95          1           0        8.244258   -4.753177    1.850552
     96          1           0        7.558102   -5.653400    0.442133
     97          1           0        6.661460   -5.670767    2.014421
     98          1           0        2.686344   -3.834862   -1.100817
     99          1           0       -1.229798   -4.273669    0.591227
    100          1           0       -0.617222   -3.344354    1.863772
    101          1           0       -0.433579   -5.198867    1.822804
    102          1           0       -4.289806   -0.642229    0.122809
    103          1           0       -4.234164   -2.189364   -0.582072
    104          1           0       -4.643822   -0.568026   -2.857098
    105          1           0       -6.835350   -1.170071    0.162727
    106          1           0       -8.253186   -0.662008   -0.744330
    107          1           0       -7.232296    0.529924    0.133221
    108          1           0       -6.478711    0.667411   -3.614597
    109          1           0       -7.696361    1.220807   -2.600801
    110          1           0       -7.945061   -1.801775   -3.034737
    111          1           0       -7.765373   -0.895968   -4.476501
    112          1           0       -9.756782   -0.439135   -4.760252
    113          1           0       -9.754833    0.636120   -3.455129
    114          1           0      -10.340667   -1.481755   -1.901808
    115          1           0      -10.084719   -2.638366   -4.514616
    116          1           0      -11.792839   -2.687705   -4.092677
    117          1           0      -10.443995   -3.411675   -3.026103
    118          1           0      -12.815141   -1.112595   -3.236181
    119          1           0      -12.026395    0.385301   -3.164913
    120          1           0      -11.748667    0.206226   -0.588003
    121          1           0      -12.196506   -1.464361   -0.754241
    122          1           0      -14.247617   -1.204129   -0.451152
    123          1           0      -14.424393   -0.153780   -1.834696
    124          1           0      -13.560550    1.655526   -0.175237
    125          1           0      -16.117831    1.233410    1.244570
    126          1           0      -16.200470    0.595590   -0.376985
    127          1           0      -15.581183    2.344630   -0.066110
    128          1           0      -12.958770   -0.410383    1.587460
    129          1           0      -14.580827   -0.019129    2.241598
    130          1           0      -13.363494    2.460959    1.853877
    131          1           0      -12.162252    1.381572    2.622117
    132          1           0      -14.288869    0.931117    4.097950
    133          1           0      -14.852990    2.492007    3.509842
    134          1           0      -12.032281    2.828243    4.402180
    135          1           0      -11.775460    1.731903    6.435566
    136          1           0      -13.283590    0.814215    6.274619
    137          1           0      -13.128191    2.245730    7.112660
    138          1           0      -13.921375    4.164296    6.160870
    139          1           0      -14.428626    4.390225    4.568289
    140          1           0      -12.741261    4.817104    4.919037
 ---------------------------------------------------------------------

 SCF Done:  E(RZINDO/S) =  -473.910462561     A.U. after   20 cycles

 Excitation energies and oscillator strengths:

 Excited State   1:      Singlet-A      1.1885 eV 1043.20 nm  f=0.6238  <S**2>=0.000
     175 ->178         0.19038
     176 ->177         0.66214
 This state for optimization and/or second-order correction.
 Total Energy, E(CIS/TDA) =  -473.866785924
 Copying the excited state density for this state as the 1-particle RhoCI density.

 Excited State   2:      Singlet-A      1.8692 eV  663.30 nm  f=0.0682  <S**2>=0.000
     175 ->177         0.56181
     176 ->178        -0.39944

 Excited State   3:      Singlet-A      2.9357 eV  422.34 nm  f=0.7903  <S**2>=0.000
     175 ->177         0.31426
     176 ->178         0.49497
     176 ->179        -0.29642

 Excited State   4:      Singlet-A      2.9491 eV  420.41 nm  f=0.0065  <S**2>=0.000
     168 ->177        -0.17564
     168 ->179         0.20147
     168 ->180         0.18139
     168 ->186        -0.11315
     169 ->177        -0.25958
     169 ->179         0.23877
     169 ->180         0.25156
     169 ->186        -0.12585
     169 ->188         0.12945
     170 ->179        -0.15091
     172 ->177         0.12688
     174 ->177        -0.11090

 Excited State   5:      Singlet-A      2.9665 eV  417.95 nm  f=0.0055  <S**2>=0.000
     169 ->179         0.20006
     169 ->186        -0.11617
     170 ->177         0.21842
     170 ->178        -0.13799
     170 ->179         0.17449
     170 ->180        -0.21798
     172 ->177        -0.20422
     174 ->177         0.36423
     176 ->179        -0.19642

 The electronic state is 1-A.
 Alpha  occ. eigenvalues --   -1.81732  -1.79050  -1.78958  -1.73587  -1.71601
 Alpha  occ. eigenvalues --   -1.68884  -1.64175  -1.59929  -1.59027  -1.56319
 Alpha  occ. eigenvalues --   -1.53174  -1.50705  -1.49201  -1.47467  -1.46659
 Alpha  occ. eigenvalues --   -1.43202  -1.41524  -1.39943  -1.38899  -1.38839
 Alpha  occ. eigenvalues --   -1.36248  -1.35177  -1.32383  -1.31186  -1.29185
 Alpha  occ. eigenvalues --   -1.27218  -1.24614  -1.21766  -1.19988  -1.17938
 Alpha  occ. eigenvalues --   -1.16244  -1.15029  -1.14798  -1.13868  -1.13599
 Alpha  occ. eigenvalues --   -1.12160  -1.11011  -1.10317  -1.04742  -1.04327
 Alpha  occ. eigenvalues --   -1.01859  -0.99875  -0.98310  -0.97309  -0.95544
 Alpha  occ. eigenvalues --   -0.94993  -0.94282  -0.93427  -0.92851  -0.92235
 Alpha  occ. eigenvalues --   -0.91130  -0.90367  -0.88882  -0.88077  -0.87923
 Alpha  occ. eigenvalues --   -0.86474  -0.85205  -0.83725  -0.81901  -0.80037
 Alpha  occ. eigenvalues --   -0.79674  -0.79288  -0.76887  -0.76004  -0.75806
 Alpha  occ. eigenvalues --   -0.75247  -0.74018  -0.73845  -0.73188  -0.72855
 Alpha  occ. eigenvalues --   -0.72307  -0.71993  -0.71429  -0.70817  -0.70442
 Alpha  occ. eigenvalues --   -0.69756  -0.68853  -0.67986  -0.67751  -0.67524
 Alpha  occ. eigenvalues --   -0.66949  -0.66694  -0.66408  -0.66084  -0.65534
 Alpha  occ. eigenvalues --   -0.65259  -0.64861  -0.64563  -0.64059  -0.63745
 Alpha  occ. eigenvalues --   -0.63515  -0.62955  -0.62807  -0.62095  -0.62029
 Alpha  occ. eigenvalues --   -0.61850  -0.61543  -0.60943  -0.60554  -0.59969
 Alpha  occ. eigenvalues --   -0.59899  -0.59275  -0.58688  -0.58585  -0.58136
 Alpha  occ. eigenvalues --   -0.57905  -0.57219  -0.57059  -0.56560  -0.56542
 Alpha  occ. eigenvalues --   -0.56258  -0.56106  -0.55622  -0.55506  -0.55040
 Alpha  occ. eigenvalues --   -0.54560  -0.54108  -0.53555  -0.53416  -0.53147
 Alpha  occ. eigenvalues --   -0.52319  -0.52133  -0.52071  -0.51734  -0.51521
 Alpha  occ. eigenvalues --   -0.51027  -0.50940  -0.50845  -0.50460  -0.50390
 Alpha  occ. eigenvalues --   -0.50305  -0.50013  -0.49414  -0.49033  -0.48925
 Alpha  occ. eigenvalues --   -0.48770  -0.48747  -0.48278  -0.48010  -0.47377
 Alpha  occ. eigenvalues --   -0.47207  -0.46678  -0.46587  -0.46326  -0.45979
 Alpha  occ. eigenvalues --   -0.45906  -0.45776  -0.45677  -0.45651  -0.45469
 Alpha  occ. eigenvalues --   -0.45104  -0.44931  -0.44505  -0.44320  -0.43951
 Alpha  occ. eigenvalues --   -0.43758  -0.43045  -0.42557  -0.42334  -0.42260
 Alpha  occ. eigenvalues --   -0.41957  -0.41726  -0.40643  -0.38780  -0.38510
 Alpha  occ. eigenvalues --   -0.37826  -0.37163  -0.35129  -0.35021  -0.34716
 Alpha  occ. eigenvalues --   -0.32878  -0.32459  -0.32216  -0.31104  -0.26499
 Alpha  occ. eigenvalues --   -0.21727
 Alpha virt. eigenvalues --   -0.08939  -0.02092  -0.00551   0.01209   0.01703
 Alpha virt. eigenvalues --    0.02645   0.03400   0.03565   0.04958   0.05083
 Alpha virt. eigenvalues --    0.06123   0.06365   0.06865   0.07361   0.08062

 Mulliken charges:
               1
     1  Mg   0.425233
     2  C   -0.033305
     3  C   -0.080532
     4  C   -0.076314
     5  C   -0.065761
     6  N   -0.281883
     7  C    0.113479
     8  C   -0.003883
     9  C   -0.004902
    10  C    0.132683
    11  C   -0.050857
    12  C   -0.030821
    13  C   -0.000179
    14  C    0.475555
    15  O   -0.539364
    16  O   -0.264711
    17  N   -0.317842
    18  C    0.113377
    19  C    0.009139
    20  C   -0.057766
    21  C    0.155559
    22  C   -0.051743
    23  C    0.326890
    24  O   -0.517782
    25  C   -0.037668
    26  N   -0.267467
    27  C    0.156309
    28  C   -0.002802
    29  C   -0.001542
    30  C    0.113681
    31  C   -0.050741
    32  C   -0.024280
    33  C   -0.053497
    34  N   -0.342580
    35  C    0.088640
    36  C    0.035274
    37  C   -0.061116
    38  C    0.107113
    39  C   -0.027689
    40  C    0.333267
    41  O   -0.528238
    42  C    0.058716
    43  C    0.491004
    44  O   -0.525046
    45  O   -0.270467
    46  C    0.073893
    47  C    0.104861
    48  C   -0.090131
    49  C   -0.006406
    50  C   -0.043473
    51  C   -0.025384
    52  C   -0.034638
    53  C   -0.023811
    54  C   -0.014930
    55  C   -0.057889
    56  C   -0.035235
    57  C   -0.035371
    58  C   -0.046360
    59  C   -0.024921
    60  C   -0.067762
    61  C   -0.037489
    62  C   -0.044932
    63  C   -0.032006
    64  C   -0.012376
    65  C   -0.069767
    66  C   -0.065559
    67  H    0.029698
    68  H    0.028928
    69  H    0.037516
    70  H    0.027078
    71  H    0.039627
    72  H    0.025973
    73  H    0.014665
    74  H    0.029831
    75  H    0.030993
    76  H    0.041976
    77  H    0.049705
    78  H    0.039151
    79  H    0.029336
    80  H    0.026764
    81  H    0.042125
    82  H    0.031498
    83  H    0.034671
    84  H    0.039521
    85  H    0.044300
    86  H    0.038430
    87  H    0.034829
    88  H    0.016778
    89  H    0.025315
    90  H    0.026737
    91  H    0.019030
    92  H    0.010594
    93  H    0.015542
    94  H    0.017186
    95  H    0.024691
    96  H    0.044708
    97  H    0.048300
    98  H    0.054078
    99  H    0.019902
   100  H    0.061517
   101  H    0.053946
   102  H    0.062110
   103  H    0.040030
   104  H    0.028476
   105  H    0.015330
   106  H    0.026357
   107  H    0.035479
   108  H    0.013635
   109  H    0.025746
   110  H    0.034530
   111  H    0.006518
   112  H    0.017635
   113  H    0.011277
   114  H    0.022742
   115  H    0.013109
   116  H    0.027811
   117  H    0.020350
   118  H    0.021449
   119  H    0.013208
   120  H    0.031768
   121  H    0.011731
   122  H    0.012062
   123  H    0.020834
   124  H    0.021464
   125  H    0.022976
   126  H    0.024873
   127  H    0.026353
   128  H    0.018124
   129  H    0.027934
   130  H    0.014522
   131  H    0.019510
   132  H    0.016817
   133  H    0.025331
   134  H    0.026570
   135  H    0.013269
   136  H    0.023980
   137  H    0.015415
   138  H    0.021267
   139  H    0.015703
   140  H    0.023312
 Sum of Mulliken charges =  -0.00000

 Dipole moment (field-independent basis, Debye):
    X=             -1.8997    Y=              3.3628    Z=             -8.0015  Tot=              8.8849
 N-N= 4.153442072760D+03 E-N= 0.000000000000D+00  KE=-8.981244372429D+03
 Leave Link  601 at Wed Apr 27 21:25:46 2022, MaxMem=  6710886400 cpu:               1.1 elap:               0.1
 (Enter /sw/apps/gaussian-16.0/g16/l9999.exe)
 1\1\GINC-BP1-COMPUTE179\SP\RZINDO CIS\STO-3G\C55H74Mg1N4O6\OF15641\27-
 Apr-2022\0\\#p ZINDO=(nstates=5)\\step_1301_chromophore_22 ZINDO\\0,1\
 Mg,0,7.961,49.102,24.951\C,0,6.046,48.908,28.078\C,0,10.628,50.305,26.
 769\C,0,9.707,48.848,22.253\C,0,4.988,48.324,23.169\N,0,8.248,49.485,2
 7.155\C,0,7.42,49.313,28.246\C,0,8.15,49.786,29.531\C,0,9.503,50.424,2
 8.987\C,0,9.472,50.026,27.517\C,0,9.397,51.982,29.136\C,0,8.385,48.645
 ,30.617\C,0,8.038,49.115,32.105\C,0,8.372,48.236,33.249\O,0,8.401,46.9

 Normal termination of Gaussian 16 at Wed Apr 27 21:25:46 2022.
