 Gaussian 16, Revision A.03,
 Gaussian 16:  ES64L-G16RevA.03 25-Dec-2016

 ------------------------------
 #p blyp/Def2SVP td=(nstates=5)
 ------------------------------

 -------------------------------------------------
 step_351_chromophore_7 TDDFT with blyp functional
 -------------------------------------------------
 Symbolic Z-matrix:
 Charge =  0 Multiplicity = 1

                         Standard orientation:
 ---------------------------------------------------------------------
 Center     Atomic      Atomic             Coordinates (Angstroms)
 Number     Number       Type             X           Y           Z
 ---------------------------------------------------------------------
      1         12           0        6.043858    0.653979    0.386331
      2          6           0        3.757986   -1.970052    0.269770
      3          6           0        3.717607    2.690068   -1.104274
      4          6           0        8.588319    3.057136    0.010864
      5          6           0        8.598774   -1.663856    1.229032
      6          7           0        3.877243    0.319870   -0.192079
      7          6           0        3.187013   -0.770514   -0.203450
      8          6           0        1.767316   -0.541183   -0.522009
      9          6           0        1.810805    0.928045   -1.187087
     10          6           0        3.300563    1.378065   -0.871453
     11          6           0        1.586775    1.016343   -2.722114
     12          6           0        0.863417   -0.696673    0.779251
     13          6           0       -0.076275   -1.920749    0.678200
     14          6           0       -1.597852   -1.920465    1.129867
     15          8           0       -1.986623   -1.697221    2.259348
     16          8           0       -2.472699   -2.090912    0.063666
     17          7           0        6.136900    2.561464   -0.354798
     18          6           0        5.050191    3.277946   -0.892796
     19          6           0        5.408933    4.618961   -1.143486
     20          6           0        6.836809    4.689364   -0.960883
     21          6           0        7.251630    3.393746   -0.466362
     22          6           0        4.430028    5.598472   -1.771390
     23          6           0        7.743452    5.827435   -1.291213
     24          8           0        8.937940    5.686479   -1.256620
     25          6           0        7.192386    7.178765   -1.580931
     26          7           0        8.258097    0.708308    0.583895
     27          6           0        9.050274    1.801956    0.478363
     28          6           0       10.528062    1.478403    0.830931
     29          6           0       10.439970    0.072351    1.411461
     30          6           0        9.000377   -0.311105    1.048501
     31          6           0       11.509915    1.624952   -0.309839
     32          6           0       10.603582    0.064774    2.988138
     33          6           0       10.862941   -1.351588    3.563737
     34          7           0        6.178522   -1.343616    0.809707
     35          6           0        7.306228   -2.171899    1.126450
     36          6           0        6.834067   -3.515451    1.286416
     37          6           0        5.455994   -3.494684    0.972259
     38          6           0        5.117860   -2.180552    0.678881
     39          6           0        7.763717   -4.617699    1.565049
     40          6           0        4.241092   -4.311037    0.818688
     41          8           0        4.005356   -5.492842    1.123958
     42          6           0        3.127508   -3.292234    0.424929
     43          6           0        2.629975   -3.772052   -0.932567
     44          8           0        3.152079   -3.479188   -2.019120
     45          8           0        1.527347   -4.531355   -0.701263
     46          6           0        0.680502   -5.002085   -1.859467
     47          6           0       -3.847581   -2.061381    0.502566
     48          6           0       -4.898159   -2.339140   -0.608170
     49          6           0       -5.325739   -1.580315   -1.602601
     50          6           0       -4.830843   -0.215153   -1.888968
     51          6           0       -6.420787   -2.042616   -2.566770
     52          6           0       -7.853341   -1.736432   -2.088234
     53          6           0       -8.752016   -1.289455   -3.293608
     54          6           0      -10.252799   -1.348570   -2.826022
     55          6           0      -11.167198   -1.560729   -4.070194
     56          6           0      -10.539606   -0.132046   -1.954472
     57          6           0      -11.755350   -0.425531   -1.021129
     58          6           0      -12.854724    0.592861   -1.260228
     59          6           0      -13.594438    0.759583    0.101884
     60          6           0      -15.024876    1.122585   -0.001768
     61          6           0      -12.828866    1.803080    0.952442
     62          6           0      -13.093655    1.647829    2.449895
     63          6           0      -13.969066    2.873821    2.940405
     64          6           0      -15.249173    2.406352    3.736810
     65          6           0      -16.512200    3.201936    3.119031
     66          6           0      -15.032835    2.585110    5.247882
     67          1           0        2.936708    3.223502   -1.650308
     68          1           0        9.291335    3.876724    0.178856
     69          1           0        9.348030   -2.400283    1.527481
     70          1           0        1.520935   -1.404560   -1.141117
     71          1           0        1.063595    1.543878   -0.686920
     72          1           0        1.599289    0.004085   -3.125938
     73          1           0        2.215491    1.736664   -3.246502
     74          1           0        0.593298    1.445813   -2.851914
     75          1           0        0.347195    0.247094    0.956319
     76          1           0        1.534011   -0.873341    1.619712
     77          1           0        0.252849   -2.608422    1.457529
     78          1           0       -0.038978   -2.406626   -0.296578
     79          1           0        4.214238    6.349788   -1.010672
     80          1           0        3.429420    5.245732   -2.021215
     81          1           0        4.851812    6.077124   -2.654757
     82          1           0        6.691573    7.151374   -2.548673
     83          1           0        7.994935    7.913174   -1.646757
     84          1           0        6.391555    7.512037   -0.920433
     85          1           0       10.845128    2.147734    1.630329
     86          1           0       11.043930   -0.680346    0.905096
     87          1           0       10.990285    2.046909   -1.170301
     88          1           0       12.003619    0.706151   -0.626973
     89          1           0       12.272958    2.359985   -0.054137
     90          1           0        9.709974    0.436056    3.491026
     91          1           0       11.465110    0.694762    3.207505
     92          1           0       10.079744   -1.633684    4.267417
     93          1           0       11.792886   -1.393157    4.130353
     94          1           0       11.034427   -2.142059    2.834084
     95          1           0        7.443120   -5.163716    2.451904
     96          1           0        8.824079   -4.483299    1.778279
     97          1           0        7.654257   -5.271707    0.700328
     98          1           0        2.366029   -3.278860    1.203914
     99          1           0        0.055983   -4.145993   -2.114753
    100          1           0        0.148236   -5.946215   -1.748316
    101          1           0        1.270280   -5.181314   -2.758497
    102          1           0       -4.175603   -1.215131    1.106670
    103          1           0       -3.924904   -2.963614    1.108855
    104          1           0       -5.386677   -3.300029   -0.449603
    105          1           0       -4.806656    0.404949   -0.993134
    106          1           0       -5.343740    0.339624   -2.674847
    107          1           0       -3.805090   -0.265021   -2.256635
    108          1           0       -6.351666   -3.127508   -2.644857
    109          1           0       -6.269045   -1.650155   -3.572392
    110          1           0       -7.808885   -0.953472   -1.331474
    111          1           0       -8.223135   -2.681408   -1.688361
    112          1           0       -8.627044   -1.902373   -4.186297
    113          1           0       -8.568240   -0.275902   -3.650351
    114          1           0      -10.253907   -2.270304   -2.244872
    115          1           0      -10.808842   -1.112262   -4.997534
    116          1           0      -12.174291   -1.199397   -3.864378
    117          1           0      -11.190364   -2.648556   -4.136680
    118          1           0      -10.789297    0.628087   -2.694903
    119          1           0       -9.690053    0.133350   -1.325613
    120          1           0      -11.438088   -0.284982    0.012207
    121          1           0      -12.150979   -1.420167   -1.226027
    122          1           0      -13.467252    0.179608   -2.061476
    123          1           0      -12.612309    1.616149   -1.547821
    124          1           0      -13.681599   -0.187135    0.634693
    125          1           0      -15.260420    1.224745   -1.061475
    126          1           0      -15.144443    2.138737    0.375326
    127          1           0      -15.623016    0.360515    0.497897
    128          1           0      -13.070040    2.793360    0.564367
    129          1           0      -11.751307    1.718886    0.809956
    130          1           0      -12.165008    1.690020    3.019284
    131          1           0      -13.471676    0.646520    2.653524
    132          1           0      -14.406808    3.530777    2.188470
    133          1           0      -13.379985    3.557075    3.550701
    134          1           0      -15.372906    1.346764    3.515331
    135          1           0      -16.991401    2.733068    2.259432
    136          1           0      -16.307934    4.249414    2.896464
    137          1           0      -17.279504    3.131455    3.890116
    138          1           0      -15.967720    2.929124    5.689625
    139          1           0      -14.256063    3.267227    5.593375
    140          1           0      -14.830418    1.675179    5.812943
 ---------------------------------------------------------------------

 SCF Done:  E(RB-LYP) =  -3007.37180243     A.U. after   23 cycles

 Excitation energies and oscillator strengths:

 Excited State   1:      Singlet-A      1.7610 eV  704.05 nm  f=0.0537  <S**2>=0.000
     244 -> 247        0.51328
     245 -> 247       -0.35588
     246 -> 247        0.31671
 This state for optimization and/or second-order correction.
 Total Energy, E(TD-HF/TD-DFT) =  -3007.30708663
 Copying the excited state density for this state as the 1-particle RhoCI density.

 Excited State   2:      Singlet-A      1.8245 eV  679.57 nm  f=0.2539  <S**2>=0.000
     244 -> 247       -0.27190
     245 -> 247        0.16828
     245 -> 248       -0.18904
     246 -> 247        0.60399
     246 <- 247       -0.12790

 Excited State   3:      Singlet-A      1.9746 eV  627.90 nm  f=0.0774  <S**2>=0.000
     243 -> 247        0.21886
     244 -> 247        0.38400
     245 -> 247        0.50834
     246 -> 248        0.18407

 Excited State   4:      Singlet-A      2.0192 eV  614.02 nm  f=0.0159  <S**2>=0.000
     243 -> 247        0.66664
     245 -> 247       -0.17943

 Excited State   5:      Singlet-A      2.3997 eV  516.66 nm  f=0.0004  <S**2>=0.000
     240 -> 247        0.69428
     242 -> 247       -0.13106

 The electronic state is 1-A.
 Alpha  occ. eigenvalues --  -46.27005 -18.82878 -18.82242 -18.77111 -18.77084
 Alpha  occ. eigenvalues --  -18.75930 -18.74728 -14.03041 -14.02771 -14.01240
 Alpha  occ. eigenvalues --  -14.00487 -10.04482 -10.04307 -10.00023  -9.98939
 Alpha  occ. eigenvalues --   -9.98513  -9.97469  -9.96405  -9.96302  -9.96121
 Alpha  occ. eigenvalues --   -9.96023  -9.95894  -9.95596  -9.95252  -9.94602
 Alpha  occ. eigenvalues --   -9.94536  -9.94322  -9.94165  -9.94020  -9.93919
 Alpha  occ. eigenvalues --   -9.93715  -9.93526  -9.93407  -9.93321  -9.93309
 Alpha  occ. eigenvalues --   -9.93209  -9.93074  -9.93006  -9.92697  -9.92649
 Alpha  occ. eigenvalues --   -9.92463  -9.92363  -9.92261  -9.92254  -9.92041
 Alpha  occ. eigenvalues --   -9.92005  -9.91952  -9.91912  -9.91721  -9.91498
 Alpha  occ. eigenvalues --   -9.91489  -9.91481  -9.91474  -9.91348  -9.91313
 Alpha  occ. eigenvalues --   -9.91245  -9.91216  -9.91025  -9.90790  -9.90770
 Alpha  occ. eigenvalues --   -9.90717  -9.90711  -9.90681  -9.90604  -9.90569
 Alpha  occ. eigenvalues --   -9.89911  -2.91584  -1.72014  -1.71481  -1.71282
 Alpha  occ. eigenvalues --   -0.98051  -0.97244  -0.92143  -0.90352  -0.90173
 Alpha  occ. eigenvalues --   -0.89554  -0.87073  -0.86453  -0.84719  -0.83838
 Alpha  occ. eigenvalues --   -0.75688  -0.73837  -0.73360  -0.72418  -0.72372
 Alpha  occ. eigenvalues --   -0.71914  -0.71303  -0.70717  -0.70386  -0.70298
 Alpha  occ. eigenvalues --   -0.69770  -0.68453  -0.67832  -0.67481  -0.66928
 Alpha  occ. eigenvalues --   -0.66202  -0.65797  -0.65208  -0.64892  -0.64503
 Alpha  occ. eigenvalues --   -0.64245  -0.62708  -0.62394  -0.61664  -0.60845
 Alpha  occ. eigenvalues --   -0.60383  -0.60006  -0.59844  -0.59557  -0.58592
 Alpha  occ. eigenvalues --   -0.58109  -0.57698  -0.56259  -0.55661  -0.54581
 Alpha  occ. eigenvalues --   -0.53890  -0.53171  -0.52432  -0.52375  -0.51795
 Alpha  occ. eigenvalues --   -0.51511  -0.51232  -0.50849  -0.50121  -0.49888
 Alpha  occ. eigenvalues --   -0.49711  -0.49144  -0.48387  -0.48284  -0.46296
 Alpha  occ. eigenvalues --   -0.46195  -0.45852  -0.45758  -0.45007  -0.44816
 Alpha  occ. eigenvalues --   -0.44484  -0.43402  -0.43163  -0.43053  -0.42265
 Alpha  occ. eigenvalues --   -0.42172  -0.41861  -0.41717  -0.41392  -0.41042
 Alpha  occ. eigenvalues --   -0.40909  -0.40803  -0.40166  -0.40048  -0.39809
 Alpha  occ. eigenvalues --   -0.39658  -0.39465  -0.39284  -0.39094  -0.39041
 Alpha  occ. eigenvalues --   -0.38871  -0.38695  -0.38459  -0.38363  -0.38064
 Alpha  occ. eigenvalues --   -0.38014  -0.37701  -0.37568  -0.37368  -0.37106
 Alpha  occ. eigenvalues --   -0.37096  -0.36791  -0.36534  -0.36419  -0.36320
 Alpha  occ. eigenvalues --   -0.36102  -0.35925  -0.35852  -0.35564  -0.35372
 Alpha  occ. eigenvalues --   -0.35232  -0.35040  -0.34853  -0.34722  -0.34537
 Alpha  occ. eigenvalues --   -0.34300  -0.34244  -0.34184  -0.34042  -0.33797
 Alpha  occ. eigenvalues --   -0.33674  -0.33606  -0.33392  -0.33164  -0.33141
 Alpha  occ. eigenvalues --   -0.32834  -0.32762  -0.32484  -0.32450  -0.32191
 Alpha  occ. eigenvalues --   -0.32130  -0.31934  -0.31856  -0.31735  -0.31567
 Alpha  occ. eigenvalues --   -0.31251  -0.31040  -0.30997  -0.30814  -0.30674
 Alpha  occ. eigenvalues --   -0.30450  -0.30334  -0.30277  -0.30094  -0.29855
 Alpha  occ. eigenvalues --   -0.29769  -0.29456  -0.29349  -0.29095  -0.28913
 Alpha  occ. eigenvalues --   -0.28898  -0.28311  -0.28223  -0.28122  -0.27863
 Alpha  occ. eigenvalues --   -0.27767  -0.27474  -0.27045  -0.26665  -0.26432
 Alpha  occ. eigenvalues --   -0.26334  -0.26007  -0.25955  -0.25572  -0.25018
 Alpha  occ. eigenvalues --   -0.25008  -0.24890  -0.23732  -0.23629  -0.23067
 Alpha  occ. eigenvalues --   -0.22740  -0.22324  -0.22227  -0.21676  -0.20457
 Alpha  occ. eigenvalues --   -0.20447  -0.20107  -0.18890  -0.18255  -0.16814
 Alpha  occ. eigenvalues --   -0.15999
 Alpha virt. eigenvalues --   -0.11637  -0.06637  -0.06139  -0.04223  -0.03177
 Alpha virt. eigenvalues --   -0.02626  -0.02194  -0.02168  -0.00939   0.00313
 Alpha virt. eigenvalues --    0.01224   0.01953   0.02724   0.02970   0.03014

 Mulliken charges:
               1
     1  Mg   0.696835
     2  C    0.035561
     3  C   -0.042283
     4  C   -0.043598
     5  C   -0.061946
     6  N   -0.173593
     7  C   -0.109379
     8  C   -0.001872
     9  C   -0.021621
    10  C    0.029896
    11  C    0.125897
    12  C    0.163021
    13  C    0.091330
    14  C    0.058978
    15  O   -0.187633
    16  O   -0.263381
    17  N   -0.332587
    18  C    0.150486
    19  C   -0.128252
    20  C    0.025849
    21  C    0.112685
    22  C    0.165266
    23  C   -0.096868
    24  O   -0.152203
    25  C    0.144879
    26  N   -0.161455
    27  C   -0.014044
    28  C    0.051607
    29  C   -0.005005
    30  C    0.010890
    31  C    0.145804
    32  C    0.103328
    33  C    0.065372
    34  N   -0.314718
    35  C    0.126850
    36  C   -0.154871
    37  C    0.110857
    38  C    0.073983
    39  C    0.156590
    40  C   -0.051669
    41  O   -0.145264
    42  C    0.035691
    43  C    0.129129
    44  O   -0.195717
    45  O   -0.263308
    46  C    0.210088
    47  C    0.317193
    48  C   -0.137236
    49  C   -0.127687
    50  C    0.153348
    51  C    0.150166
    52  C    0.075762
    53  C    0.065271
    54  C   -0.114560
    55  C    0.119634
    56  C    0.127650
    57  C    0.098055
    58  C    0.103387
    59  C   -0.138825
    60  C    0.163401
    61  C    0.090478
    62  C    0.115763
    63  C    0.093908
    64  C   -0.086053
    65  C    0.070072
    66  C    0.105420
    67  H   -0.056989
    68  H   -0.030648
    69  H   -0.080014
    70  H   -0.021634
    71  H   -0.019948
    72  H    0.008497
    73  H    0.000051
    74  H   -0.022992
    75  H   -0.010043
    76  H   -0.009228
    77  H    0.014593
    78  H   -0.001544
    79  H   -0.005604
    80  H   -0.017877
    81  H    0.004112
    82  H   -0.007469
    83  H   -0.007378
    84  H   -0.002973
    85  H   -0.031348
    86  H   -0.025871
    87  H   -0.004826
    88  H   -0.010651
    89  H   -0.011777
    90  H   -0.012535
    91  H   -0.011660
    92  H   -0.003511
    93  H   -0.021358
    94  H   -0.009144
    95  H    0.001280
    96  H   -0.014135
    97  H    0.015909
    98  H    0.006048
    99  H    0.018088
   100  H    0.035581
   101  H    0.013880
   102  H    0.008718
   103  H   -0.026524
   104  H   -0.039908
   105  H   -0.006737
   106  H   -0.018247
   107  H    0.000485
   108  H   -0.035575
   109  H   -0.031052
   110  H   -0.012655
   111  H   -0.019890
   112  H   -0.040287
   113  H   -0.037195
   114  H   -0.042742
   115  H   -0.006970
   116  H   -0.022940
   117  H   -0.014224
   118  H   -0.031601
   119  H   -0.033691
   120  H   -0.028115
   121  H   -0.022616
   122  H   -0.042866
   123  H   -0.031758
   124  H   -0.047722
   125  H   -0.039720
   126  H   -0.030372
   127  H   -0.008572
   128  H   -0.031850
   129  H   -0.048408
   130  H   -0.037289
   131  H   -0.026440
   132  H   -0.033093
   133  H   -0.037385
   134  H   -0.032288
   135  H   -0.003654
   136  H   -0.002727
   137  H   -0.026213
   138  H   -0.031545
   139  H   -0.016732
   140  H   -0.021233
 Sum of Mulliken charges =  -0.00000

 Dipole moment (field-independent basis, Debye):
    X=             -2.2744    Y=              1.9308    Z=             -0.5742  Tot=              3.0382
 Quadrupole moment (field-independent basis, Debye-Ang):
   XX=           -387.8469   YY=           -416.8082   ZZ=           -407.3629
   XY=             -4.4458   XZ=             31.4645   YZ=              5.6030

 Normal termination of Gaussian 16 at Fri Apr 29 16:28:21 2022.
