 Gaussian 16, Revision A.03,
 Gaussian 16:  ES64L-G16RevA.03 25-Dec-2016

 -----------------------------------
 #p cam-b3lyp/Def2SVP td=(nstates=5)
 -----------------------------------

 ------------------------------------------------------
 step_351_chromophore_7 TDDFT with cam-b3lyp functional
 ------------------------------------------------------
 Symbolic Z-matrix:
 Charge =  0 Multiplicity = 1

                         Standard orientation:
 ---------------------------------------------------------------------
 Center     Atomic      Atomic             Coordinates (Angstroms)
 Number     Number       Type             X           Y           Z
 ---------------------------------------------------------------------
      1         12           0        6.043858    0.653979    0.386331
      2          6           0        3.757986   -1.970052    0.269770
      3          6           0        3.717607    2.690068   -1.104274
      4          6           0        8.588319    3.057136    0.010864
      5          6           0        8.598774   -1.663856    1.229032
      6          7           0        3.877243    0.319870   -0.192079
      7          6           0        3.187013   -0.770514   -0.203450
      8          6           0        1.767316   -0.541183   -0.522009
      9          6           0        1.810805    0.928045   -1.187087
     10          6           0        3.300563    1.378065   -0.871453
     11          6           0        1.586775    1.016343   -2.722114
     12          6           0        0.863417   -0.696673    0.779251
     13          6           0       -0.076275   -1.920749    0.678200
     14          6           0       -1.597852   -1.920465    1.129867
     15          8           0       -1.986623   -1.697221    2.259348
     16          8           0       -2.472699   -2.090912    0.063666
     17          7           0        6.136900    2.561464   -0.354798
     18          6           0        5.050191    3.277946   -0.892796
     19          6           0        5.408933    4.618961   -1.143486
     20          6           0        6.836809    4.689364   -0.960883
     21          6           0        7.251630    3.393746   -0.466362
     22          6           0        4.430028    5.598472   -1.771390
     23          6           0        7.743452    5.827435   -1.291213
     24          8           0        8.937940    5.686479   -1.256620
     25          6           0        7.192386    7.178765   -1.580931
     26          7           0        8.258097    0.708308    0.583895
     27          6           0        9.050274    1.801956    0.478363
     28          6           0       10.528062    1.478403    0.830931
     29          6           0       10.439970    0.072351    1.411461
     30          6           0        9.000377   -0.311105    1.048501
     31          6           0       11.509915    1.624952   -0.309839
     32          6           0       10.603582    0.064774    2.988138
     33          6           0       10.862941   -1.351588    3.563737
     34          7           0        6.178522   -1.343616    0.809707
     35          6           0        7.306228   -2.171899    1.126450
     36          6           0        6.834067   -3.515451    1.286416
     37          6           0        5.455994   -3.494684    0.972259
     38          6           0        5.117860   -2.180552    0.678881
     39          6           0        7.763717   -4.617699    1.565049
     40          6           0        4.241092   -4.311037    0.818688
     41          8           0        4.005356   -5.492842    1.123958
     42          6           0        3.127508   -3.292234    0.424929
     43          6           0        2.629975   -3.772052   -0.932567
     44          8           0        3.152079   -3.479188   -2.019120
     45          8           0        1.527347   -4.531355   -0.701263
     46          6           0        0.680502   -5.002085   -1.859467
     47          6           0       -3.847581   -2.061381    0.502566
     48          6           0       -4.898159   -2.339140   -0.608170
     49          6           0       -5.325739   -1.580315   -1.602601
     50          6           0       -4.830843   -0.215153   -1.888968
     51          6           0       -6.420787   -2.042616   -2.566770
     52          6           0       -7.853341   -1.736432   -2.088234
     53          6           0       -8.752016   -1.289455   -3.293608
     54          6           0      -10.252799   -1.348570   -2.826022
     55          6           0      -11.167198   -1.560729   -4.070194
     56          6           0      -10.539606   -0.132046   -1.954472
     57          6           0      -11.755350   -0.425531   -1.021129
     58          6           0      -12.854724    0.592861   -1.260228
     59          6           0      -13.594438    0.759583    0.101884
     60          6           0      -15.024876    1.122585   -0.001768
     61          6           0      -12.828866    1.803080    0.952442
     62          6           0      -13.093655    1.647829    2.449895
     63          6           0      -13.969066    2.873821    2.940405
     64          6           0      -15.249173    2.406352    3.736810
     65          6           0      -16.512200    3.201936    3.119031
     66          6           0      -15.032835    2.585110    5.247882
     67          1           0        2.936708    3.223502   -1.650308
     68          1           0        9.291335    3.876724    0.178856
     69          1           0        9.348030   -2.400283    1.527481
     70          1           0        1.520935   -1.404560   -1.141117
     71          1           0        1.063595    1.543878   -0.686920
     72          1           0        1.599289    0.004085   -3.125938
     73          1           0        2.215491    1.736664   -3.246502
     74          1           0        0.593298    1.445813   -2.851914
     75          1           0        0.347195    0.247094    0.956319
     76          1           0        1.534011   -0.873341    1.619712
     77          1           0        0.252849   -2.608422    1.457529
     78          1           0       -0.038978   -2.406626   -0.296578
     79          1           0        4.214238    6.349788   -1.010672
     80          1           0        3.429420    5.245732   -2.021215
     81          1           0        4.851812    6.077124   -2.654757
     82          1           0        6.691573    7.151374   -2.548673
     83          1           0        7.994935    7.913174   -1.646757
     84          1           0        6.391555    7.512037   -0.920433
     85          1           0       10.845128    2.147734    1.630329
     86          1           0       11.043930   -0.680346    0.905096
     87          1           0       10.990285    2.046909   -1.170301
     88          1           0       12.003619    0.706151   -0.626973
     89          1           0       12.272958    2.359985   -0.054137
     90          1           0        9.709974    0.436056    3.491026
     91          1           0       11.465110    0.694762    3.207505
     92          1           0       10.079744   -1.633684    4.267417
     93          1           0       11.792886   -1.393157    4.130353
     94          1           0       11.034427   -2.142059    2.834084
     95          1           0        7.443120   -5.163716    2.451904
     96          1           0        8.824079   -4.483299    1.778279
     97          1           0        7.654257   -5.271707    0.700328
     98          1           0        2.366029   -3.278860    1.203914
     99          1           0        0.055983   -4.145993   -2.114753
    100          1           0        0.148236   -5.946215   -1.748316
    101          1           0        1.270280   -5.181314   -2.758497
    102          1           0       -4.175603   -1.215131    1.106670
    103          1           0       -3.924904   -2.963614    1.108855
    104          1           0       -5.386677   -3.300029   -0.449603
    105          1           0       -4.806656    0.404949   -0.993134
    106          1           0       -5.343740    0.339624   -2.674847
    107          1           0       -3.805090   -0.265021   -2.256635
    108          1           0       -6.351666   -3.127508   -2.644857
    109          1           0       -6.269045   -1.650155   -3.572392
    110          1           0       -7.808885   -0.953472   -1.331474
    111          1           0       -8.223135   -2.681408   -1.688361
    112          1           0       -8.627044   -1.902373   -4.186297
    113          1           0       -8.568240   -0.275902   -3.650351
    114          1           0      -10.253907   -2.270304   -2.244872
    115          1           0      -10.808842   -1.112262   -4.997534
    116          1           0      -12.174291   -1.199397   -3.864378
    117          1           0      -11.190364   -2.648556   -4.136680
    118          1           0      -10.789297    0.628087   -2.694903
    119          1           0       -9.690053    0.133350   -1.325613
    120          1           0      -11.438088   -0.284982    0.012207
    121          1           0      -12.150979   -1.420167   -1.226027
    122          1           0      -13.467252    0.179608   -2.061476
    123          1           0      -12.612309    1.616149   -1.547821
    124          1           0      -13.681599   -0.187135    0.634693
    125          1           0      -15.260420    1.224745   -1.061475
    126          1           0      -15.144443    2.138737    0.375326
    127          1           0      -15.623016    0.360515    0.497897
    128          1           0      -13.070040    2.793360    0.564367
    129          1           0      -11.751307    1.718886    0.809956
    130          1           0      -12.165008    1.690020    3.019284
    131          1           0      -13.471676    0.646520    2.653524
    132          1           0      -14.406808    3.530777    2.188470
    133          1           0      -13.379985    3.557075    3.550701
    134          1           0      -15.372906    1.346764    3.515331
    135          1           0      -16.991401    2.733068    2.259432
    136          1           0      -16.307934    4.249414    2.896464
    137          1           0      -17.279504    3.131455    3.890116
    138          1           0      -15.967720    2.929124    5.689625
    139          1           0      -14.256063    3.267227    5.593375
    140          1           0      -14.830418    1.675179    5.812943
 ---------------------------------------------------------------------

 SCF Done:  E(RCAM-B3LYP) =  -3007.16482048     A.U. after   19 cycles

 Excitation energies and oscillator strengths:

 Excited State   1:      Singlet-A      1.7309 eV  716.29 nm  f=0.3721  <S**2>=0.000
     245 -> 248       -0.18784
     246 -> 247        0.68302
     245 <- 248       -0.10879
 This state for optimization and/or second-order correction.
 Total Energy, E(TD-HF/TD-DFT) =  -3007.10121064
 Copying the excited state density for this state as the 1-particle RhoCI density.

 Excited State   2:      Singlet-A      2.1353 eV  580.64 nm  f=0.1814  <S**2>=0.000
     245 -> 247        0.66065
     246 -> 248        0.23928

 Excited State   3:      Singlet-A      3.2485 eV  381.67 nm  f=0.0005  <S**2>=0.000
     242 -> 247        0.29370
     243 -> 247       -0.36989
     244 -> 247        0.50702

 Excited State   4:      Singlet-A      3.3860 eV  366.17 nm  f=0.0032  <S**2>=0.000
     239 -> 247        0.53608
     239 -> 249       -0.32478
     240 -> 247       -0.19974
     240 -> 249        0.10432
     242 -> 247        0.10024

 Excited State   5:      Singlet-A      3.4134 eV  363.23 nm  f=0.0031  <S**2>=0.000
     239 -> 247        0.11708
     242 -> 247       -0.27718
     243 -> 247        0.37748
     244 -> 247        0.46471
     246 -> 248       -0.17736

 The electronic state is 1-A.
 Alpha  occ. eigenvalues --  -46.88511 -19.26024 -19.25140 -19.20364 -19.20190
 Alpha  occ. eigenvalues --  -19.19577 -19.17568 -14.42025 -14.41452 -14.39453
 Alpha  occ. eigenvalues --  -14.39013 -10.40163 -10.39766 -10.35797 -10.33681
 Alpha  occ. eigenvalues --  -10.32790 -10.31562 -10.31057 -10.30811 -10.30617
 Alpha  occ. eigenvalues --  -10.30190 -10.30005 -10.29855 -10.29365 -10.29352
 Alpha  occ. eigenvalues --  -10.29011 -10.28519 -10.28351 -10.28298 -10.28254
 Alpha  occ. eigenvalues --  -10.28213 -10.27467 -10.27431 -10.27211 -10.27176
 Alpha  occ. eigenvalues --  -10.27147 -10.27103 -10.27038 -10.26829 -10.26618
 Alpha  occ. eigenvalues --  -10.26512 -10.26420 -10.26046 -10.26019 -10.25852
 Alpha  occ. eigenvalues --  -10.25821 -10.25693 -10.25655 -10.25539 -10.25438
 Alpha  occ. eigenvalues --  -10.25299 -10.25241 -10.25226 -10.25032 -10.25025
 Alpha  occ. eigenvalues --  -10.24894 -10.24825 -10.24672 -10.24489 -10.24416
 Alpha  occ. eigenvalues --  -10.24374 -10.24364 -10.24311 -10.24246 -10.24149
 Alpha  occ. eigenvalues --  -10.23451  -3.16991  -1.91899  -1.91447  -1.91289
 Alpha  occ. eigenvalues --   -1.16586  -1.15927  -1.10254  -1.09107  -1.08115
 Alpha  occ. eigenvalues --   -1.07667  -1.04838  -1.04223  -1.02582  -1.00912
 Alpha  occ. eigenvalues --   -0.93056  -0.90734  -0.90209  -0.89216  -0.89112
 Alpha  occ. eigenvalues --   -0.88623  -0.87953  -0.87326  -0.87095  -0.86847
 Alpha  occ. eigenvalues --   -0.86086  -0.84747  -0.84061  -0.83766  -0.83025
 Alpha  occ. eigenvalues --   -0.82227  -0.81831  -0.81088  -0.80710  -0.80372
 Alpha  occ. eigenvalues --   -0.80044  -0.78485  -0.77884  -0.77174  -0.76353
 Alpha  occ. eigenvalues --   -0.75751  -0.75361  -0.75163  -0.74844  -0.73790
 Alpha  occ. eigenvalues --   -0.73191  -0.72757  -0.71113  -0.70502  -0.69282
 Alpha  occ. eigenvalues --   -0.68580  -0.67677  -0.66734  -0.66691  -0.65871
 Alpha  occ. eigenvalues --   -0.65672  -0.65492  -0.64799  -0.64156  -0.63942
 Alpha  occ. eigenvalues --   -0.63525  -0.63109  -0.62250  -0.62162  -0.59978
 Alpha  occ. eigenvalues --   -0.59845  -0.59347  -0.59266  -0.58671  -0.58366
 Alpha  occ. eigenvalues --   -0.57834  -0.56781  -0.56386  -0.56247  -0.55592
 Alpha  occ. eigenvalues --   -0.55054  -0.54951  -0.54884  -0.54569  -0.54091
 Alpha  occ. eigenvalues --   -0.53869  -0.53485  -0.53229  -0.52864  -0.52584
 Alpha  occ. eigenvalues --   -0.52274  -0.52204  -0.51770  -0.51608  -0.51486
 Alpha  occ. eigenvalues --   -0.51377  -0.51343  -0.51142  -0.50787  -0.50411
 Alpha  occ. eigenvalues --   -0.50303  -0.50161  -0.50123  -0.49754  -0.49558
 Alpha  occ. eigenvalues --   -0.49323  -0.49198  -0.48904  -0.48685  -0.48626
 Alpha  occ. eigenvalues --   -0.48335  -0.48153  -0.47923  -0.47807  -0.47398
 Alpha  occ. eigenvalues --   -0.47236  -0.47047  -0.46827  -0.46632  -0.46463
 Alpha  occ. eigenvalues --   -0.46354  -0.46115  -0.45963  -0.45882  -0.45707
 Alpha  occ. eigenvalues --   -0.45500  -0.45320  -0.45213  -0.44957  -0.44812
 Alpha  occ. eigenvalues --   -0.44788  -0.44606  -0.44215  -0.44062  -0.43995
 Alpha  occ. eigenvalues --   -0.43746  -0.43629  -0.43379  -0.43223  -0.43107
 Alpha  occ. eigenvalues --   -0.43014  -0.42660  -0.42266  -0.42184  -0.41862
 Alpha  occ. eigenvalues --   -0.41740  -0.41681  -0.41561  -0.41487  -0.41239
 Alpha  occ. eigenvalues --   -0.41121  -0.40933  -0.40605  -0.40564  -0.40092
 Alpha  occ. eigenvalues --   -0.40061  -0.39412  -0.39228  -0.39082  -0.38866
 Alpha  occ. eigenvalues --   -0.38658  -0.38313  -0.37858  -0.37759  -0.37450
 Alpha  occ. eigenvalues --   -0.37295  -0.37058  -0.36733  -0.36471  -0.36435
 Alpha  occ. eigenvalues --   -0.36041  -0.35484  -0.34823  -0.34409  -0.34065
 Alpha  occ. eigenvalues --   -0.33931  -0.33014  -0.32999  -0.31316  -0.30882
 Alpha  occ. eigenvalues --   -0.30316  -0.30124  -0.29916  -0.29092  -0.23447
 Alpha  occ. eigenvalues --   -0.21442
 Alpha virt. eigenvalues --   -0.08896  -0.01405   0.00303   0.02591   0.03025
 Alpha virt. eigenvalues --    0.04586   0.05000   0.05237   0.06507   0.06878
 Alpha virt. eigenvalues --    0.08137   0.08601   0.08946   0.09151   0.09246

 Mulliken charges:
               1
     1  Mg   0.827692
     2  C   -0.004219
     3  C   -0.049169
     4  C   -0.049965
     5  C   -0.072438
     6  N   -0.247326
     7  C   -0.049975
     8  C   -0.052382
     9  C   -0.070089
    10  C    0.040063
    11  C    0.068826
    12  C    0.110328
    13  C    0.024228
    14  C    0.145309
    15  O   -0.227663
    16  O   -0.326561
    17  N   -0.417545
    18  C    0.152126
    19  C   -0.135196
    20  C   -0.046538
    21  C    0.132385
    22  C    0.105440
    23  C   -0.018840
    24  O   -0.196448
    25  C    0.060466
    26  N   -0.227893
    27  C   -0.002591
    28  C   -0.004453
    29  C   -0.061174
    30  C    0.034880
    31  C    0.083792
    32  C    0.048793
    33  C    0.000506
    34  N   -0.406701
    35  C    0.137878
    36  C   -0.149841
    37  C    0.029455
    38  C    0.122670
    39  C    0.102274
    40  C    0.052728
    41  O   -0.179212
    42  C   -0.039301
    43  C    0.212024
    44  O   -0.232299
    45  O   -0.327642
    46  C    0.173959
    47  C    0.280304
    48  C   -0.154036
    49  C   -0.151952
    50  C    0.086814
    51  C    0.091633
    52  C    0.024082
    53  C    0.012889
    54  C   -0.169734
    55  C    0.062918
    56  C    0.073673
    57  C    0.040295
    58  C    0.051735
    59  C   -0.192542
    60  C    0.103052
    61  C    0.034393
    62  C    0.058004
    63  C    0.041029
    64  C   -0.145431
    65  C    0.014198
    66  C    0.046196
    67  H   -0.026163
    68  H    0.008237
    69  H   -0.043017
    70  H    0.010080
    71  H    0.013320
    72  H    0.031568
    73  H    0.025638
    74  H    0.001364
    75  H    0.021716
    76  H    0.023539
    77  H    0.042460
    78  H    0.025766
    79  H    0.018861
    80  H    0.009520
    81  H    0.025994
    82  H    0.019534
    83  H    0.026719
    84  H    0.025319
    85  H    0.005298
    86  H    0.009723
    87  H    0.023004
    88  H    0.013234
    89  H    0.012997
    90  H    0.017245
    91  H    0.017430
    92  H    0.020754
    93  H    0.005592
    94  H    0.010987
    95  H    0.030373
    96  H    0.014466
    97  H    0.043524
    98  H    0.047425
    99  H    0.038560
   100  H    0.058758
   101  H    0.040310
   102  H    0.036576
   103  H    0.004258
   104  H   -0.008305
   105  H    0.017686
   106  H    0.007988
   107  H    0.027153
   108  H   -0.004370
   109  H   -0.000496
   110  H    0.013375
   111  H    0.007521
   112  H   -0.009970
   113  H   -0.009474
   114  H   -0.011798
   115  H    0.016521
   116  H   -0.000954
   117  H    0.010262
   118  H   -0.003453
   119  H   -0.004251
   120  H    0.000056
   121  H    0.006147
   122  H   -0.014247
   123  H   -0.003407
   124  H   -0.015230
   125  H   -0.012019
   126  H   -0.008339
   127  H    0.014489
   128  H   -0.003515
   129  H   -0.018356
   130  H   -0.006006
   131  H    0.000562
   132  H   -0.006750
   133  H   -0.008088
   134  H   -0.001378
   135  H    0.019291
   136  H    0.019396
   137  H   -0.002340
   138  H   -0.007179
   139  H    0.006943
   140  H    0.003684
 Sum of Mulliken charges =  -0.00000

 Dipole moment (field-independent basis, Debye):
    X=             -2.2801    Y=              1.3062    Z=             -0.4253  Tot=              2.6619
 Quadrupole moment (field-independent basis, Debye-Ang):
   XX=           -385.9095   YY=           -413.3179   ZZ=           -406.9042
   XY=             -8.8378   XZ=             34.2462   YZ=              5.1109

 Normal termination of Gaussian 16 at Fri Apr 29 15:31:58 2022.
