 Gaussian 16, Revision A.03,
 Gaussian 16:  ES64L-G16RevA.03 25-Dec-2016

 ---------------------------------
 #p PBE1PBE/Def2SVP td=(nstates=5)
 ---------------------------------

 ----------------------------------------------------
 step_351_chromophore_7 TDDFT with PBE1PBE functional
 ----------------------------------------------------
 Symbolic Z-matrix:
 Charge =  0 Multiplicity = 1

                         Standard orientation:
 ---------------------------------------------------------------------
 Center     Atomic      Atomic             Coordinates (Angstroms)
 Number     Number       Type             X           Y           Z
 ---------------------------------------------------------------------
      1         12           0        6.043858    0.653979    0.386331
      2          6           0        3.757986   -1.970052    0.269770
      3          6           0        3.717607    2.690068   -1.104274
      4          6           0        8.588319    3.057136    0.010864
      5          6           0        8.598774   -1.663856    1.229032
      6          7           0        3.877243    0.319870   -0.192079
      7          6           0        3.187013   -0.770514   -0.203450
      8          6           0        1.767316   -0.541183   -0.522009
      9          6           0        1.810805    0.928045   -1.187087
     10          6           0        3.300563    1.378065   -0.871453
     11          6           0        1.586775    1.016343   -2.722114
     12          6           0        0.863417   -0.696673    0.779251
     13          6           0       -0.076275   -1.920749    0.678200
     14          6           0       -1.597852   -1.920465    1.129867
     15          8           0       -1.986623   -1.697221    2.259348
     16          8           0       -2.472699   -2.090912    0.063666
     17          7           0        6.136900    2.561464   -0.354798
     18          6           0        5.050191    3.277946   -0.892796
     19          6           0        5.408933    4.618961   -1.143486
     20          6           0        6.836809    4.689364   -0.960883
     21          6           0        7.251630    3.393746   -0.466362
     22          6           0        4.430028    5.598472   -1.771390
     23          6           0        7.743452    5.827435   -1.291213
     24          8           0        8.937940    5.686479   -1.256620
     25          6           0        7.192386    7.178765   -1.580931
     26          7           0        8.258097    0.708308    0.583895
     27          6           0        9.050274    1.801956    0.478363
     28          6           0       10.528062    1.478403    0.830931
     29          6           0       10.439970    0.072351    1.411461
     30          6           0        9.000377   -0.311105    1.048501
     31          6           0       11.509915    1.624952   -0.309839
     32          6           0       10.603582    0.064774    2.988138
     33          6           0       10.862941   -1.351588    3.563737
     34          7           0        6.178522   -1.343616    0.809707
     35          6           0        7.306228   -2.171899    1.126450
     36          6           0        6.834067   -3.515451    1.286416
     37          6           0        5.455994   -3.494684    0.972259
     38          6           0        5.117860   -2.180552    0.678881
     39          6           0        7.763717   -4.617699    1.565049
     40          6           0        4.241092   -4.311037    0.818688
     41          8           0        4.005356   -5.492842    1.123958
     42          6           0        3.127508   -3.292234    0.424929
     43          6           0        2.629975   -3.772052   -0.932567
     44          8           0        3.152079   -3.479188   -2.019120
     45          8           0        1.527347   -4.531355   -0.701263
     46          6           0        0.680502   -5.002085   -1.859467
     47          6           0       -3.847581   -2.061381    0.502566
     48          6           0       -4.898159   -2.339140   -0.608170
     49          6           0       -5.325739   -1.580315   -1.602601
     50          6           0       -4.830843   -0.215153   -1.888968
     51          6           0       -6.420787   -2.042616   -2.566770
     52          6           0       -7.853341   -1.736432   -2.088234
     53          6           0       -8.752016   -1.289455   -3.293608
     54          6           0      -10.252799   -1.348570   -2.826022
     55          6           0      -11.167198   -1.560729   -4.070194
     56          6           0      -10.539606   -0.132046   -1.954472
     57          6           0      -11.755350   -0.425531   -1.021129
     58          6           0      -12.854724    0.592861   -1.260228
     59          6           0      -13.594438    0.759583    0.101884
     60          6           0      -15.024876    1.122585   -0.001768
     61          6           0      -12.828866    1.803080    0.952442
     62          6           0      -13.093655    1.647829    2.449895
     63          6           0      -13.969066    2.873821    2.940405
     64          6           0      -15.249173    2.406352    3.736810
     65          6           0      -16.512200    3.201936    3.119031
     66          6           0      -15.032835    2.585110    5.247882
     67          1           0        2.936708    3.223502   -1.650308
     68          1           0        9.291335    3.876724    0.178856
     69          1           0        9.348030   -2.400283    1.527481
     70          1           0        1.520935   -1.404560   -1.141117
     71          1           0        1.063595    1.543878   -0.686920
     72          1           0        1.599289    0.004085   -3.125938
     73          1           0        2.215491    1.736664   -3.246502
     74          1           0        0.593298    1.445813   -2.851914
     75          1           0        0.347195    0.247094    0.956319
     76          1           0        1.534011   -0.873341    1.619712
     77          1           0        0.252849   -2.608422    1.457529
     78          1           0       -0.038978   -2.406626   -0.296578
     79          1           0        4.214238    6.349788   -1.010672
     80          1           0        3.429420    5.245732   -2.021215
     81          1           0        4.851812    6.077124   -2.654757
     82          1           0        6.691573    7.151374   -2.548673
     83          1           0        7.994935    7.913174   -1.646757
     84          1           0        6.391555    7.512037   -0.920433
     85          1           0       10.845128    2.147734    1.630329
     86          1           0       11.043930   -0.680346    0.905096
     87          1           0       10.990285    2.046909   -1.170301
     88          1           0       12.003619    0.706151   -0.626973
     89          1           0       12.272958    2.359985   -0.054137
     90          1           0        9.709974    0.436056    3.491026
     91          1           0       11.465110    0.694762    3.207505
     92          1           0       10.079744   -1.633684    4.267417
     93          1           0       11.792886   -1.393157    4.130353
     94          1           0       11.034427   -2.142059    2.834084
     95          1           0        7.443120   -5.163716    2.451904
     96          1           0        8.824079   -4.483299    1.778279
     97          1           0        7.654257   -5.271707    0.700328
     98          1           0        2.366029   -3.278860    1.203914
     99          1           0        0.055983   -4.145993   -2.114753
    100          1           0        0.148236   -5.946215   -1.748316
    101          1           0        1.270280   -5.181314   -2.758497
    102          1           0       -4.175603   -1.215131    1.106670
    103          1           0       -3.924904   -2.963614    1.108855
    104          1           0       -5.386677   -3.300029   -0.449603
    105          1           0       -4.806656    0.404949   -0.993134
    106          1           0       -5.343740    0.339624   -2.674847
    107          1           0       -3.805090   -0.265021   -2.256635
    108          1           0       -6.351666   -3.127508   -2.644857
    109          1           0       -6.269045   -1.650155   -3.572392
    110          1           0       -7.808885   -0.953472   -1.331474
    111          1           0       -8.223135   -2.681408   -1.688361
    112          1           0       -8.627044   -1.902373   -4.186297
    113          1           0       -8.568240   -0.275902   -3.650351
    114          1           0      -10.253907   -2.270304   -2.244872
    115          1           0      -10.808842   -1.112262   -4.997534
    116          1           0      -12.174291   -1.199397   -3.864378
    117          1           0      -11.190364   -2.648556   -4.136680
    118          1           0      -10.789297    0.628087   -2.694903
    119          1           0       -9.690053    0.133350   -1.325613
    120          1           0      -11.438088   -0.284982    0.012207
    121          1           0      -12.150979   -1.420167   -1.226027
    122          1           0      -13.467252    0.179608   -2.061476
    123          1           0      -12.612309    1.616149   -1.547821
    124          1           0      -13.681599   -0.187135    0.634693
    125          1           0      -15.260420    1.224745   -1.061475
    126          1           0      -15.144443    2.138737    0.375326
    127          1           0      -15.623016    0.360515    0.497897
    128          1           0      -13.070040    2.793360    0.564367
    129          1           0      -11.751307    1.718886    0.809956
    130          1           0      -12.165008    1.690020    3.019284
    131          1           0      -13.471676    0.646520    2.653524
    132          1           0      -14.406808    3.530777    2.188470
    133          1           0      -13.379985    3.557075    3.550701
    134          1           0      -15.372906    1.346764    3.515331
    135          1           0      -16.991401    2.733068    2.259432
    136          1           0      -16.307934    4.249414    2.896464
    137          1           0      -17.279504    3.131455    3.890116
    138          1           0      -15.967720    2.929124    5.689625
    139          1           0      -14.256063    3.267227    5.593375
    140          1           0      -14.830418    1.675179    5.812943
 ---------------------------------------------------------------------

 SCF Done:  E(RPBE1PBE) =  -3005.35382034     A.U. after   15 cycles

 Excitation energies and oscillator strengths:

 Excited State   1:      Singlet-A      1.8672 eV  664.01 nm  f=0.3543  <S**2>=0.000
     245 -> 248       -0.18548
     246 -> 247        0.68837
     246 <- 247       -0.10101
 This state for optimization and/or second-order correction.
 Total Energy, E(TD-HF/TD-DFT) =  -3005.28520173
 Copying the excited state density for this state as the 1-particle RhoCI density.

 Excited State   2:      Singlet-A      2.1390 eV  579.63 nm  f=0.1658  <S**2>=0.000
     245 -> 247        0.66764
     246 -> 248        0.21855

 Excited State   3:      Singlet-A      2.9189 eV  424.77 nm  f=0.0009  <S**2>=0.000
     242 -> 247        0.12542
     244 -> 247        0.68560

 Excited State   4:      Singlet-A      2.9747 eV  416.80 nm  f=0.0009  <S**2>=0.000
     240 -> 247        0.64579
     240 -> 249       -0.19048
     242 -> 247       -0.14906

 Excited State   5:      Singlet-A      3.0063 eV  412.42 nm  f=0.0020  <S**2>=0.000
     243 -> 247        0.67577

 The electronic state is 1-A.
 Alpha  occ. eigenvalues --  -46.91931 -19.26574 -19.25819 -19.20509 -19.20450
 Alpha  occ. eigenvalues --  -19.19560 -19.18017 -14.41428 -14.41009 -14.39325
 Alpha  occ. eigenvalues --  -14.38612 -10.37105 -10.36814 -10.32745 -10.31022
 Alpha  occ. eigenvalues --  -10.29921 -10.28954 -10.28574 -10.28561 -10.28288
 Alpha  occ. eigenvalues --  -10.28114 -10.27898 -10.27480 -10.27399 -10.26748
 Alpha  occ. eigenvalues --  -10.26411 -10.26252 -10.26086 -10.25944 -10.25764
 Alpha  occ. eigenvalues --  -10.25688 -10.25314 -10.25304 -10.25196 -10.25030
 Alpha  occ. eigenvalues --  -10.24865 -10.24730 -10.24525 -10.24454 -10.24302
 Alpha  occ. eigenvalues --  -10.24248 -10.23907 -10.23717 -10.23604 -10.23473
 Alpha  occ. eigenvalues --  -10.23386 -10.23267 -10.23033 -10.22996 -10.22950
 Alpha  occ. eigenvalues --  -10.22898 -10.22848 -10.22703 -10.22621 -10.22540
 Alpha  occ. eigenvalues --  -10.22451 -10.22229 -10.22101 -10.22092 -10.22073
 Alpha  occ. eigenvalues --  -10.21958 -10.21920 -10.21895 -10.21809 -10.21529
 Alpha  occ. eigenvalues --  -10.20803  -3.13992  -1.86840  -1.86364  -1.86215
 Alpha  occ. eigenvalues --   -1.11390  -1.10574  -1.05231  -1.03603  -1.02981
 Alpha  occ. eigenvalues --   -1.02364  -0.99446  -0.98789  -0.97034  -0.95851
 Alpha  occ. eigenvalues --   -0.87278  -0.84839  -0.84322  -0.83397  -0.83345
 Alpha  occ. eigenvalues --   -0.82736  -0.82271  -0.81620  -0.81317  -0.80944
 Alpha  occ. eigenvalues --   -0.80554  -0.79010  -0.78261  -0.77945  -0.77332
 Alpha  occ. eigenvalues --   -0.76413  -0.76071  -0.75385  -0.74938  -0.74659
 Alpha  occ. eigenvalues --   -0.74212  -0.72730  -0.72295  -0.71494  -0.70638
 Alpha  occ. eigenvalues --   -0.69896  -0.69483  -0.69434  -0.69018  -0.67973
 Alpha  occ. eigenvalues --   -0.67570  -0.67100  -0.65564  -0.64789  -0.63522
 Alpha  occ. eigenvalues --   -0.63026  -0.61893  -0.61224  -0.60939  -0.60406
 Alpha  occ. eigenvalues --   -0.60051  -0.59664  -0.59410  -0.58699  -0.58103
 Alpha  occ. eigenvalues --   -0.58012  -0.57276  -0.56643  -0.56455  -0.54440
 Alpha  occ. eigenvalues --   -0.54389  -0.53929  -0.53689  -0.53001  -0.52848
 Alpha  occ. eigenvalues --   -0.52450  -0.51230  -0.50829  -0.50745  -0.50070
 Alpha  occ. eigenvalues --   -0.49580  -0.49427  -0.49341  -0.49100  -0.48610
 Alpha  occ. eigenvalues --   -0.48376  -0.47895  -0.47764  -0.47471  -0.47087
 Alpha  occ. eigenvalues --   -0.46901  -0.46715  -0.46299  -0.46145  -0.46002
 Alpha  occ. eigenvalues --   -0.45948  -0.45699  -0.45654  -0.45331  -0.45026
 Alpha  occ. eigenvalues --   -0.44837  -0.44789  -0.44586  -0.44306  -0.44180
 Alpha  occ. eigenvalues --   -0.43907  -0.43822  -0.43571  -0.43392  -0.43240
 Alpha  occ. eigenvalues --   -0.42969  -0.42794  -0.42550  -0.42458  -0.42088
 Alpha  occ. eigenvalues --   -0.41832  -0.41705  -0.41471  -0.41327  -0.41085
 Alpha  occ. eigenvalues --   -0.40980  -0.40911  -0.40639  -0.40529  -0.40387
 Alpha  occ. eigenvalues --   -0.40354  -0.39974  -0.39846  -0.39740  -0.39530
 Alpha  occ. eigenvalues --   -0.39423  -0.39291  -0.38873  -0.38817  -0.38652
 Alpha  occ. eigenvalues --   -0.38494  -0.38387  -0.38184  -0.38077  -0.37987
 Alpha  occ. eigenvalues --   -0.37720  -0.37502  -0.37032  -0.36981  -0.36685
 Alpha  occ. eigenvalues --   -0.36588  -0.36460  -0.36373  -0.36203  -0.36072
 Alpha  occ. eigenvalues --   -0.35928  -0.35906  -0.35384  -0.35338  -0.35018
 Alpha  occ. eigenvalues --   -0.34864  -0.34338  -0.34203  -0.33842  -0.33793
 Alpha  occ. eigenvalues --   -0.33435  -0.33063  -0.32774  -0.32630  -0.32246
 Alpha  occ. eigenvalues --   -0.32134  -0.31849  -0.31631  -0.31534  -0.31364
 Alpha  occ. eigenvalues --   -0.31091  -0.30342  -0.29535  -0.29353  -0.29071
 Alpha  occ. eigenvalues --   -0.28921  -0.28619  -0.28007  -0.26558  -0.25925
 Alpha  occ. eigenvalues --   -0.25578  -0.25459  -0.25197  -0.24894  -0.20448
 Alpha  occ. eigenvalues --   -0.18997
 Alpha virt. eigenvalues --   -0.11303  -0.04958  -0.03867  -0.01585  -0.00148
 Alpha virt. eigenvalues --    0.00029   0.00554   0.00791   0.01991   0.03288
 Alpha virt. eigenvalues --    0.04211   0.04637   0.05623   0.05888   0.05981

 Mulliken charges:
               1
     1  Mg   0.974449
     2  C   -0.017379
     3  C   -0.038778
     4  C   -0.043194
     5  C   -0.064598
     6  N   -0.352344
     7  C    0.027570
     8  C   -0.119802
     9  C   -0.149579
    10  C    0.069159
    11  C    0.012598
    12  C    0.064383
    13  C   -0.061882
    14  C    0.213552
    15  O   -0.258725
    16  O   -0.356654
    17  N   -0.529584
    18  C    0.175231
    19  C   -0.156143
    20  C   -0.102670
    21  C    0.170432
    22  C    0.043618
    23  C    0.033699
    24  O   -0.232138
    25  C   -0.013157
    26  N   -0.332235
    27  C    0.032627
    28  C   -0.083637
    29  C   -0.137947
    30  C    0.073813
    31  C    0.028282
    32  C   -0.010362
    33  C   -0.069144
    34  N   -0.529457
    35  C    0.161670
    36  C   -0.180126
    37  C   -0.019786
    38  C    0.178738
    39  C    0.055132
    40  C    0.149643
    41  O   -0.226029
    42  C   -0.152020
    43  C    0.297020
    44  O   -0.265960
    45  O   -0.358853
    46  C    0.118754
    47  C    0.235807
    48  C   -0.157189
    49  C   -0.204302
    50  C    0.028541
    51  C    0.030139
    52  C   -0.038100
    53  C   -0.040684
    54  C   -0.258887
    55  C    0.000706
    56  C    0.021335
    57  C   -0.026130
    58  C   -0.002540
    59  C   -0.281841
    60  C    0.046862
    61  C   -0.023781
    62  C   -0.001175
    63  C   -0.010150
    64  C   -0.236877
    65  C   -0.050658
    66  C   -0.010637
    67  H    0.005469
    68  H    0.038647
    69  H   -0.009189
    70  H    0.053572
    71  H    0.048798
    72  H    0.059899
    73  H    0.051899
    74  H    0.029914
    75  H    0.052271
    76  H    0.056845
    77  H    0.074378
    78  H    0.062764
    79  H    0.049013
    80  H    0.037998
    81  H    0.054882
    82  H    0.047648
    83  H    0.055098
    84  H    0.052652
    85  H    0.042504
    86  H    0.045519
    87  H    0.050961
    88  H    0.040871
    89  H    0.040311
    90  H    0.049263
    91  H    0.049716
    92  H    0.048868
    93  H    0.034009
    94  H    0.036650
    95  H    0.056708
    96  H    0.037615
    97  H    0.069816
    98  H    0.086069
    99  H    0.059093
   100  H    0.079047
   101  H    0.060974
   102  H    0.062242
   103  H    0.032899
   104  H    0.021006
   105  H    0.044617
   106  H    0.034154
   107  H    0.055249
   108  H    0.028912
   109  H    0.031803
   110  H    0.046227
   111  H    0.039255
   112  H    0.022810
   113  H    0.023969
   114  H    0.027200
   115  H    0.043203
   116  H    0.028753
   117  H    0.038748
   118  H    0.029853
   119  H    0.028514
   120  H    0.034398
   121  H    0.038833
   122  H    0.019223
   123  H    0.028216
   124  H    0.022888
   125  H    0.016755
   126  H    0.021530
   127  H    0.040234
   128  H    0.029039
   129  H    0.015012
   130  H    0.027451
   131  H    0.030041
   132  H    0.023526
   133  H    0.024276
   134  H    0.036633
   135  H    0.046968
   136  H    0.046230
   137  H    0.026067
   138  H    0.019860
   139  H    0.033000
   140  H    0.031219
 Sum of Mulliken charges =  -0.00000

 Dipole moment (field-independent basis, Debye):
    X=             -2.3083    Y=              1.9712    Z=             -0.5738  Tot=              3.0892
 Quadrupole moment (field-independent basis, Debye-Ang):
   XX=           -380.4599   YY=           -409.8264   ZZ=           -404.0652
   XY=             -5.2206   XZ=             34.1373   YZ=              4.6807

 Normal termination of Gaussian 16 at Fri Apr 29 15:49:42 2022.
