 Gaussian 16, Revision A.03,
 Gaussian 16:  ES64L-G16RevA.03 25-Dec-2016

 --------------------------------
 #p wB97XD/Def2SVP td=(nstates=5)
 --------------------------------

 ---------------------------------------------------
 step_351_chromophore_7 TDDFT with wB97XD functional
 ---------------------------------------------------
 Symbolic Z-matrix:
 Charge =  0 Multiplicity = 1

                         Standard orientation:
 ---------------------------------------------------------------------
 Center     Atomic      Atomic             Coordinates (Angstroms)
 Number     Number       Type             X           Y           Z
 ---------------------------------------------------------------------
      1         12           0        6.043858    0.653979    0.386331
      2          6           0        3.757986   -1.970052    0.269770
      3          6           0        3.717607    2.690068   -1.104274
      4          6           0        8.588319    3.057136    0.010864
      5          6           0        8.598774   -1.663856    1.229032
      6          7           0        3.877243    0.319870   -0.192079
      7          6           0        3.187013   -0.770514   -0.203450
      8          6           0        1.767316   -0.541183   -0.522009
      9          6           0        1.810805    0.928045   -1.187087
     10          6           0        3.300563    1.378065   -0.871453
     11          6           0        1.586775    1.016343   -2.722114
     12          6           0        0.863417   -0.696673    0.779251
     13          6           0       -0.076275   -1.920749    0.678200
     14          6           0       -1.597852   -1.920465    1.129867
     15          8           0       -1.986623   -1.697221    2.259348
     16          8           0       -2.472699   -2.090912    0.063666
     17          7           0        6.136900    2.561464   -0.354798
     18          6           0        5.050191    3.277946   -0.892796
     19          6           0        5.408933    4.618961   -1.143486
     20          6           0        6.836809    4.689364   -0.960883
     21          6           0        7.251630    3.393746   -0.466362
     22          6           0        4.430028    5.598472   -1.771390
     23          6           0        7.743452    5.827435   -1.291213
     24          8           0        8.937940    5.686479   -1.256620
     25          6           0        7.192386    7.178765   -1.580931
     26          7           0        8.258097    0.708308    0.583895
     27          6           0        9.050274    1.801956    0.478363
     28          6           0       10.528062    1.478403    0.830931
     29          6           0       10.439970    0.072351    1.411461
     30          6           0        9.000377   -0.311105    1.048501
     31          6           0       11.509915    1.624952   -0.309839
     32          6           0       10.603582    0.064774    2.988138
     33          6           0       10.862941   -1.351588    3.563737
     34          7           0        6.178522   -1.343616    0.809707
     35          6           0        7.306228   -2.171899    1.126450
     36          6           0        6.834067   -3.515451    1.286416
     37          6           0        5.455994   -3.494684    0.972259
     38          6           0        5.117860   -2.180552    0.678881
     39          6           0        7.763717   -4.617699    1.565049
     40          6           0        4.241092   -4.311037    0.818688
     41          8           0        4.005356   -5.492842    1.123958
     42          6           0        3.127508   -3.292234    0.424929
     43          6           0        2.629975   -3.772052   -0.932567
     44          8           0        3.152079   -3.479188   -2.019120
     45          8           0        1.527347   -4.531355   -0.701263
     46          6           0        0.680502   -5.002085   -1.859467
     47          6           0       -3.847581   -2.061381    0.502566
     48          6           0       -4.898159   -2.339140   -0.608170
     49          6           0       -5.325739   -1.580315   -1.602601
     50          6           0       -4.830843   -0.215153   -1.888968
     51          6           0       -6.420787   -2.042616   -2.566770
     52          6           0       -7.853341   -1.736432   -2.088234
     53          6           0       -8.752016   -1.289455   -3.293608
     54          6           0      -10.252799   -1.348570   -2.826022
     55          6           0      -11.167198   -1.560729   -4.070194
     56          6           0      -10.539606   -0.132046   -1.954472
     57          6           0      -11.755350   -0.425531   -1.021129
     58          6           0      -12.854724    0.592861   -1.260228
     59          6           0      -13.594438    0.759583    0.101884
     60          6           0      -15.024876    1.122585   -0.001768
     61          6           0      -12.828866    1.803080    0.952442
     62          6           0      -13.093655    1.647829    2.449895
     63          6           0      -13.969066    2.873821    2.940405
     64          6           0      -15.249173    2.406352    3.736810
     65          6           0      -16.512200    3.201936    3.119031
     66          6           0      -15.032835    2.585110    5.247882
     67          1           0        2.936708    3.223502   -1.650308
     68          1           0        9.291335    3.876724    0.178856
     69          1           0        9.348030   -2.400283    1.527481
     70          1           0        1.520935   -1.404560   -1.141117
     71          1           0        1.063595    1.543878   -0.686920
     72          1           0        1.599289    0.004085   -3.125938
     73          1           0        2.215491    1.736664   -3.246502
     74          1           0        0.593298    1.445813   -2.851914
     75          1           0        0.347195    0.247094    0.956319
     76          1           0        1.534011   -0.873341    1.619712
     77          1           0        0.252849   -2.608422    1.457529
     78          1           0       -0.038978   -2.406626   -0.296578
     79          1           0        4.214238    6.349788   -1.010672
     80          1           0        3.429420    5.245732   -2.021215
     81          1           0        4.851812    6.077124   -2.654757
     82          1           0        6.691573    7.151374   -2.548673
     83          1           0        7.994935    7.913174   -1.646757
     84          1           0        6.391555    7.512037   -0.920433
     85          1           0       10.845128    2.147734    1.630329
     86          1           0       11.043930   -0.680346    0.905096
     87          1           0       10.990285    2.046909   -1.170301
     88          1           0       12.003619    0.706151   -0.626973
     89          1           0       12.272958    2.359985   -0.054137
     90          1           0        9.709974    0.436056    3.491026
     91          1           0       11.465110    0.694762    3.207505
     92          1           0       10.079744   -1.633684    4.267417
     93          1           0       11.792886   -1.393157    4.130353
     94          1           0       11.034427   -2.142059    2.834084
     95          1           0        7.443120   -5.163716    2.451904
     96          1           0        8.824079   -4.483299    1.778279
     97          1           0        7.654257   -5.271707    0.700328
     98          1           0        2.366029   -3.278860    1.203914
     99          1           0        0.055983   -4.145993   -2.114753
    100          1           0        0.148236   -5.946215   -1.748316
    101          1           0        1.270280   -5.181314   -2.758497
    102          1           0       -4.175603   -1.215131    1.106670
    103          1           0       -3.924904   -2.963614    1.108855
    104          1           0       -5.386677   -3.300029   -0.449603
    105          1           0       -4.806656    0.404949   -0.993134
    106          1           0       -5.343740    0.339624   -2.674847
    107          1           0       -3.805090   -0.265021   -2.256635
    108          1           0       -6.351666   -3.127508   -2.644857
    109          1           0       -6.269045   -1.650155   -3.572392
    110          1           0       -7.808885   -0.953472   -1.331474
    111          1           0       -8.223135   -2.681408   -1.688361
    112          1           0       -8.627044   -1.902373   -4.186297
    113          1           0       -8.568240   -0.275902   -3.650351
    114          1           0      -10.253907   -2.270304   -2.244872
    115          1           0      -10.808842   -1.112262   -4.997534
    116          1           0      -12.174291   -1.199397   -3.864378
    117          1           0      -11.190364   -2.648556   -4.136680
    118          1           0      -10.789297    0.628087   -2.694903
    119          1           0       -9.690053    0.133350   -1.325613
    120          1           0      -11.438088   -0.284982    0.012207
    121          1           0      -12.150979   -1.420167   -1.226027
    122          1           0      -13.467252    0.179608   -2.061476
    123          1           0      -12.612309    1.616149   -1.547821
    124          1           0      -13.681599   -0.187135    0.634693
    125          1           0      -15.260420    1.224745   -1.061475
    126          1           0      -15.144443    2.138737    0.375326
    127          1           0      -15.623016    0.360515    0.497897
    128          1           0      -13.070040    2.793360    0.564367
    129          1           0      -11.751307    1.718886    0.809956
    130          1           0      -12.165008    1.690020    3.019284
    131          1           0      -13.471676    0.646520    2.653524
    132          1           0      -14.406808    3.530777    2.188470
    133          1           0      -13.379985    3.557075    3.550701
    134          1           0      -15.372906    1.346764    3.515331
    135          1           0      -16.991401    2.733068    2.259432
    136          1           0      -16.307934    4.249414    2.896464
    137          1           0      -17.279504    3.131455    3.890116
    138          1           0      -15.967720    2.929124    5.689625
    139          1           0      -14.256063    3.267227    5.593375
    140          1           0      -14.830418    1.675179    5.812943
 ---------------------------------------------------------------------

 SCF Done:  E(RwB97XD) =  -3007.86432086     A.U. after   19 cycles

 Excitation energies and oscillator strengths:

 Excited State   1:      Singlet-A      1.6851 eV  735.78 nm  f=0.3722  <S**2>=0.000
     245 -> 248       -0.19167
     246 -> 247        0.68112
     245 <- 248       -0.11725
 This state for optimization and/or second-order correction.
 Total Energy, E(TD-HF/TD-DFT) =  -3007.80239523
 Copying the excited state density for this state as the 1-particle RhoCI density.

 Excited State   2:      Singlet-A      2.0797 eV  596.17 nm  f=0.1752  <S**2>=0.000
     245 -> 247        0.65783
     246 -> 248        0.24235

 Excited State   3:      Singlet-A      3.2481 eV  381.71 nm  f=0.0002  <S**2>=0.000
     242 -> 247        0.50975
     243 -> 247        0.17476
     244 -> 247       -0.41108
     246 -> 248       -0.10188

 Excited State   4:      Singlet-A      3.3978 eV  364.89 nm  f=0.0029  <S**2>=0.000
     239 -> 247        0.51102
     239 -> 249       -0.32778
     240 -> 247        0.25964
     240 -> 249       -0.14865

 Excited State   5:      Singlet-A      3.4502 eV  359.35 nm  f=0.0036  <S**2>=0.000
     242 -> 247        0.33347
     243 -> 247        0.14001
     244 -> 247        0.54107
     246 -> 248       -0.20361

 The electronic state is 1-A.
 Alpha  occ. eigenvalues --  -46.94850 -19.31280 -19.30418 -19.25357 -19.25167
 Alpha  occ. eigenvalues --  -19.24743 -19.22498 -14.46636 -14.45996 -14.44036
 Alpha  occ. eigenvalues --  -14.43681 -10.44071 -10.43636 -10.39925 -10.37538
 Alpha  occ. eigenvalues --  -10.36568 -10.35484 -10.35134 -10.34847 -10.34617
 Alpha  occ. eigenvalues --  -10.34163 -10.34150 -10.33821 -10.33451 -10.33318
 Alpha  occ. eigenvalues --  -10.33259 -10.32565 -10.32378 -10.32359 -10.32355
 Alpha  occ. eigenvalues --  -10.32197 -10.31502 -10.31498 -10.31313 -10.31230
 Alpha  occ. eigenvalues --  -10.31216 -10.31120 -10.31052 -10.30830 -10.30561
 Alpha  occ. eigenvalues --  -10.30485 -10.30374 -10.30200 -10.29988 -10.29804
 Alpha  occ. eigenvalues --  -10.29691 -10.29649 -10.29530 -10.29385 -10.29355
 Alpha  occ. eigenvalues --  -10.29256 -10.29221 -10.29037 -10.28981 -10.28856
 Alpha  occ. eigenvalues --  -10.28810 -10.28667 -10.28520 -10.28432 -10.28339
 Alpha  occ. eigenvalues --  -10.28337 -10.28296 -10.28236 -10.28176 -10.27960
 Alpha  occ. eigenvalues --  -10.27254  -3.20780  -1.94375  -1.93901  -1.93746
 Alpha  occ. eigenvalues --   -1.18800  -1.18132  -1.12380  -1.11437  -1.10361
 Alpha  occ. eigenvalues --   -1.09890  -1.06836  -1.06235  -1.04696  -1.02879
 Alpha  occ. eigenvalues --   -0.95101  -0.92519  -0.91993  -0.91086  -0.90988
 Alpha  occ. eigenvalues --   -0.90409  -0.89918  -0.89258  -0.89054  -0.88613
 Alpha  occ. eigenvalues --   -0.87954  -0.86632  -0.85910  -0.85678  -0.84937
 Alpha  occ. eigenvalues --   -0.84095  -0.83741  -0.82990  -0.82577  -0.82291
 Alpha  occ. eigenvalues --   -0.81894  -0.80434  -0.79787  -0.79099  -0.78312
 Alpha  occ. eigenvalues --   -0.77595  -0.77154  -0.77094  -0.76685  -0.75631
 Alpha  occ. eigenvalues --   -0.75147  -0.74721  -0.73103  -0.72436  -0.71226
 Alpha  occ. eigenvalues --   -0.70578  -0.69540  -0.68653  -0.68601  -0.67843
 Alpha  occ. eigenvalues --   -0.67612  -0.67333  -0.66808  -0.66181  -0.65745
 Alpha  occ. eigenvalues --   -0.65534  -0.64941  -0.64184  -0.64085  -0.61970
 Alpha  occ. eigenvalues --   -0.61855  -0.61279  -0.61217  -0.60662  -0.60349
 Alpha  occ. eigenvalues --   -0.59806  -0.58723  -0.58302  -0.58216  -0.57519
 Alpha  occ. eigenvalues --   -0.56988  -0.56892  -0.56794  -0.56528  -0.56044
 Alpha  occ. eigenvalues --   -0.55823  -0.55356  -0.55186  -0.54790  -0.54500
 Alpha  occ. eigenvalues --   -0.54188  -0.54105  -0.53672  -0.53502  -0.53402
 Alpha  occ. eigenvalues --   -0.53357  -0.53261  -0.53023  -0.52679  -0.52351
 Alpha  occ. eigenvalues --   -0.52211  -0.52119  -0.52054  -0.51659  -0.51466
 Alpha  occ. eigenvalues --   -0.51227  -0.51114  -0.50834  -0.50568  -0.50520
 Alpha  occ. eigenvalues --   -0.50226  -0.50045  -0.49826  -0.49714  -0.49305
 Alpha  occ. eigenvalues --   -0.49120  -0.48980  -0.48747  -0.48555  -0.48424
 Alpha  occ. eigenvalues --   -0.48253  -0.48009  -0.47874  -0.47750  -0.47629
 Alpha  occ. eigenvalues --   -0.47418  -0.47201  -0.47103  -0.46895  -0.46756
 Alpha  occ. eigenvalues --   -0.46658  -0.46587  -0.46189  -0.46006  -0.45847
 Alpha  occ. eigenvalues --   -0.45638  -0.45562  -0.45252  -0.45178  -0.45055
 Alpha  occ. eigenvalues --   -0.44904  -0.44612  -0.44139  -0.44090  -0.43773
 Alpha  occ. eigenvalues --   -0.43667  -0.43557  -0.43500  -0.43336  -0.43178
 Alpha  occ. eigenvalues --   -0.43002  -0.42902  -0.42475  -0.42449  -0.41981
 Alpha  occ. eigenvalues --   -0.41941  -0.41328  -0.41143  -0.40918  -0.40785
 Alpha  occ. eigenvalues --   -0.40516  -0.40143  -0.39698  -0.39682  -0.39336
 Alpha  occ. eigenvalues --   -0.39288  -0.38893  -0.38672  -0.38635  -0.38428
 Alpha  occ. eigenvalues --   -0.37965  -0.37325  -0.36783  -0.36376  -0.35978
 Alpha  occ. eigenvalues --   -0.35858  -0.35259  -0.34839  -0.33392  -0.33041
 Alpha  occ. eigenvalues --   -0.32346  -0.32265  -0.31933  -0.31200  -0.25364
 Alpha  occ. eigenvalues --   -0.23257
 Alpha virt. eigenvalues --   -0.07262   0.00517   0.02319   0.05027   0.05848
 Alpha virt. eigenvalues --    0.06797   0.07138   0.07497   0.08786   0.09718
 Alpha virt. eigenvalues --    0.10692   0.11339   0.12319   0.12529   0.12759

 Mulliken charges:
               1
     1  Mg   0.965124
     2  C   -0.019636
     3  C   -0.055087
     4  C   -0.055901
     5  C   -0.075561
     6  N   -0.317427
     7  C   -0.002817
     8  C   -0.091366
     9  C   -0.120627
    10  C    0.057528
    11  C    0.021980
    12  C    0.071446
    13  C   -0.035166
    14  C    0.205038
    15  O   -0.257304
    16  O   -0.356629
    17  N   -0.500001
    18  C    0.164895
    19  C   -0.150870
    20  C   -0.093710
    21  C    0.155893
    22  C    0.057472
    23  C    0.028814
    24  O   -0.229358
    25  C   -0.001860
    26  N   -0.296374
    27  C    0.015230
    28  C   -0.057397
    29  C   -0.108819
    30  C    0.060345
    31  C    0.036772
    32  C    0.000751
    33  C   -0.055134
    34  N   -0.496871
    35  C    0.156661
    36  C   -0.167405
    37  C   -0.015549
    38  C    0.162277
    39  C    0.061565
    40  C    0.130759
    41  O   -0.213844
    42  C   -0.109149
    43  C    0.273606
    44  O   -0.259808
    45  O   -0.356894
    46  C    0.134503
    47  C    0.251256
    48  C   -0.171980
    49  C   -0.183468
    50  C    0.036529
    51  C    0.046936
    52  C   -0.021475
    53  C   -0.026106
    54  C   -0.223486
    55  C    0.012799
    56  C    0.034468
    57  C   -0.007937
    58  C    0.011830
    59  C   -0.245300
    60  C    0.058578
    61  C   -0.005193
    62  C    0.011569
    63  C    0.005131
    64  C   -0.209405
    65  C   -0.033837
    66  C    0.000299
    67  H   -0.004145
    68  H    0.035425
    69  H   -0.023771
    70  H    0.032449
    71  H    0.039208
    72  H    0.054183
    73  H    0.046194
    74  H    0.023817
    75  H    0.047116
    76  H    0.048310
    77  H    0.066689
    78  H    0.047599
    79  H    0.041286
    80  H    0.032942
    81  H    0.046647
    82  H    0.040559
    83  H    0.053048
    84  H    0.046741
    85  H    0.032530
    86  H    0.034860
    87  H    0.044852
    88  H    0.034788
    89  H    0.035370
    90  H    0.042387
    91  H    0.042495
    92  H    0.043171
    93  H    0.029694
    94  H    0.029619
    95  H    0.053965
    96  H    0.036573
    97  H    0.066584
    98  H    0.075626
    99  H    0.055855
   100  H    0.076774
   101  H    0.057420
   102  H    0.057577
   103  H    0.027498
   104  H    0.017804
   105  H    0.039420
   106  H    0.029725
   107  H    0.050693
   108  H    0.021745
   109  H    0.023516
   110  H    0.034864
   111  H    0.031298
   112  H    0.014204
   113  H    0.013898
   114  H    0.011196
   115  H    0.037983
   116  H    0.020685
   117  H    0.032932
   118  H    0.018664
   119  H    0.020079
   120  H    0.022793
   121  H    0.030180
   122  H    0.009395
   123  H    0.018822
   124  H    0.008308
   125  H    0.011243
   126  H    0.007919
   127  H    0.036398
   128  H    0.018021
   129  H    0.005487
   130  H    0.021192
   131  H    0.020708
   132  H    0.010827
   133  H    0.016460
   134  H    0.024567
   135  H    0.040887
   136  H    0.040089
   137  H    0.018795
   138  H    0.012915
   139  H    0.027152
   140  H    0.025895
 Sum of Mulliken charges =  -0.00000

 Dipole moment (field-independent basis, Debye):
    X=             -2.3248    Y=              1.1599    Z=             -0.3627  Tot=              2.6233
 Quadrupole moment (field-independent basis, Debye-Ang):
   XX=           -380.6106   YY=           -409.2826   ZZ=           -403.6781
   XY=            -10.0183   XZ=             35.6282   YZ=              4.8196

 Normal termination of Gaussian 16 at Fri Apr 29 16:15:12 2022.
