 Gaussian 16, Revision A.03,
 Gaussian 16:  ES64L-G16RevA.03 25-Dec-2016

 --------------------
 #p ZINDO=(nstates=5)
 --------------------

 ----------------------------
 step_351_chromophore_7 ZINDO
 ----------------------------
 Symbolic Z-matrix:
 Charge =  0 Multiplicity = 1

                         Standard orientation:
 ---------------------------------------------------------------------
 Center     Atomic      Atomic             Coordinates (Angstroms)
 Number     Number       Type             X           Y           Z
 ---------------------------------------------------------------------
      1         12           0        6.043858    0.653979    0.386331
      2          6           0        3.757986   -1.970052    0.269770
      3          6           0        3.717607    2.690068   -1.104274
      4          6           0        8.588319    3.057136    0.010864
      5          6           0        8.598774   -1.663856    1.229032
      6          7           0        3.877243    0.319870   -0.192079
      7          6           0        3.187013   -0.770514   -0.203450
      8          6           0        1.767316   -0.541183   -0.522009
      9          6           0        1.810805    0.928045   -1.187087
     10          6           0        3.300563    1.378065   -0.871453
     11          6           0        1.586775    1.016343   -2.722114
     12          6           0        0.863417   -0.696673    0.779251
     13          6           0       -0.076275   -1.920749    0.678200
     14          6           0       -1.597852   -1.920465    1.129867
     15          8           0       -1.986623   -1.697221    2.259348
     16          8           0       -2.472699   -2.090912    0.063666
     17          7           0        6.136900    2.561464   -0.354798
     18          6           0        5.050191    3.277946   -0.892796
     19          6           0        5.408933    4.618961   -1.143486
     20          6           0        6.836809    4.689364   -0.960883
     21          6           0        7.251630    3.393746   -0.466362
     22          6           0        4.430028    5.598472   -1.771390
     23          6           0        7.743452    5.827435   -1.291213
     24          8           0        8.937940    5.686479   -1.256620
     25          6           0        7.192386    7.178765   -1.580931
     26          7           0        8.258097    0.708308    0.583895
     27          6           0        9.050274    1.801956    0.478363
     28          6           0       10.528062    1.478403    0.830931
     29          6           0       10.439970    0.072351    1.411461
     30          6           0        9.000377   -0.311105    1.048501
     31          6           0       11.509915    1.624952   -0.309839
     32          6           0       10.603582    0.064774    2.988138
     33          6           0       10.862941   -1.351588    3.563737
     34          7           0        6.178522   -1.343616    0.809707
     35          6           0        7.306228   -2.171899    1.126450
     36          6           0        6.834067   -3.515451    1.286416
     37          6           0        5.455994   -3.494684    0.972259
     38          6           0        5.117860   -2.180552    0.678881
     39          6           0        7.763717   -4.617699    1.565049
     40          6           0        4.241092   -4.311037    0.818688
     41          8           0        4.005356   -5.492842    1.123958
     42          6           0        3.127508   -3.292234    0.424929
     43          6           0        2.629975   -3.772052   -0.932567
     44          8           0        3.152079   -3.479188   -2.019120
     45          8           0        1.527347   -4.531355   -0.701263
     46          6           0        0.680502   -5.002085   -1.859467
     47          6           0       -3.847581   -2.061381    0.502566
     48          6           0       -4.898159   -2.339140   -0.608170
     49          6           0       -5.325739   -1.580315   -1.602601
     50          6           0       -4.830843   -0.215153   -1.888968
     51          6           0       -6.420787   -2.042616   -2.566770
     52          6           0       -7.853341   -1.736432   -2.088234
     53          6           0       -8.752016   -1.289455   -3.293608
     54          6           0      -10.252799   -1.348570   -2.826022
     55          6           0      -11.167198   -1.560729   -4.070194
     56          6           0      -10.539606   -0.132046   -1.954472
     57          6           0      -11.755350   -0.425531   -1.021129
     58          6           0      -12.854724    0.592861   -1.260228
     59          6           0      -13.594438    0.759583    0.101884
     60          6           0      -15.024876    1.122585   -0.001768
     61          6           0      -12.828866    1.803080    0.952442
     62          6           0      -13.093655    1.647829    2.449895
     63          6           0      -13.969066    2.873821    2.940405
     64          6           0      -15.249173    2.406352    3.736810
     65          6           0      -16.512200    3.201936    3.119031
     66          6           0      -15.032835    2.585110    5.247882
     67          1           0        2.936708    3.223502   -1.650308
     68          1           0        9.291335    3.876724    0.178856
     69          1           0        9.348030   -2.400283    1.527481
     70          1           0        1.520935   -1.404560   -1.141117
     71          1           0        1.063595    1.543878   -0.686920
     72          1           0        1.599289    0.004085   -3.125938
     73          1           0        2.215491    1.736664   -3.246502
     74          1           0        0.593298    1.445813   -2.851914
     75          1           0        0.347195    0.247094    0.956319
     76          1           0        1.534011   -0.873341    1.619712
     77          1           0        0.252849   -2.608422    1.457529
     78          1           0       -0.038978   -2.406626   -0.296578
     79          1           0        4.214238    6.349788   -1.010672
     80          1           0        3.429420    5.245732   -2.021215
     81          1           0        4.851812    6.077124   -2.654757
     82          1           0        6.691573    7.151374   -2.548673
     83          1           0        7.994935    7.913174   -1.646757
     84          1           0        6.391555    7.512037   -0.920433
     85          1           0       10.845128    2.147734    1.630329
     86          1           0       11.043930   -0.680346    0.905096
     87          1           0       10.990285    2.046909   -1.170301
     88          1           0       12.003619    0.706151   -0.626973
     89          1           0       12.272958    2.359985   -0.054137
     90          1           0        9.709974    0.436056    3.491026
     91          1           0       11.465110    0.694762    3.207505
     92          1           0       10.079744   -1.633684    4.267417
     93          1           0       11.792886   -1.393157    4.130353
     94          1           0       11.034427   -2.142059    2.834084
     95          1           0        7.443120   -5.163716    2.451904
     96          1           0        8.824079   -4.483299    1.778279
     97          1           0        7.654257   -5.271707    0.700328
     98          1           0        2.366029   -3.278860    1.203914
     99          1           0        0.055983   -4.145993   -2.114753
    100          1           0        0.148236   -5.946215   -1.748316
    101          1           0        1.270280   -5.181314   -2.758497
    102          1           0       -4.175603   -1.215131    1.106670
    103          1           0       -3.924904   -2.963614    1.108855
    104          1           0       -5.386677   -3.300029   -0.449603
    105          1           0       -4.806656    0.404949   -0.993134
    106          1           0       -5.343740    0.339624   -2.674847
    107          1           0       -3.805090   -0.265021   -2.256635
    108          1           0       -6.351666   -3.127508   -2.644857
    109          1           0       -6.269045   -1.650155   -3.572392
    110          1           0       -7.808885   -0.953472   -1.331474
    111          1           0       -8.223135   -2.681408   -1.688361
    112          1           0       -8.627044   -1.902373   -4.186297
    113          1           0       -8.568240   -0.275902   -3.650351
    114          1           0      -10.253907   -2.270304   -2.244872
    115          1           0      -10.808842   -1.112262   -4.997534
    116          1           0      -12.174291   -1.199397   -3.864378
    117          1           0      -11.190364   -2.648556   -4.136680
    118          1           0      -10.789297    0.628087   -2.694903
    119          1           0       -9.690053    0.133350   -1.325613
    120          1           0      -11.438088   -0.284982    0.012207
    121          1           0      -12.150979   -1.420167   -1.226027
    122          1           0      -13.467252    0.179608   -2.061476
    123          1           0      -12.612309    1.616149   -1.547821
    124          1           0      -13.681599   -0.187135    0.634693
    125          1           0      -15.260420    1.224745   -1.061475
    126          1           0      -15.144443    2.138737    0.375326
    127          1           0      -15.623016    0.360515    0.497897
    128          1           0      -13.070040    2.793360    0.564367
    129          1           0      -11.751307    1.718886    0.809956
    130          1           0      -12.165008    1.690020    3.019284
    131          1           0      -13.471676    0.646520    2.653524
    132          1           0      -14.406808    3.530777    2.188470
    133          1           0      -13.379985    3.557075    3.550701
    134          1           0      -15.372906    1.346764    3.515331
    135          1           0      -16.991401    2.733068    2.259432
    136          1           0      -16.307934    4.249414    2.896464
    137          1           0      -17.279504    3.131455    3.890116
    138          1           0      -15.967720    2.929124    5.689625
    139          1           0      -14.256063    3.267227    5.593375
    140          1           0      -14.830418    1.675179    5.812943
 ---------------------------------------------------------------------

 SCF Done:  E(RZINDO/S) =  -474.254100410     A.U. after   19 cycles

 Excitation energies and oscillator strengths:

 Excited State   1:      Singlet-A      1.3263 eV  934.78 nm  f=0.5301  <S**2>=0.000
     175 ->178         0.17072
     176 ->177         0.66886
 This state for optimization and/or second-order correction.
 Total Energy, E(CIS/TDA) =  -474.205358009
 Copying the excited state density for this state as the 1-particle RhoCI density.

 Excited State   2:      Singlet-A      1.8859 eV  657.44 nm  f=0.1416  <S**2>=0.000
     175 ->177         0.59658
     176 ->178        -0.33291

 Excited State   3:      Singlet-A      2.8947 eV  428.32 nm  f=0.0127  <S**2>=0.000
     167 ->177         0.20457
     167 ->179        -0.24593
     168 ->177         0.33953
     168 ->178        -0.12053
     168 ->179        -0.36266
     168 ->182         0.12533
     168 ->185         0.12911

 Excited State   4:      Singlet-A      2.9912 eV  414.50 nm  f=0.8871  <S**2>=0.000
     170 ->177        -0.17702
     173 ->177         0.17148
     175 ->177         0.29436
     175 ->179        -0.11168
     176 ->178         0.54657

 Excited State   5:      Singlet-A      3.0526 eV  406.17 nm  f=0.0005  <S**2>=0.000
     171 ->177         0.22256
     171 ->178        -0.11154
     171 ->179         0.17744
     171 ->180         0.13880
     171 ->181        -0.20190
     171 ->182         0.35229
     171 ->185        -0.22732
     171 ->188        -0.21846
     171 ->201        -0.11975
     173 ->177         0.14587

 The electronic state is 1-A.
 Alpha  occ. eigenvalues --   -1.85306  -1.81390  -1.78221  -1.73487  -1.71361
 Alpha  occ. eigenvalues --   -1.70636  -1.67929  -1.61982  -1.59463  -1.58197
 Alpha  occ. eigenvalues --   -1.54519  -1.51355  -1.49921  -1.48134  -1.46573
 Alpha  occ. eigenvalues --   -1.44107  -1.43831  -1.40179  -1.38426  -1.38317
 Alpha  occ. eigenvalues --   -1.36962  -1.35409  -1.31617  -1.29711  -1.28538
 Alpha  occ. eigenvalues --   -1.27963  -1.24321  -1.21464  -1.20549  -1.18426
 Alpha  occ. eigenvalues --   -1.17846  -1.16165  -1.15882  -1.15128  -1.12931
 Alpha  occ. eigenvalues --   -1.12459  -1.09917  -1.09378  -1.06120  -1.04251
 Alpha  occ. eigenvalues --   -1.02303  -1.01095  -0.98879  -0.98406  -0.97263
 Alpha  occ. eigenvalues --   -0.96408  -0.94362  -0.93957  -0.92821  -0.92040
 Alpha  occ. eigenvalues --   -0.91114  -0.89810  -0.88815  -0.87962  -0.86365
 Alpha  occ. eigenvalues --   -0.86167  -0.84481  -0.83645  -0.82665  -0.80572
 Alpha  occ. eigenvalues --   -0.79732  -0.78699  -0.78507  -0.77396  -0.76580
 Alpha  occ. eigenvalues --   -0.76273  -0.76046  -0.75124  -0.74921  -0.74018
 Alpha  occ. eigenvalues --   -0.72552  -0.72110  -0.71970  -0.71190  -0.70577
 Alpha  occ. eigenvalues --   -0.70503  -0.69328  -0.69169  -0.68336  -0.68006
 Alpha  occ. eigenvalues --   -0.67624  -0.67149  -0.66549  -0.66114  -0.65797
 Alpha  occ. eigenvalues --   -0.65378  -0.64634  -0.64503  -0.64384  -0.64137
 Alpha  occ. eigenvalues --   -0.63744  -0.63106  -0.62563  -0.61847  -0.61654
 Alpha  occ. eigenvalues --   -0.60517  -0.60382  -0.59781  -0.59578  -0.59506
 Alpha  occ. eigenvalues --   -0.59280  -0.58813  -0.58575  -0.58462  -0.58403
 Alpha  occ. eigenvalues --   -0.57595  -0.57236  -0.57144  -0.57019  -0.56643
 Alpha  occ. eigenvalues --   -0.56281  -0.55564  -0.55343  -0.55161  -0.54523
 Alpha  occ. eigenvalues --   -0.54131  -0.53928  -0.53731  -0.53303  -0.52823
 Alpha  occ. eigenvalues --   -0.52492  -0.52421  -0.52311  -0.51839  -0.51688
 Alpha  occ. eigenvalues --   -0.51572  -0.51271  -0.51161  -0.50925  -0.50818
 Alpha  occ. eigenvalues --   -0.50437  -0.50201  -0.50147  -0.49468  -0.49269
 Alpha  occ. eigenvalues --   -0.48589  -0.48572  -0.48465  -0.48159  -0.47819
 Alpha  occ. eigenvalues --   -0.47150  -0.47122  -0.46922  -0.46825  -0.46435
 Alpha  occ. eigenvalues --   -0.46089  -0.45985  -0.45843  -0.45675  -0.45549
 Alpha  occ. eigenvalues --   -0.45192  -0.45017  -0.44179  -0.44025  -0.43770
 Alpha  occ. eigenvalues --   -0.43583  -0.42874  -0.42751  -0.42498  -0.42280
 Alpha  occ. eigenvalues --   -0.42068  -0.41800  -0.40412  -0.39528  -0.39344
 Alpha  occ. eigenvalues --   -0.38500  -0.37083  -0.36397  -0.34671  -0.34085
 Alpha  occ. eigenvalues --   -0.33658  -0.33025  -0.31791  -0.31304  -0.26231
 Alpha  occ. eigenvalues --   -0.22297
 Alpha virt. eigenvalues --   -0.08741  -0.01795  -0.01196   0.01281   0.01568
 Alpha virt. eigenvalues --    0.02293   0.02338   0.03114   0.04850   0.05107
 Alpha virt. eigenvalues --    0.06511   0.06669   0.07392   0.07534   0.07899

 Mulliken charges:
               1
     1  Mg   0.426491
     2  C   -0.085636
     3  C   -0.070132
     4  C   -0.050393
     5  C   -0.065333
     6  N   -0.278664
     7  C    0.201093
     8  C   -0.004352
     9  C   -0.004210
    10  C    0.076487
    11  C   -0.052495
    12  C   -0.011788
    13  C   -0.004475
    14  C    0.457171
    15  O   -0.504584
    16  O   -0.262102
    17  N   -0.325612
    18  C    0.067574
    19  C   -0.027230
    20  C   -0.059802
    21  C    0.113202
    22  C   -0.045730
    23  C    0.331801
    24  O   -0.534398
    25  C   -0.031083
    26  N   -0.249641
    27  C    0.092566
    28  C    0.012078
    29  C    0.000083
    30  C    0.169833
    31  C   -0.048744
    32  C   -0.023779
    33  C   -0.063267
    34  N   -0.360185
    35  C    0.111189
    36  C    0.083767
    37  C   -0.041148
    38  C    0.146196
    39  C   -0.036895
    40  C    0.334121
    41  O   -0.514649
    42  C    0.059553
    43  C    0.492207
    44  O   -0.532614
    45  O   -0.266212
    46  C    0.068922
    47  C    0.101370
    48  C   -0.102171
    49  C    0.017353
    50  C   -0.039758
    51  C   -0.026747
    52  C   -0.029302
    53  C   -0.044833
    54  C   -0.022460
    55  C   -0.058820
    56  C   -0.037212
    57  C   -0.039552
    58  C   -0.036759
    59  C   -0.017555
    60  C   -0.061252
    61  C   -0.029679
    62  C   -0.034817
    63  C   -0.044562
    64  C   -0.014874
    65  C   -0.063219
    66  C   -0.055746
    67  H    0.032438
    68  H    0.051180
    69  H    0.034125
    70  H    0.039525
    71  H    0.031515
    72  H    0.029427
    73  H    0.033699
    74  H    0.007864
    75  H    0.037247
    76  H    0.030029
    77  H    0.039551
    78  H    0.041441
    79  H    0.020048
    80  H    0.022526
    81  H    0.025850
    82  H    0.033176
    83  H    0.034185
    84  H    0.031969
    85  H    0.027560
    86  H    0.038230
    87  H    0.026474
    88  H    0.020805
    89  H    0.019109
    90  H    0.032490
    91  H    0.024606
    92  H    0.020636
    93  H    0.012792
    94  H    0.021337
    95  H    0.032418
    96  H    0.030974
    97  H    0.039487
    98  H    0.062020
    99  H    0.037428
   100  H    0.052681
   101  H    0.042827
   102  H    0.058255
   103  H    0.032008
   104  H    0.022140
   105  H    0.024807
   106  H    0.018649
   107  H    0.025241
   108  H    0.013991
   109  H    0.022567
   110  H    0.028868
   111  H    0.026823
   112  H    0.016229
   113  H    0.017665
   114  H    0.017270
   115  H    0.026616
   116  H    0.016391
   117  H    0.017009
   118  H    0.023433
   119  H    0.023842
   120  H    0.022308
   121  H    0.028451
   122  H    0.013043
   123  H    0.024992
   124  H    0.016772
   125  H    0.012386
   126  H    0.019147
   127  H    0.024140
   128  H    0.021177
   129  H    0.006471
   130  H    0.012420
   131  H    0.028689
   132  H    0.023411
   133  H    0.018318
   134  H    0.024680
   135  H    0.022248
   136  H    0.027038
   137  H    0.008523
   138  H    0.010071
   139  H    0.022789
   140  H    0.014865
 Sum of Mulliken charges =  -0.00000

 Dipole moment (field-independent basis, Debye):
    X=             -2.6438    Y=             -0.8113    Z=              0.3987  Tot=              2.7941
 N-N= 4.200493335911D+03 E-N= 0.000000000000D+00  KE=-9.075074331661D+03
 Leave Link  601 at Fri Apr 29 16:28:29 2022, MaxMem=  6710886400 cpu:               1.1 elap:               0.1
 (Enter /sw/apps/gaussian-16.0/g16/l9999.exe)
 1\1\GINC-BP1-COMPUTE156\SP\RZINDO CIS\STO-3G\C55H74Mg1N4O6\OF15641\29-
 Apr-2022\0\\#p ZINDO=(nstates=5)\\step_351_chromophore_7 ZINDO\\0,1\Mg
 ,0,25.36,0.518,29.725\C,0,27.385,0.153,32.534\C,0,22.634,0.841,31.785\
 C,0,23.335,0.288,26.855\C,0,28.066,-0.547,27.687\N,0,25.162,0.626,31.9
 81\C,0,26.048,0.418,32.896\C,0,25.549,0.718,34.249\C,0,23.952,0.718,34
 .02\C,0,23.856,0.661,32.436\C,0,23.154,-0.481,34.603\C,0,26.18,2.073,3
 4.797\C,0,27.117,1.82,36.001\C,0,27.159,2.721,37.307\O,0,27.432,3.905,

 Normal termination of Gaussian 16 at Fri Apr 29 16:28:29 2022.
