 Gaussian 16, Revision A.03,
 Gaussian 16:  ES64L-G16RevA.03 25-Dec-2016

 ------------------------------
 #p blyp/Def2SVP td=(nstates=5)
 ------------------------------

 ---------------------------------------------------
 step_1851_chromophore_26 TDDFT with blyp functional
 ---------------------------------------------------
 Symbolic Z-matrix:
 Charge =  0 Multiplicity = 1

                         Standard orientation:
 ---------------------------------------------------------------------
 Center     Atomic      Atomic             Coordinates (Angstroms)
 Number     Number       Type             X           Y           Z
 ---------------------------------------------------------------------
      1         12           0       -3.956553    1.341192    0.727381
      2          6           0       -5.293661   -1.875718   -0.220352
      3          6           0       -2.487169   -0.302572    3.380134
      4          6           0       -2.444371    4.091230    1.318334
      5          6           0       -5.228048    2.600241   -2.329646
      6          7           0       -3.792594   -0.910026    1.401588
      7          6           0       -4.433019   -1.963523    0.860738
      8          6           0       -3.986862   -3.222729    1.632883
      9          6           0       -3.503462   -2.627073    3.038766
     10          6           0       -3.210670   -1.196991    2.601525
     11          6           0       -4.594530   -2.639558    4.165270
     12          6           0       -2.929778   -4.038531    0.934454
     13          6           0       -1.894600   -3.372137    0.006469
     14          6           0       -0.573255   -4.183005   -0.292675
     15          8           0       -0.226680   -5.304728    0.160086
     16          8           0        0.292753   -3.439090   -1.035427
     17          7           0       -2.551980    1.748983    2.047253
     18          6           0       -2.166597    0.975508    3.089012
     19          6           0       -1.302659    1.691368    3.960287
     20          6           0       -1.142833    3.028813    3.386136
     21          6           0       -2.040025    3.043359    2.201608
     22          6           0       -0.413555    1.077847    5.112753
     23          6           0       -0.165346    4.218627    3.866651
     24          8           0        0.547311    4.016782    4.854053
     25          6           0       -0.103910    5.538165    3.183137
     26          7           0       -3.824206    3.062127   -0.386116
     27          6           0       -3.128544    4.150277    0.128945
     28          6           0       -3.346271    5.395184   -0.684640
     29          6           0       -3.988165    4.774577   -2.029735
     30          6           0       -4.363702    3.374420   -1.554789
     31          6           0       -4.335887    6.395105    0.013284
     32          6           0       -2.961145    4.858363   -3.245815
     33          6           0       -3.468068    5.519188   -4.551146
     34          7           0       -5.131209    0.580610   -0.900467
     35          6           0       -5.574490    1.271461   -2.058876
     36          6           0       -6.507861    0.323297   -2.799599
     37          6           0       -6.328565   -0.879034   -2.151568
     38          6           0       -5.479271   -0.682473   -0.988809
     39          6           0       -7.456326    0.634628   -3.919943
     40          6           0       -6.644685   -2.277241   -2.223818
     41          8           0       -7.339003   -2.885201   -3.086278
     42          6           0       -5.880539   -3.014669   -1.096175
     43          6           0       -6.828087   -3.916109   -0.421771
     44          8           0       -6.803595   -5.150867   -0.524603
     45          8           0       -7.603690   -3.255079    0.448435
     46          6           0       -8.088990   -4.032736    1.597763
     47          6           0        1.601868   -4.061015   -1.087337
     48          6           0        2.489562   -3.146165   -1.787465
     49          6           0        3.772228   -2.819665   -1.648259
     50          6           0        4.737672   -3.548917   -0.641930
     51          6           0        4.479227   -1.780654   -2.564203
     52          6           0        4.007981   -0.372121   -2.288376
     53          6           0        4.943296    0.612964   -2.931995
     54          6           0        5.523533    1.673225   -1.914352
     55          6           0        5.396022    3.076261   -2.480353
     56          6           0        7.031463    1.391784   -1.464461
     57          6           0        7.167348    1.157586    0.048041
     58          6           0        7.652762   -0.333245    0.400972
     59          6           0        9.094254   -0.481992    0.963678
     60          6           0        9.285283   -1.771119    1.838955
     61          6           0       10.149086   -0.618273   -0.248668
     62          6           0       11.410592    0.236495   -0.187632
     63          6           0       12.673931   -0.520813   -0.847754
     64          6           0       13.910192   -0.664318    0.060775
     65          6           0       14.342998    0.660468    0.878518
     66          6           0       15.047860   -1.357418   -0.810784
     67          1           0       -2.183592   -0.751679    4.328382
     68          1           0       -2.139390    5.020901    1.802769
     69          1           0       -5.626305    3.070232   -3.231830
     70          1           0       -4.862694   -3.854057    1.782495
     71          1           0       -2.580851   -3.145962    3.296186
     72          1           0       -5.331094   -3.431323    4.026933
     73          1           0       -5.101905   -1.678804    4.087939
     74          1           0       -4.049783   -2.841132    5.087428
     75          1           0       -3.454610   -4.720155    0.265888
     76          1           0       -2.494534   -4.622954    1.746277
     77          1           0       -1.650223   -2.418975    0.475370
     78          1           0       -2.434795   -3.290995   -0.937051
     79          1           0        0.650930    1.179221    4.898507
     80          1           0       -0.586267    0.003075    5.167160
     81          1           0       -0.678755    1.478092    6.091002
     82          1           0       -0.880543    6.251837    3.456850
     83          1           0       -0.126105    5.246285    2.133237
     84          1           0        0.918052    5.856050    3.390547
     85          1           0       -2.427603    5.970906   -0.791008
     86          1           0       -4.949331    5.215115   -2.297382
     87          1           0       -4.215169    7.369608   -0.459899
     88          1           0       -4.066582    6.435236    1.068298
     89          1           0       -5.305175    5.939614   -0.190243
     90          1           0       -2.782196    3.818668   -3.519410
     91          1           0       -2.131388    5.482439   -2.911973
     92          1           0       -3.617793    4.752305   -5.310473
     93          1           0       -2.702013    6.236298   -4.844631
     94          1           0       -4.429300    6.030183   -4.489969
     95          1           0       -8.398162    0.086781   -3.878476
     96          1           0       -7.027171    0.372934   -4.887041
     97          1           0       -7.523006    1.718858   -4.002137
     98          1           0       -5.060114   -3.528151   -1.597157
     99          1           0       -7.708332   -3.465241    2.447196
    100          1           0       -7.755081   -5.062427    1.725786
    101          1           0       -9.176333   -4.074319    1.534994
    102          1           0        1.574221   -5.061727   -1.517663
    103          1           0        1.968576   -4.081619   -0.061729
    104          1           0        1.961091   -2.550259   -2.531651
    105          1           0        4.252285   -4.255514    0.031124
    106          1           0        5.264151   -2.838738   -0.004136
    107          1           0        5.457254   -4.036272   -1.300033
    108          1           0        4.203402   -1.966884   -3.602074
    109          1           0        5.566669   -1.826646   -2.500671
    110          1           0        4.040066   -0.348848   -1.199531
    111          1           0        3.024483   -0.289300   -2.752210
    112          1           0        4.242905    1.144448   -3.577831
    113          1           0        5.787761    0.191024   -3.475629
    114          1           0        5.005329    1.608481   -0.957907
    115          1           0        4.382969    3.393550   -2.726283
    116          1           0        6.019323    3.171493   -3.369219
    117          1           0        5.632556    3.870956   -1.773148
    118          1           0        7.701248    2.233523   -1.640334
    119          1           0        7.543060    0.605714   -2.018674
    120          1           0        6.233381    1.235378    0.605965
    121          1           0        7.821987    1.924141    0.461504
    122          1           0        7.591399   -0.972660   -0.479691
    123          1           0        7.107296   -0.809421    1.215373
    124          1           0        9.512371    0.378831    1.485398
    125          1           0        8.451545   -2.463169    1.722986
    126          1           0        9.243747   -1.443317    2.877281
    127          1           0       10.303373   -2.148242    1.738756
    128          1           0        9.653083   -0.363872   -1.184550
    129          1           0       10.419813   -1.647950   -0.481247
    130          1           0       11.659191    0.469586    0.848297
    131          1           0       11.066520    1.077563   -0.789190
    132          1           0       12.967559   -0.047456   -1.785484
    133          1           0       12.499116   -1.534973   -1.205069
    134          1           0       13.697844   -1.333203    0.894668
    135          1           0       15.420494    0.711431    0.720687
    136          1           0       14.178585    0.453583    1.936281
    137          1           0       13.831999    1.477130    0.368774
    138          1           0       14.768063   -1.263523   -1.859989
    139          1           0       15.087914   -2.408532   -0.524746
    140          1           0       15.853090   -0.647646   -0.624457
 ---------------------------------------------------------------------

 SCF Done:  E(RB-LYP) =  -3007.34025954     A.U. after   21 cycles

 Excitation energies and oscillator strengths:

 Excited State   1:      Singlet-A      1.7899 eV  692.69 nm  f=0.1935  <S**2>=0.000
     244 -> 247       -0.37812
     245 -> 248       -0.13884
     246 -> 247        0.58327
     246 <- 247       -0.12364
 This state for optimization and/or second-order correction.
 Total Energy, E(TD-HF/TD-DFT) =  -3007.27448257
 Copying the excited state density for this state as the 1-particle RhoCI density.

 Excited State   2:      Singlet-A      1.8581 eV  667.27 nm  f=0.1026  <S**2>=0.000
     244 -> 247        0.58771
     245 -> 248       -0.10486
     246 -> 247        0.37006

 Excited State   3:      Singlet-A      1.9415 eV  638.61 nm  f=0.0025  <S**2>=0.000
     243 -> 247        0.70476

 Excited State   4:      Singlet-A      2.0922 eV  592.61 nm  f=0.0559  <S**2>=0.000
     245 -> 247        0.62153
     246 -> 248        0.28173

 Excited State   5:      Singlet-A      2.2000 eV  563.56 nm  f=0.0001  <S**2>=0.000
     242 -> 247        0.70696

 The electronic state is 1-A.
 Alpha  occ. eigenvalues --  -46.27178 -18.82471 -18.82452 -18.76780 -18.76025
 Alpha  occ. eigenvalues --  -18.75731 -18.75561 -14.03787 -14.03143 -14.01712
 Alpha  occ. eigenvalues --  -14.01352 -10.04592 -10.03610 -10.00757  -9.99608
 Alpha  occ. eigenvalues --   -9.98280  -9.97294  -9.97077  -9.96964  -9.96918
 Alpha  occ. eigenvalues --   -9.96806  -9.96570  -9.96231  -9.95338  -9.95159
 Alpha  occ. eigenvalues --   -9.94846  -9.94724  -9.94646  -9.94319  -9.94280
 Alpha  occ. eigenvalues --   -9.94194  -9.94177  -9.93919  -9.93863  -9.93653
 Alpha  occ. eigenvalues --   -9.93633  -9.93534  -9.93440  -9.93300  -9.93297
 Alpha  occ. eigenvalues --   -9.93000  -9.92858  -9.92791  -9.92556  -9.92545
 Alpha  occ. eigenvalues --   -9.92463  -9.92355  -9.92204  -9.92186  -9.91980
 Alpha  occ. eigenvalues --   -9.91833  -9.91647  -9.91611  -9.91537  -9.91351
 Alpha  occ. eigenvalues --   -9.91240  -9.91232  -9.91206  -9.91064  -9.91048
 Alpha  occ. eigenvalues --   -9.91014  -9.90941  -9.90819  -9.90814  -9.90710
 Alpha  occ. eigenvalues --   -9.90044  -2.92001  -1.72409  -1.71905  -1.71704
 Alpha  occ. eigenvalues --   -0.98389  -0.98358  -0.91284  -0.89375  -0.88590
 Alpha  occ. eigenvalues --   -0.88435  -0.87407  -0.86633  -0.85807  -0.85130
 Alpha  occ. eigenvalues --   -0.75588  -0.73606  -0.73022  -0.72733  -0.72326
 Alpha  occ. eigenvalues --   -0.72071  -0.71809  -0.71382  -0.70662  -0.70227
 Alpha  occ. eigenvalues --   -0.69402  -0.68718  -0.68532  -0.68234  -0.67603
 Alpha  occ. eigenvalues --   -0.66662  -0.66364  -0.65882  -0.65505  -0.64884
 Alpha  occ. eigenvalues --   -0.64114  -0.62962  -0.62650  -0.61923  -0.61294
 Alpha  occ. eigenvalues --   -0.60291  -0.60033  -0.60014  -0.59133  -0.58482
 Alpha  occ. eigenvalues --   -0.58364  -0.57939  -0.57584  -0.55462  -0.54786
 Alpha  occ. eigenvalues --   -0.54158  -0.53613  -0.52529  -0.52421  -0.51931
 Alpha  occ. eigenvalues --   -0.51462  -0.50998  -0.50745  -0.50642  -0.49932
 Alpha  occ. eigenvalues --   -0.49865  -0.49618  -0.49100  -0.47878  -0.46807
 Alpha  occ. eigenvalues --   -0.46482  -0.46296  -0.45782  -0.44910  -0.44653
 Alpha  occ. eigenvalues --   -0.44205  -0.43676  -0.43370  -0.43217  -0.43042
 Alpha  occ. eigenvalues --   -0.42435  -0.42354  -0.42245  -0.41778  -0.41483
 Alpha  occ. eigenvalues --   -0.40878  -0.40668  -0.40597  -0.40460  -0.40427
 Alpha  occ. eigenvalues --   -0.40295  -0.40160  -0.39805  -0.39577  -0.39438
 Alpha  occ. eigenvalues --   -0.39263  -0.39103  -0.39007  -0.38846  -0.38367
 Alpha  occ. eigenvalues --   -0.38351  -0.37859  -0.37616  -0.37500  -0.37246
 Alpha  occ. eigenvalues --   -0.37151  -0.36859  -0.36817  -0.36636  -0.36431
 Alpha  occ. eigenvalues --   -0.36325  -0.36205  -0.35692  -0.35559  -0.35454
 Alpha  occ. eigenvalues --   -0.35374  -0.35332  -0.35276  -0.35039  -0.35006
 Alpha  occ. eigenvalues --   -0.34833  -0.34585  -0.34420  -0.34261  -0.34209
 Alpha  occ. eigenvalues --   -0.33811  -0.33544  -0.33466  -0.33321  -0.33203
 Alpha  occ. eigenvalues --   -0.32978  -0.32728  -0.32623  -0.32417  -0.32355
 Alpha  occ. eigenvalues --   -0.32076  -0.31730  -0.31566  -0.31492  -0.31402
 Alpha  occ. eigenvalues --   -0.31312  -0.31199  -0.31057  -0.31015  -0.30852
 Alpha  occ. eigenvalues --   -0.30689  -0.30625  -0.30384  -0.30348  -0.29891
 Alpha  occ. eigenvalues --   -0.29779  -0.29710  -0.29564  -0.29403  -0.29338
 Alpha  occ. eigenvalues --   -0.29275  -0.28283  -0.28217  -0.27933  -0.27600
 Alpha  occ. eigenvalues --   -0.27365  -0.27351  -0.27144  -0.26928  -0.26640
 Alpha  occ. eigenvalues --   -0.26134  -0.25844  -0.25695  -0.25361  -0.25300
 Alpha  occ. eigenvalues --   -0.25060  -0.24783  -0.24470  -0.24179  -0.23437
 Alpha  occ. eigenvalues --   -0.23003  -0.22654  -0.21660  -0.21212  -0.20925
 Alpha  occ. eigenvalues --   -0.20638  -0.19999  -0.18986  -0.18543  -0.18151
 Alpha  occ. eigenvalues --   -0.16191
 Alpha virt. eigenvalues --   -0.11915  -0.07636  -0.06422  -0.05346  -0.03475
 Alpha virt. eigenvalues --   -0.03326  -0.02778  -0.01727  -0.00930  -0.00404
 Alpha virt. eigenvalues --    0.00666   0.01142   0.01662   0.02110   0.02520

 Mulliken charges:
               1
     1  Mg   0.707416
     2  C    0.009253
     3  C   -0.107415
     4  C   -0.059787
     5  C   -0.086299
     6  N   -0.163365
     7  C   -0.102413
     8  C    0.028440
     9  C   -0.004470
    10  C   -0.049260
    11  C    0.140989
    12  C    0.084744
    13  C    0.103859
    14  C    0.120151
    15  O   -0.225595
    16  O   -0.258806
    17  N   -0.342147
    18  C    0.255004
    19  C   -0.175599
    20  C    0.024814
    21  C    0.074793
    22  C    0.179343
    23  C   -0.078283
    24  O   -0.175142
    25  C    0.153871
    26  N   -0.235531
    27  C    0.083254
    28  C   -0.007880
    29  C    0.013956
    30  C    0.020016
    31  C    0.122236
    32  C    0.107916
    33  C    0.045158
    34  N   -0.238714
    35  C    0.120754
    36  C   -0.188754
    37  C    0.137077
    38  C    0.040770
    39  C    0.191069
    40  C   -0.086981
    41  O   -0.172325
    42  C    0.103860
    43  C    0.107371
    44  O   -0.187386
    45  O   -0.258365
    46  C    0.205931
    47  C    0.356219
    48  C   -0.130134
    49  C   -0.129799
    50  C    0.113202
    51  C    0.094524
    52  C    0.063636
    53  C    0.144210
    54  C   -0.044745
    55  C    0.098462
    56  C    0.094453
    57  C    0.067728
    58  C    0.081246
    59  C   -0.089209
    60  C    0.118452
    61  C    0.040750
    62  C    0.102589
    63  C    0.076729
    64  C   -0.172782
    65  C    0.108425
    66  C    0.120753
    67  H   -0.061196
    68  H   -0.072376
    69  H   -0.058905
    70  H   -0.043893
    71  H   -0.031314
    72  H   -0.005792
    73  H    0.004876
    74  H    0.006767
    75  H   -0.007429
    76  H   -0.011547
    77  H    0.027010
    78  H    0.011484
    79  H    0.016192
    80  H   -0.036184
    81  H    0.006532
    82  H    0.041408
    83  H   -0.002836
    84  H    0.000199
    85  H   -0.027045
    86  H   -0.027762
    87  H    0.000461
    88  H   -0.005312
    89  H   -0.001623
    90  H   -0.005330
    91  H   -0.007591
    92  H   -0.003775
    93  H   -0.002632
    94  H   -0.012169
    95  H    0.021952
    96  H   -0.002111
    97  H   -0.021524
    98  H    0.011530
    99  H    0.013840
   100  H    0.028638
   101  H    0.024084
   102  H    0.016389
   103  H   -0.011128
   104  H   -0.042761
   105  H   -0.011999
   106  H   -0.001606
   107  H    0.006132
   108  H   -0.026181
   109  H   -0.034336
   110  H   -0.016370
   111  H   -0.017573
   112  H   -0.044685
   113  H   -0.022672
   114  H   -0.035825
   115  H   -0.026991
   116  H   -0.011132
   117  H   -0.028448
   118  H   -0.043534
   119  H   -0.028390
   120  H   -0.020682
   121  H   -0.025578
   122  H   -0.013966
   123  H   -0.032720
   124  H   -0.037432
   125  H   -0.008982
   126  H   -0.029170
   127  H   -0.009261
   128  H   -0.057235
   129  H   -0.044767
   130  H   -0.015584
   131  H   -0.021420
   132  H   -0.035667
   133  H   -0.030152
   134  H   -0.037049
   135  H   -0.026702
   136  H   -0.001253
   137  H    0.004652
   138  H   -0.020680
   139  H    0.005885
   140  H   -0.019990
 Sum of Mulliken charges =  -0.00000

 Dipole moment (field-independent basis, Debye):
    X=              0.4390    Y=              6.9286    Z=              0.7604  Tot=              6.9840
 Quadrupole moment (field-independent basis, Debye-Ang):
   XX=           -412.2742   YY=           -416.9263   ZZ=           -410.2636
   XY=            -41.6383   XZ=            -31.4080   YZ=            -35.4495

 Normal termination of Gaussian 16 at Fri Apr 29 04:41:11 2022.
