 Gaussian 16, Revision A.03,
 Gaussian 16:  ES64L-G16RevA.03 25-Dec-2016

 -----------------------------------
 #p cam-b3lyp/Def2SVP td=(nstates=5)
 -----------------------------------

 --------------------------------------------------------
 step_1851_chromophore_26 TDDFT with cam-b3lyp functional
 --------------------------------------------------------
 Symbolic Z-matrix:
 Charge =  0 Multiplicity = 1

                         Standard orientation:
 ---------------------------------------------------------------------
 Center     Atomic      Atomic             Coordinates (Angstroms)
 Number     Number       Type             X           Y           Z
 ---------------------------------------------------------------------
      1         12           0       -3.956553    1.341192    0.727381
      2          6           0       -5.293661   -1.875718   -0.220352
      3          6           0       -2.487169   -0.302572    3.380134
      4          6           0       -2.444371    4.091230    1.318334
      5          6           0       -5.228048    2.600241   -2.329646
      6          7           0       -3.792594   -0.910026    1.401588
      7          6           0       -4.433019   -1.963523    0.860738
      8          6           0       -3.986862   -3.222729    1.632883
      9          6           0       -3.503462   -2.627073    3.038766
     10          6           0       -3.210670   -1.196991    2.601525
     11          6           0       -4.594530   -2.639558    4.165270
     12          6           0       -2.929778   -4.038531    0.934454
     13          6           0       -1.894600   -3.372137    0.006469
     14          6           0       -0.573255   -4.183005   -0.292675
     15          8           0       -0.226680   -5.304728    0.160086
     16          8           0        0.292753   -3.439090   -1.035427
     17          7           0       -2.551980    1.748983    2.047253
     18          6           0       -2.166597    0.975508    3.089012
     19          6           0       -1.302659    1.691368    3.960287
     20          6           0       -1.142833    3.028813    3.386136
     21          6           0       -2.040025    3.043359    2.201608
     22          6           0       -0.413555    1.077847    5.112753
     23          6           0       -0.165346    4.218627    3.866651
     24          8           0        0.547311    4.016782    4.854053
     25          6           0       -0.103910    5.538165    3.183137
     26          7           0       -3.824206    3.062127   -0.386116
     27          6           0       -3.128544    4.150277    0.128945
     28          6           0       -3.346271    5.395184   -0.684640
     29          6           0       -3.988165    4.774577   -2.029735
     30          6           0       -4.363702    3.374420   -1.554789
     31          6           0       -4.335887    6.395105    0.013284
     32          6           0       -2.961145    4.858363   -3.245815
     33          6           0       -3.468068    5.519188   -4.551146
     34          7           0       -5.131209    0.580610   -0.900467
     35          6           0       -5.574490    1.271461   -2.058876
     36          6           0       -6.507861    0.323297   -2.799599
     37          6           0       -6.328565   -0.879034   -2.151568
     38          6           0       -5.479271   -0.682473   -0.988809
     39          6           0       -7.456326    0.634628   -3.919943
     40          6           0       -6.644685   -2.277241   -2.223818
     41          8           0       -7.339003   -2.885201   -3.086278
     42          6           0       -5.880539   -3.014669   -1.096175
     43          6           0       -6.828087   -3.916109   -0.421771
     44          8           0       -6.803595   -5.150867   -0.524603
     45          8           0       -7.603690   -3.255079    0.448435
     46          6           0       -8.088990   -4.032736    1.597763
     47          6           0        1.601868   -4.061015   -1.087337
     48          6           0        2.489562   -3.146165   -1.787465
     49          6           0        3.772228   -2.819665   -1.648259
     50          6           0        4.737672   -3.548917   -0.641930
     51          6           0        4.479227   -1.780654   -2.564203
     52          6           0        4.007981   -0.372121   -2.288376
     53          6           0        4.943296    0.612964   -2.931995
     54          6           0        5.523533    1.673225   -1.914352
     55          6           0        5.396022    3.076261   -2.480353
     56          6           0        7.031463    1.391784   -1.464461
     57          6           0        7.167348    1.157586    0.048041
     58          6           0        7.652762   -0.333245    0.400972
     59          6           0        9.094254   -0.481992    0.963678
     60          6           0        9.285283   -1.771119    1.838955
     61          6           0       10.149086   -0.618273   -0.248668
     62          6           0       11.410592    0.236495   -0.187632
     63          6           0       12.673931   -0.520813   -0.847754
     64          6           0       13.910192   -0.664318    0.060775
     65          6           0       14.342998    0.660468    0.878518
     66          6           0       15.047860   -1.357418   -0.810784
     67          1           0       -2.183592   -0.751679    4.328382
     68          1           0       -2.139390    5.020901    1.802769
     69          1           0       -5.626305    3.070232   -3.231830
     70          1           0       -4.862694   -3.854057    1.782495
     71          1           0       -2.580851   -3.145962    3.296186
     72          1           0       -5.331094   -3.431323    4.026933
     73          1           0       -5.101905   -1.678804    4.087939
     74          1           0       -4.049783   -2.841132    5.087428
     75          1           0       -3.454610   -4.720155    0.265888
     76          1           0       -2.494534   -4.622954    1.746277
     77          1           0       -1.650223   -2.418975    0.475370
     78          1           0       -2.434795   -3.290995   -0.937051
     79          1           0        0.650930    1.179221    4.898507
     80          1           0       -0.586267    0.003075    5.167160
     81          1           0       -0.678755    1.478092    6.091002
     82          1           0       -0.880543    6.251837    3.456850
     83          1           0       -0.126105    5.246285    2.133237
     84          1           0        0.918052    5.856050    3.390547
     85          1           0       -2.427603    5.970906   -0.791008
     86          1           0       -4.949331    5.215115   -2.297382
     87          1           0       -4.215169    7.369608   -0.459899
     88          1           0       -4.066582    6.435236    1.068298
     89          1           0       -5.305175    5.939614   -0.190243
     90          1           0       -2.782196    3.818668   -3.519410
     91          1           0       -2.131388    5.482439   -2.911973
     92          1           0       -3.617793    4.752305   -5.310473
     93          1           0       -2.702013    6.236298   -4.844631
     94          1           0       -4.429300    6.030183   -4.489969
     95          1           0       -8.398162    0.086781   -3.878476
     96          1           0       -7.027171    0.372934   -4.887041
     97          1           0       -7.523006    1.718858   -4.002137
     98          1           0       -5.060114   -3.528151   -1.597157
     99          1           0       -7.708332   -3.465241    2.447196
    100          1           0       -7.755081   -5.062427    1.725786
    101          1           0       -9.176333   -4.074319    1.534994
    102          1           0        1.574221   -5.061727   -1.517663
    103          1           0        1.968576   -4.081619   -0.061729
    104          1           0        1.961091   -2.550259   -2.531651
    105          1           0        4.252285   -4.255514    0.031124
    106          1           0        5.264151   -2.838738   -0.004136
    107          1           0        5.457254   -4.036272   -1.300033
    108          1           0        4.203402   -1.966884   -3.602074
    109          1           0        5.566669   -1.826646   -2.500671
    110          1           0        4.040066   -0.348848   -1.199531
    111          1           0        3.024483   -0.289300   -2.752210
    112          1           0        4.242905    1.144448   -3.577831
    113          1           0        5.787761    0.191024   -3.475629
    114          1           0        5.005329    1.608481   -0.957907
    115          1           0        4.382969    3.393550   -2.726283
    116          1           0        6.019323    3.171493   -3.369219
    117          1           0        5.632556    3.870956   -1.773148
    118          1           0        7.701248    2.233523   -1.640334
    119          1           0        7.543060    0.605714   -2.018674
    120          1           0        6.233381    1.235378    0.605965
    121          1           0        7.821987    1.924141    0.461504
    122          1           0        7.591399   -0.972660   -0.479691
    123          1           0        7.107296   -0.809421    1.215373
    124          1           0        9.512371    0.378831    1.485398
    125          1           0        8.451545   -2.463169    1.722986
    126          1           0        9.243747   -1.443317    2.877281
    127          1           0       10.303373   -2.148242    1.738756
    128          1           0        9.653083   -0.363872   -1.184550
    129          1           0       10.419813   -1.647950   -0.481247
    130          1           0       11.659191    0.469586    0.848297
    131          1           0       11.066520    1.077563   -0.789190
    132          1           0       12.967559   -0.047456   -1.785484
    133          1           0       12.499116   -1.534973   -1.205069
    134          1           0       13.697844   -1.333203    0.894668
    135          1           0       15.420494    0.711431    0.720687
    136          1           0       14.178585    0.453583    1.936281
    137          1           0       13.831999    1.477130    0.368774
    138          1           0       14.768063   -1.263523   -1.859989
    139          1           0       15.087914   -2.408532   -0.524746
    140          1           0       15.853090   -0.647646   -0.624457
 ---------------------------------------------------------------------

 SCF Done:  E(RCAM-B3LYP) =  -3007.12661199     A.U. after   18 cycles

 Excitation energies and oscillator strengths:

 Excited State   1:      Singlet-A      1.7128 eV  723.88 nm  f=0.3592  <S**2>=0.000
     245 -> 248       -0.17082
     246 -> 247        0.68668
     245 <- 248       -0.10525
 This state for optimization and/or second-order correction.
 Total Energy, E(TD-HF/TD-DFT) =  -3007.06366879
 Copying the excited state density for this state as the 1-particle RhoCI density.

 Excited State   2:      Singlet-A      2.3267 eV  532.88 nm  f=0.0548  <S**2>=0.000
     245 -> 247        0.60500
     246 -> 248        0.35287

 Excited State   3:      Singlet-A      3.2914 eV  376.70 nm  f=0.0002  <S**2>=0.000
     240 -> 247        0.37057
     240 -> 249        0.23759
     241 -> 247        0.42806
     241 -> 249        0.26325
     241 -> 251        0.10595

 Excited State   4:      Singlet-A      3.4611 eV  358.22 nm  f=0.0111  <S**2>=0.000
     242 -> 247       -0.13609
     243 -> 247        0.66405
     246 -> 248       -0.11567

 Excited State   5:      Singlet-A      3.4741 eV  356.88 nm  f=0.5252  <S**2>=0.000
     242 -> 247       -0.33537
     245 -> 247       -0.29317
     246 -> 248        0.54051

 The electronic state is 1-A.
 Alpha  occ. eigenvalues --  -46.88777 -19.25504 -19.25292 -19.19698 -19.19143
 Alpha  occ. eigenvalues --  -19.19087 -19.18968 -14.42740 -14.41988 -14.40366
 Alpha  occ. eigenvalues --  -14.39724 -10.39941 -10.39149 -10.35826 -10.35313
 Alpha  occ. eigenvalues --  -10.32371 -10.31760 -10.31564 -10.31418 -10.31219
 Alpha  occ. eigenvalues --  -10.31196 -10.31068 -10.30469 -10.30020 -10.29713
 Alpha  occ. eigenvalues --  -10.29080 -10.28909 -10.28790 -10.28729 -10.28578
 Alpha  occ. eigenvalues --  -10.28332 -10.28165 -10.28106 -10.28035 -10.27921
 Alpha  occ. eigenvalues --  -10.27786 -10.27466 -10.27388 -10.27111 -10.26995
 Alpha  occ. eigenvalues --  -10.26967 -10.26918 -10.26763 -10.26521 -10.26456
 Alpha  occ. eigenvalues --  -10.26157 -10.26010 -10.25920 -10.25856 -10.25834
 Alpha  occ. eigenvalues --  -10.25767 -10.25618 -10.25314 -10.25273 -10.25247
 Alpha  occ. eigenvalues --  -10.24940 -10.24929 -10.24889 -10.24710 -10.24642
 Alpha  occ. eigenvalues --  -10.24579 -10.24564 -10.24552 -10.24407 -10.24355
 Alpha  occ. eigenvalues --  -10.23740  -3.17508  -1.92388  -1.91975  -1.91810
 Alpha  occ. eigenvalues --   -1.17036  -1.16722  -1.09508  -1.08022  -1.06716
 Alpha  occ. eigenvalues --   -1.06210  -1.05240  -1.04405  -1.03547  -1.02524
 Alpha  occ. eigenvalues --   -0.92922  -0.90424  -0.89789  -0.89516  -0.88966
 Alpha  occ. eigenvalues --   -0.88800  -0.88429  -0.88023  -0.87495  -0.86757
 Alpha  occ. eigenvalues --   -0.85793  -0.84980  -0.84874  -0.84513  -0.83775
 Alpha  occ. eigenvalues --   -0.82793  -0.82398  -0.81780  -0.81468  -0.80776
 Alpha  occ. eigenvalues --   -0.79917  -0.78675  -0.78304  -0.77525  -0.76745
 Alpha  occ. eigenvalues --   -0.75590  -0.75375  -0.75315  -0.74357  -0.73632
 Alpha  occ. eigenvalues --   -0.73577  -0.72907  -0.72539  -0.70220  -0.69473
 Alpha  occ. eigenvalues --   -0.68833  -0.68148  -0.66843  -0.66655  -0.66281
 Alpha  occ. eigenvalues --   -0.65518  -0.65079  -0.64838  -0.64808  -0.63910
 Alpha  occ. eigenvalues --   -0.63742  -0.63469  -0.63069  -0.61721  -0.60521
 Alpha  occ. eigenvalues --   -0.60119  -0.59786  -0.59222  -0.58435  -0.58166
 Alpha  occ. eigenvalues --   -0.57766  -0.56978  -0.56541  -0.56421  -0.56304
 Alpha  occ. eigenvalues --   -0.55496  -0.55396  -0.55063  -0.54706  -0.54514
 Alpha  occ. eigenvalues --   -0.53545  -0.53499  -0.53385  -0.53274  -0.53147
 Alpha  occ. eigenvalues --   -0.53009  -0.52883  -0.52492  -0.52382  -0.52038
 Alpha  occ. eigenvalues --   -0.51946  -0.51914  -0.51495  -0.51246  -0.50994
 Alpha  occ. eigenvalues --   -0.50678  -0.50108  -0.49896  -0.49694  -0.49599
 Alpha  occ. eigenvalues --   -0.49361  -0.49241  -0.49117  -0.48897  -0.48861
 Alpha  occ. eigenvalues --   -0.48689  -0.48337  -0.48141  -0.47840  -0.47528
 Alpha  occ. eigenvalues --   -0.47400  -0.47285  -0.47238  -0.47065  -0.46856
 Alpha  occ. eigenvalues --   -0.46651  -0.46641  -0.46329  -0.46290  -0.45969
 Alpha  occ. eigenvalues --   -0.45742  -0.45428  -0.45252  -0.45034  -0.44895
 Alpha  occ. eigenvalues --   -0.44691  -0.44530  -0.44434  -0.44148  -0.43926
 Alpha  occ. eigenvalues --   -0.43666  -0.43291  -0.43152  -0.43010  -0.42923
 Alpha  occ. eigenvalues --   -0.42676  -0.42600  -0.42476  -0.42392  -0.42341
 Alpha  occ. eigenvalues --   -0.42207  -0.42071  -0.41915  -0.41780  -0.41715
 Alpha  occ. eigenvalues --   -0.41105  -0.41060  -0.40814  -0.40721  -0.40555
 Alpha  occ. eigenvalues --   -0.40384  -0.39177  -0.39156  -0.38883  -0.38375
 Alpha  occ. eigenvalues --   -0.38354  -0.38165  -0.37959  -0.37895  -0.37575
 Alpha  occ. eigenvalues --   -0.36914  -0.36821  -0.36749  -0.36452  -0.36173
 Alpha  occ. eigenvalues --   -0.35936  -0.35635  -0.34627  -0.34480  -0.34068
 Alpha  occ. eigenvalues --   -0.33801  -0.33676  -0.33289  -0.31824  -0.31104
 Alpha  occ. eigenvalues --   -0.31062  -0.30846  -0.29813  -0.29699  -0.25107
 Alpha  occ. eigenvalues --   -0.21407
 Alpha virt. eigenvalues --   -0.08960  -0.02532  -0.00080   0.01536   0.01643
 Alpha virt. eigenvalues --    0.04586   0.04816   0.05432   0.06419   0.06631
 Alpha virt. eigenvalues --    0.07138   0.07789   0.08122   0.08227   0.08472

 Mulliken charges:
               1
     1  Mg   0.841207
     2  C   -0.006941
     3  C   -0.113148
     4  C   -0.081461
     5  C   -0.095162
     6  N   -0.230105
     7  C   -0.058442
     8  C   -0.017768
     9  C   -0.059773
    10  C   -0.039030
    11  C    0.087185
    12  C    0.040985
    13  C    0.035073
    14  C    0.201709
    15  O   -0.268513
    16  O   -0.321371
    17  N   -0.432157
    18  C    0.250842
    19  C   -0.178389
    20  C   -0.042661
    21  C    0.098427
    22  C    0.128166
    23  C    0.001971
    24  O   -0.214051
    25  C    0.065915
    26  N   -0.310585
    27  C    0.098397
    28  C   -0.060355
    29  C   -0.043634
    30  C    0.042581
    31  C    0.071758
    32  C    0.053352
    33  C   -0.014866
    34  N   -0.327027
    35  C    0.126412
    36  C   -0.176012
    37  C    0.052619
    38  C    0.082163
    39  C    0.137283
    40  C    0.018386
    41  O   -0.207620
    42  C    0.013875
    43  C    0.197334
    44  O   -0.226698
    45  O   -0.319304
    46  C    0.168396
    47  C    0.317247
    48  C   -0.144371
    49  C   -0.162353
    50  C    0.062070
    51  C    0.042975
    52  C    0.014781
    53  C    0.083154
    54  C   -0.100393
    55  C    0.040794
    56  C    0.040700
    57  C    0.014766
    58  C    0.031730
    59  C   -0.139599
    60  C    0.058356
    61  C   -0.004953
    62  C    0.044502
    63  C    0.022441
    64  C   -0.220488
    65  C    0.045732
    66  C    0.059725
    67  H   -0.024627
    68  H   -0.038551
    69  H   -0.022958
    70  H   -0.009641
    71  H    0.004603
    72  H    0.015129
    73  H    0.029306
    74  H    0.030207
    75  H    0.020254
    76  H    0.020763
    77  H    0.057173
    78  H    0.039160
    79  H    0.041731
    80  H   -0.011778
    81  H    0.032180
    82  H    0.067185
    83  H    0.024764
    84  H    0.034679
    85  H    0.007039
    86  H    0.006607
    87  H    0.024377
    88  H    0.017703
    89  H    0.019265
    90  H    0.023988
    91  H    0.020441
    92  H    0.018694
    93  H    0.020873
    94  H    0.010824
    95  H    0.050228
    96  H    0.027399
    97  H    0.003975
    98  H    0.052062
    99  H    0.033938
   100  H    0.054207
   101  H    0.047431
   102  H    0.045886
   103  H    0.017294
   104  H   -0.008444
   105  H    0.011901
   106  H    0.018310
   107  H    0.028558
   108  H    0.004225
   109  H   -0.006853
   110  H    0.009909
   111  H    0.009019
   112  H   -0.012435
   113  H    0.004995
   114  H   -0.003871
   115  H   -0.001781
   116  H    0.011463
   117  H   -0.003145
   118  H   -0.012626
   119  H   -0.004163
   120  H    0.007231
   121  H    0.002504
   122  H    0.007868
   123  H   -0.004510
   124  H   -0.006157
   125  H    0.014051
   126  H   -0.003699
   127  H    0.014330
   128  H   -0.030248
   129  H   -0.015876
   130  H    0.010188
   131  H    0.006293
   132  H   -0.007572
   133  H   -0.002036
   134  H   -0.007005
   135  H   -0.002707
   136  H    0.022006
   137  H    0.027376
   138  H    0.003313
   139  H    0.029126
   140  H    0.002875
 Sum of Mulliken charges =  -0.00000

 Dipole moment (field-independent basis, Debye):
    X=              0.0613    Y=              7.1407    Z=              0.4627  Tot=              7.1559
 Quadrupole moment (field-independent basis, Debye-Ang):
   XX=           -409.7529   YY=           -415.2373   ZZ=           -409.3611
   XY=            -41.8126   XZ=            -30.1839   YZ=            -37.3951

 Normal termination of Gaussian 16 at Fri Apr 29 03:32:36 2022.
