 Gaussian 16, Revision A.03,
 Gaussian 16:  ES64L-G16RevA.03 25-Dec-2016

 ---------------------------------
 #p PBE1PBE/Def2SVP td=(nstates=5)
 ---------------------------------

 ------------------------------------------------------
 step_1851_chromophore_26 TDDFT with PBE1PBE functional
 ------------------------------------------------------
 Symbolic Z-matrix:
 Charge =  0 Multiplicity = 1

                         Standard orientation:
 ---------------------------------------------------------------------
 Center     Atomic      Atomic             Coordinates (Angstroms)
 Number     Number       Type             X           Y           Z
 ---------------------------------------------------------------------
      1         12           0       -3.956553    1.341192    0.727381
      2          6           0       -5.293661   -1.875718   -0.220352
      3          6           0       -2.487169   -0.302572    3.380134
      4          6           0       -2.444371    4.091230    1.318334
      5          6           0       -5.228048    2.600241   -2.329646
      6          7           0       -3.792594   -0.910026    1.401588
      7          6           0       -4.433019   -1.963523    0.860738
      8          6           0       -3.986862   -3.222729    1.632883
      9          6           0       -3.503462   -2.627073    3.038766
     10          6           0       -3.210670   -1.196991    2.601525
     11          6           0       -4.594530   -2.639558    4.165270
     12          6           0       -2.929778   -4.038531    0.934454
     13          6           0       -1.894600   -3.372137    0.006469
     14          6           0       -0.573255   -4.183005   -0.292675
     15          8           0       -0.226680   -5.304728    0.160086
     16          8           0        0.292753   -3.439090   -1.035427
     17          7           0       -2.551980    1.748983    2.047253
     18          6           0       -2.166597    0.975508    3.089012
     19          6           0       -1.302659    1.691368    3.960287
     20          6           0       -1.142833    3.028813    3.386136
     21          6           0       -2.040025    3.043359    2.201608
     22          6           0       -0.413555    1.077847    5.112753
     23          6           0       -0.165346    4.218627    3.866651
     24          8           0        0.547311    4.016782    4.854053
     25          6           0       -0.103910    5.538165    3.183137
     26          7           0       -3.824206    3.062127   -0.386116
     27          6           0       -3.128544    4.150277    0.128945
     28          6           0       -3.346271    5.395184   -0.684640
     29          6           0       -3.988165    4.774577   -2.029735
     30          6           0       -4.363702    3.374420   -1.554789
     31          6           0       -4.335887    6.395105    0.013284
     32          6           0       -2.961145    4.858363   -3.245815
     33          6           0       -3.468068    5.519188   -4.551146
     34          7           0       -5.131209    0.580610   -0.900467
     35          6           0       -5.574490    1.271461   -2.058876
     36          6           0       -6.507861    0.323297   -2.799599
     37          6           0       -6.328565   -0.879034   -2.151568
     38          6           0       -5.479271   -0.682473   -0.988809
     39          6           0       -7.456326    0.634628   -3.919943
     40          6           0       -6.644685   -2.277241   -2.223818
     41          8           0       -7.339003   -2.885201   -3.086278
     42          6           0       -5.880539   -3.014669   -1.096175
     43          6           0       -6.828087   -3.916109   -0.421771
     44          8           0       -6.803595   -5.150867   -0.524603
     45          8           0       -7.603690   -3.255079    0.448435
     46          6           0       -8.088990   -4.032736    1.597763
     47          6           0        1.601868   -4.061015   -1.087337
     48          6           0        2.489562   -3.146165   -1.787465
     49          6           0        3.772228   -2.819665   -1.648259
     50          6           0        4.737672   -3.548917   -0.641930
     51          6           0        4.479227   -1.780654   -2.564203
     52          6           0        4.007981   -0.372121   -2.288376
     53          6           0        4.943296    0.612964   -2.931995
     54          6           0        5.523533    1.673225   -1.914352
     55          6           0        5.396022    3.076261   -2.480353
     56          6           0        7.031463    1.391784   -1.464461
     57          6           0        7.167348    1.157586    0.048041
     58          6           0        7.652762   -0.333245    0.400972
     59          6           0        9.094254   -0.481992    0.963678
     60          6           0        9.285283   -1.771119    1.838955
     61          6           0       10.149086   -0.618273   -0.248668
     62          6           0       11.410592    0.236495   -0.187632
     63          6           0       12.673931   -0.520813   -0.847754
     64          6           0       13.910192   -0.664318    0.060775
     65          6           0       14.342998    0.660468    0.878518
     66          6           0       15.047860   -1.357418   -0.810784
     67          1           0       -2.183592   -0.751679    4.328382
     68          1           0       -2.139390    5.020901    1.802769
     69          1           0       -5.626305    3.070232   -3.231830
     70          1           0       -4.862694   -3.854057    1.782495
     71          1           0       -2.580851   -3.145962    3.296186
     72          1           0       -5.331094   -3.431323    4.026933
     73          1           0       -5.101905   -1.678804    4.087939
     74          1           0       -4.049783   -2.841132    5.087428
     75          1           0       -3.454610   -4.720155    0.265888
     76          1           0       -2.494534   -4.622954    1.746277
     77          1           0       -1.650223   -2.418975    0.475370
     78          1           0       -2.434795   -3.290995   -0.937051
     79          1           0        0.650930    1.179221    4.898507
     80          1           0       -0.586267    0.003075    5.167160
     81          1           0       -0.678755    1.478092    6.091002
     82          1           0       -0.880543    6.251837    3.456850
     83          1           0       -0.126105    5.246285    2.133237
     84          1           0        0.918052    5.856050    3.390547
     85          1           0       -2.427603    5.970906   -0.791008
     86          1           0       -4.949331    5.215115   -2.297382
     87          1           0       -4.215169    7.369608   -0.459899
     88          1           0       -4.066582    6.435236    1.068298
     89          1           0       -5.305175    5.939614   -0.190243
     90          1           0       -2.782196    3.818668   -3.519410
     91          1           0       -2.131388    5.482439   -2.911973
     92          1           0       -3.617793    4.752305   -5.310473
     93          1           0       -2.702013    6.236298   -4.844631
     94          1           0       -4.429300    6.030183   -4.489969
     95          1           0       -8.398162    0.086781   -3.878476
     96          1           0       -7.027171    0.372934   -4.887041
     97          1           0       -7.523006    1.718858   -4.002137
     98          1           0       -5.060114   -3.528151   -1.597157
     99          1           0       -7.708332   -3.465241    2.447196
    100          1           0       -7.755081   -5.062427    1.725786
    101          1           0       -9.176333   -4.074319    1.534994
    102          1           0        1.574221   -5.061727   -1.517663
    103          1           0        1.968576   -4.081619   -0.061729
    104          1           0        1.961091   -2.550259   -2.531651
    105          1           0        4.252285   -4.255514    0.031124
    106          1           0        5.264151   -2.838738   -0.004136
    107          1           0        5.457254   -4.036272   -1.300033
    108          1           0        4.203402   -1.966884   -3.602074
    109          1           0        5.566669   -1.826646   -2.500671
    110          1           0        4.040066   -0.348848   -1.199531
    111          1           0        3.024483   -0.289300   -2.752210
    112          1           0        4.242905    1.144448   -3.577831
    113          1           0        5.787761    0.191024   -3.475629
    114          1           0        5.005329    1.608481   -0.957907
    115          1           0        4.382969    3.393550   -2.726283
    116          1           0        6.019323    3.171493   -3.369219
    117          1           0        5.632556    3.870956   -1.773148
    118          1           0        7.701248    2.233523   -1.640334
    119          1           0        7.543060    0.605714   -2.018674
    120          1           0        6.233381    1.235378    0.605965
    121          1           0        7.821987    1.924141    0.461504
    122          1           0        7.591399   -0.972660   -0.479691
    123          1           0        7.107296   -0.809421    1.215373
    124          1           0        9.512371    0.378831    1.485398
    125          1           0        8.451545   -2.463169    1.722986
    126          1           0        9.243747   -1.443317    2.877281
    127          1           0       10.303373   -2.148242    1.738756
    128          1           0        9.653083   -0.363872   -1.184550
    129          1           0       10.419813   -1.647950   -0.481247
    130          1           0       11.659191    0.469586    0.848297
    131          1           0       11.066520    1.077563   -0.789190
    132          1           0       12.967559   -0.047456   -1.785484
    133          1           0       12.499116   -1.534973   -1.205069
    134          1           0       13.697844   -1.333203    0.894668
    135          1           0       15.420494    0.711431    0.720687
    136          1           0       14.178585    0.453583    1.936281
    137          1           0       13.831999    1.477130    0.368774
    138          1           0       14.768063   -1.263523   -1.859989
    139          1           0       15.087914   -2.408532   -0.524746
    140          1           0       15.853090   -0.647646   -0.624457
 ---------------------------------------------------------------------

 SCF Done:  E(RPBE1PBE) =  -3005.31480711     A.U. after   16 cycles

 Excitation energies and oscillator strengths:

 Excited State   1:      Singlet-A      1.8625 eV  665.67 nm  f=0.3499  <S**2>=0.000
     245 -> 248       -0.16220
     246 -> 247        0.69415
     246 <- 247       -0.10871
 This state for optimization and/or second-order correction.
 Total Energy, E(TD-HF/TD-DFT) =  -3005.24635987
 Copying the excited state density for this state as the 1-particle RhoCI density.

 Excited State   2:      Singlet-A      2.3317 eV  531.74 nm  f=0.0618  <S**2>=0.000
     245 -> 247        0.62245
     246 -> 248        0.32069

 Excited State   3:      Singlet-A      2.8573 eV  433.92 nm  f=0.0004  <S**2>=0.000
     242 -> 247        0.66444
     242 -> 249        0.20088

 Excited State   4:      Singlet-A      3.0502 eV  406.48 nm  f=0.0005  <S**2>=0.000
     243 -> 247        0.69444

 Excited State   5:      Singlet-A      3.1625 eV  392.05 nm  f=0.0002  <S**2>=0.000
     241 -> 247        0.66759
     241 -> 248       -0.11634
     241 -> 249       -0.11057
     241 -> 250       -0.12797

 The electronic state is 1-A.
 Alpha  occ. eigenvalues --  -46.92157 -19.26067 -19.25978 -19.20036 -19.19431
 Alpha  occ. eigenvalues --  -19.19190 -19.19175 -14.42213 -14.41529 -14.39917
 Alpha  occ. eigenvalues --  -14.39460 -10.37021 -10.36092 -10.33143 -10.32298
 Alpha  occ. eigenvalues --  -10.29550 -10.29282 -10.29247 -10.29120 -10.28986
 Alpha  occ. eigenvalues --  -10.28840 -10.28573 -10.28343 -10.27516 -10.27145
 Alpha  occ. eigenvalues --  -10.26918 -10.26665 -10.26568 -10.26409 -10.26369
 Alpha  occ. eigenvalues --  -10.26070 -10.26026 -10.25891 -10.25820 -10.25783
 Alpha  occ. eigenvalues --  -10.25310 -10.25078 -10.25067 -10.24649 -10.24608
 Alpha  occ. eigenvalues --  -10.24496 -10.24258 -10.24205 -10.24172 -10.24037
 Alpha  occ. eigenvalues --  -10.23651 -10.23600 -10.23560 -10.23495 -10.23344
 Alpha  occ. eigenvalues --  -10.23331 -10.23227 -10.22854 -10.22845 -10.22840
 Alpha  occ. eigenvalues --  -10.22523 -10.22490 -10.22486 -10.22223 -10.22142
 Alpha  occ. eigenvalues --  -10.22078 -10.22074 -10.22005 -10.21821 -10.21739
 Alpha  occ. eigenvalues --  -10.21331  -3.14464  -1.87284  -1.86850  -1.86690
 Alpha  occ. eigenvalues --   -1.11750  -1.11563  -1.04372  -1.02543  -1.01470
 Alpha  occ. eigenvalues --   -1.01069  -0.99803  -0.98993  -0.98141  -0.97297
 Alpha  occ. eigenvalues --   -0.87161  -0.84548  -0.84151  -0.83729  -0.83239
 Alpha  occ. eigenvalues --   -0.82899  -0.82783  -0.82141  -0.81684  -0.80872
 Alpha  occ. eigenvalues --   -0.80036  -0.79303  -0.79161  -0.78760  -0.78023
 Alpha  occ. eigenvalues --   -0.77053  -0.76582  -0.76049  -0.75774  -0.74990
 Alpha  occ. eigenvalues --   -0.74062  -0.72943  -0.72541  -0.71799  -0.71087
 Alpha  occ. eigenvalues --   -0.69960  -0.69479  -0.69470  -0.68515  -0.68020
 Alpha  occ. eigenvalues --   -0.67749  -0.67317  -0.66926  -0.64578  -0.63799
 Alpha  occ. eigenvalues --   -0.63251  -0.62375  -0.61338  -0.61055  -0.60530
 Alpha  occ. eigenvalues --   -0.60040  -0.59594  -0.59385  -0.59037  -0.58218
 Alpha  occ. eigenvalues --   -0.58063  -0.57952  -0.57202  -0.55936  -0.54991
 Alpha  occ. eigenvalues --   -0.54694  -0.54281  -0.53811  -0.52917  -0.52686
 Alpha  occ. eigenvalues --   -0.52188  -0.51319  -0.51111  -0.50848  -0.50808
 Alpha  occ. eigenvalues --   -0.50106  -0.49834  -0.49501  -0.49205  -0.49006
 Alpha  occ. eigenvalues --   -0.48226  -0.48137  -0.47985  -0.47842  -0.47548
 Alpha  occ. eigenvalues --   -0.47431  -0.47406  -0.47081  -0.46951  -0.46529
 Alpha  occ. eigenvalues --   -0.46479  -0.46467  -0.46020  -0.45807  -0.45482
 Alpha  occ. eigenvalues --   -0.45171  -0.44713  -0.44513  -0.44265  -0.44207
 Alpha  occ. eigenvalues --   -0.44002  -0.43873  -0.43683  -0.43511  -0.43461
 Alpha  occ. eigenvalues --   -0.43281  -0.42909  -0.42741  -0.42541  -0.42160
 Alpha  occ. eigenvalues --   -0.42085  -0.41910  -0.41838  -0.41777  -0.41501
 Alpha  occ. eigenvalues --   -0.41365  -0.41210  -0.41028  -0.40972  -0.40633
 Alpha  occ. eigenvalues --   -0.40452  -0.40140  -0.40027  -0.39747  -0.39589
 Alpha  occ. eigenvalues --   -0.39467  -0.39272  -0.39149  -0.38892  -0.38616
 Alpha  occ. eigenvalues --   -0.38459  -0.38048  -0.37981  -0.37753  -0.37667
 Alpha  occ. eigenvalues --   -0.37592  -0.37378  -0.37322  -0.37172  -0.37104
 Alpha  occ. eigenvalues --   -0.37044  -0.36990  -0.36737  -0.36615  -0.36434
 Alpha  occ. eigenvalues --   -0.35929  -0.35805  -0.35650  -0.35566  -0.35434
 Alpha  occ. eigenvalues --   -0.35180  -0.34184  -0.33975  -0.33652  -0.33388
 Alpha  occ. eigenvalues --   -0.33179  -0.32972  -0.32866  -0.32738  -0.32616
 Alpha  occ. eigenvalues --   -0.31973  -0.31773  -0.31636  -0.31327  -0.31106
 Alpha  occ. eigenvalues --   -0.30829  -0.30522  -0.29761  -0.29550  -0.29429
 Alpha  occ. eigenvalues --   -0.28598  -0.28545  -0.28292  -0.27403  -0.26308
 Alpha  occ. eigenvalues --   -0.26007  -0.25706  -0.25519  -0.24945  -0.21980
 Alpha  occ. eigenvalues --   -0.19109
 Alpha virt. eigenvalues --   -0.11492  -0.06022  -0.04230  -0.02812  -0.01202
 Alpha virt. eigenvalues --   -0.00055   0.00260   0.01083   0.02199   0.02598
 Alpha virt. eigenvalues --    0.03381   0.03872   0.04490   0.04997   0.05256

 Mulliken charges:
               1
     1  Mg   0.987916
     2  C    0.002316
     3  C   -0.093731
     4  C   -0.097595
     5  C   -0.084405
     6  N   -0.327844
     7  C    0.024176
     8  C   -0.093268
     9  C   -0.141257
    10  C   -0.002356
    11  C    0.030864
    12  C    0.002115
    13  C   -0.053916
    14  C    0.265399
    15  O   -0.298723
    16  O   -0.351508
    17  N   -0.553541
    18  C    0.260757
    19  C   -0.191982
    20  C   -0.087986
    21  C    0.134563
    22  C    0.066784
    23  C    0.054332
    24  O   -0.245848
    25  C   -0.013675
    26  N   -0.419487
    27  C    0.133206
    28  C   -0.136586
    29  C   -0.112857
    30  C    0.080421
    31  C    0.012095
    32  C   -0.007389
    33  C   -0.083834
    34  N   -0.450162
    35  C    0.138664
    36  C   -0.184139
    37  C   -0.005000
    38  C    0.128850
    39  C    0.083995
    40  C    0.114972
    41  O   -0.252952
    42  C   -0.113692
    43  C    0.294701
    44  O   -0.264986
    45  O   -0.350283
    46  C    0.112670
    47  C    0.272821
    48  C   -0.147354
    49  C   -0.215334
    50  C   -0.001213
    51  C   -0.018303
    52  C   -0.050051
    53  C    0.026975
    54  C   -0.186674
    55  C   -0.022365
    56  C   -0.007422
    57  C   -0.043763
    58  C   -0.031009
    59  C   -0.220193
    60  C   -0.005206
    61  C   -0.052141
    62  C   -0.025881
    63  C   -0.034142
    64  C   -0.299779
    65  C   -0.021736
    66  C   -0.006344
    67  H    0.007548
    68  H   -0.000559
    69  H    0.008116
    70  H    0.033229
    71  H    0.040077
    72  H    0.043664
    73  H    0.057072
    74  H    0.057366
    75  H    0.054030
    76  H    0.051773
    77  H    0.091725
    78  H    0.074087
    79  H    0.069372
    80  H    0.016108
    81  H    0.060442
    82  H    0.092268
    83  H    0.053608
    84  H    0.063064
    85  H    0.042049
    86  H    0.041885
    87  H    0.053122
    88  H    0.046470
    89  H    0.048229
    90  H    0.057355
    91  H    0.051780
    92  H    0.046046
    93  H    0.048001
    94  H    0.037404
    95  H    0.075526
    96  H    0.054770
    97  H    0.031054
    98  H    0.089769
    99  H    0.056373
   100  H    0.073711
   101  H    0.069314
   102  H    0.072410
   103  H    0.045915
   104  H    0.022542
   105  H    0.038201
   106  H    0.047907
   107  H    0.056832
   108  H    0.038275
   109  H    0.025782
   110  H    0.044405
   111  H    0.041346
   112  H    0.021667
   113  H    0.035416
   114  H    0.033912
   115  H    0.026696
   116  H    0.039540
   117  H    0.025531
   118  H    0.019817
   119  H    0.025677
   120  H    0.038256
   121  H    0.033553
   122  H    0.041620
   123  H    0.029147
   124  H    0.031065
   125  H    0.040596
   126  H    0.025403
   127  H    0.042396
   128  H    0.005596
   129  H    0.015999
   130  H    0.043079
   131  H    0.039456
   132  H    0.025558
   133  H    0.030233
   134  H    0.031880
   135  H    0.025512
   136  H    0.048826
   137  H    0.055668
   138  H    0.031214
   139  H    0.056105
   140  H    0.030434
 Sum of Mulliken charges =  -0.00000

 Dipole moment (field-independent basis, Debye):
    X=              0.3329    Y=              7.3538    Z=              0.7427  Tot=              7.3987
 Quadrupole moment (field-independent basis, Debye-Ang):
   XX=           -408.6241   YY=           -411.0184   ZZ=           -405.4842
   XY=            -42.6948   XZ=            -30.9042   YZ=            -38.3894

 Normal termination of Gaussian 16 at Fri Apr 29 03:56:45 2022.
