 Gaussian 16, Revision A.03,
 Gaussian 16:  ES64L-G16RevA.03 25-Dec-2016

 --------------------------------
 #p wB97XD/Def2SVP td=(nstates=5)
 --------------------------------

 -----------------------------------------------------
 step_1851_chromophore_26 TDDFT with wB97XD functional
 -----------------------------------------------------
 Symbolic Z-matrix:
 Charge =  0 Multiplicity = 1

                         Standard orientation:
 ---------------------------------------------------------------------
 Center     Atomic      Atomic             Coordinates (Angstroms)
 Number     Number       Type             X           Y           Z
 ---------------------------------------------------------------------
      1         12           0       -3.956553    1.341192    0.727381
      2          6           0       -5.293661   -1.875718   -0.220352
      3          6           0       -2.487169   -0.302572    3.380134
      4          6           0       -2.444371    4.091230    1.318334
      5          6           0       -5.228048    2.600241   -2.329646
      6          7           0       -3.792594   -0.910026    1.401588
      7          6           0       -4.433019   -1.963523    0.860738
      8          6           0       -3.986862   -3.222729    1.632883
      9          6           0       -3.503462   -2.627073    3.038766
     10          6           0       -3.210670   -1.196991    2.601525
     11          6           0       -4.594530   -2.639558    4.165270
     12          6           0       -2.929778   -4.038531    0.934454
     13          6           0       -1.894600   -3.372137    0.006469
     14          6           0       -0.573255   -4.183005   -0.292675
     15          8           0       -0.226680   -5.304728    0.160086
     16          8           0        0.292753   -3.439090   -1.035427
     17          7           0       -2.551980    1.748983    2.047253
     18          6           0       -2.166597    0.975508    3.089012
     19          6           0       -1.302659    1.691368    3.960287
     20          6           0       -1.142833    3.028813    3.386136
     21          6           0       -2.040025    3.043359    2.201608
     22          6           0       -0.413555    1.077847    5.112753
     23          6           0       -0.165346    4.218627    3.866651
     24          8           0        0.547311    4.016782    4.854053
     25          6           0       -0.103910    5.538165    3.183137
     26          7           0       -3.824206    3.062127   -0.386116
     27          6           0       -3.128544    4.150277    0.128945
     28          6           0       -3.346271    5.395184   -0.684640
     29          6           0       -3.988165    4.774577   -2.029735
     30          6           0       -4.363702    3.374420   -1.554789
     31          6           0       -4.335887    6.395105    0.013284
     32          6           0       -2.961145    4.858363   -3.245815
     33          6           0       -3.468068    5.519188   -4.551146
     34          7           0       -5.131209    0.580610   -0.900467
     35          6           0       -5.574490    1.271461   -2.058876
     36          6           0       -6.507861    0.323297   -2.799599
     37          6           0       -6.328565   -0.879034   -2.151568
     38          6           0       -5.479271   -0.682473   -0.988809
     39          6           0       -7.456326    0.634628   -3.919943
     40          6           0       -6.644685   -2.277241   -2.223818
     41          8           0       -7.339003   -2.885201   -3.086278
     42          6           0       -5.880539   -3.014669   -1.096175
     43          6           0       -6.828087   -3.916109   -0.421771
     44          8           0       -6.803595   -5.150867   -0.524603
     45          8           0       -7.603690   -3.255079    0.448435
     46          6           0       -8.088990   -4.032736    1.597763
     47          6           0        1.601868   -4.061015   -1.087337
     48          6           0        2.489562   -3.146165   -1.787465
     49          6           0        3.772228   -2.819665   -1.648259
     50          6           0        4.737672   -3.548917   -0.641930
     51          6           0        4.479227   -1.780654   -2.564203
     52          6           0        4.007981   -0.372121   -2.288376
     53          6           0        4.943296    0.612964   -2.931995
     54          6           0        5.523533    1.673225   -1.914352
     55          6           0        5.396022    3.076261   -2.480353
     56          6           0        7.031463    1.391784   -1.464461
     57          6           0        7.167348    1.157586    0.048041
     58          6           0        7.652762   -0.333245    0.400972
     59          6           0        9.094254   -0.481992    0.963678
     60          6           0        9.285283   -1.771119    1.838955
     61          6           0       10.149086   -0.618273   -0.248668
     62          6           0       11.410592    0.236495   -0.187632
     63          6           0       12.673931   -0.520813   -0.847754
     64          6           0       13.910192   -0.664318    0.060775
     65          6           0       14.342998    0.660468    0.878518
     66          6           0       15.047860   -1.357418   -0.810784
     67          1           0       -2.183592   -0.751679    4.328382
     68          1           0       -2.139390    5.020901    1.802769
     69          1           0       -5.626305    3.070232   -3.231830
     70          1           0       -4.862694   -3.854057    1.782495
     71          1           0       -2.580851   -3.145962    3.296186
     72          1           0       -5.331094   -3.431323    4.026933
     73          1           0       -5.101905   -1.678804    4.087939
     74          1           0       -4.049783   -2.841132    5.087428
     75          1           0       -3.454610   -4.720155    0.265888
     76          1           0       -2.494534   -4.622954    1.746277
     77          1           0       -1.650223   -2.418975    0.475370
     78          1           0       -2.434795   -3.290995   -0.937051
     79          1           0        0.650930    1.179221    4.898507
     80          1           0       -0.586267    0.003075    5.167160
     81          1           0       -0.678755    1.478092    6.091002
     82          1           0       -0.880543    6.251837    3.456850
     83          1           0       -0.126105    5.246285    2.133237
     84          1           0        0.918052    5.856050    3.390547
     85          1           0       -2.427603    5.970906   -0.791008
     86          1           0       -4.949331    5.215115   -2.297382
     87          1           0       -4.215169    7.369608   -0.459899
     88          1           0       -4.066582    6.435236    1.068298
     89          1           0       -5.305175    5.939614   -0.190243
     90          1           0       -2.782196    3.818668   -3.519410
     91          1           0       -2.131388    5.482439   -2.911973
     92          1           0       -3.617793    4.752305   -5.310473
     93          1           0       -2.702013    6.236298   -4.844631
     94          1           0       -4.429300    6.030183   -4.489969
     95          1           0       -8.398162    0.086781   -3.878476
     96          1           0       -7.027171    0.372934   -4.887041
     97          1           0       -7.523006    1.718858   -4.002137
     98          1           0       -5.060114   -3.528151   -1.597157
     99          1           0       -7.708332   -3.465241    2.447196
    100          1           0       -7.755081   -5.062427    1.725786
    101          1           0       -9.176333   -4.074319    1.534994
    102          1           0        1.574221   -5.061727   -1.517663
    103          1           0        1.968576   -4.081619   -0.061729
    104          1           0        1.961091   -2.550259   -2.531651
    105          1           0        4.252285   -4.255514    0.031124
    106          1           0        5.264151   -2.838738   -0.004136
    107          1           0        5.457254   -4.036272   -1.300033
    108          1           0        4.203402   -1.966884   -3.602074
    109          1           0        5.566669   -1.826646   -2.500671
    110          1           0        4.040066   -0.348848   -1.199531
    111          1           0        3.024483   -0.289300   -2.752210
    112          1           0        4.242905    1.144448   -3.577831
    113          1           0        5.787761    0.191024   -3.475629
    114          1           0        5.005329    1.608481   -0.957907
    115          1           0        4.382969    3.393550   -2.726283
    116          1           0        6.019323    3.171493   -3.369219
    117          1           0        5.632556    3.870956   -1.773148
    118          1           0        7.701248    2.233523   -1.640334
    119          1           0        7.543060    0.605714   -2.018674
    120          1           0        6.233381    1.235378    0.605965
    121          1           0        7.821987    1.924141    0.461504
    122          1           0        7.591399   -0.972660   -0.479691
    123          1           0        7.107296   -0.809421    1.215373
    124          1           0        9.512371    0.378831    1.485398
    125          1           0        8.451545   -2.463169    1.722986
    126          1           0        9.243747   -1.443317    2.877281
    127          1           0       10.303373   -2.148242    1.738756
    128          1           0        9.653083   -0.363872   -1.184550
    129          1           0       10.419813   -1.647950   -0.481247
    130          1           0       11.659191    0.469586    0.848297
    131          1           0       11.066520    1.077563   -0.789190
    132          1           0       12.967559   -0.047456   -1.785484
    133          1           0       12.499116   -1.534973   -1.205069
    134          1           0       13.697844   -1.333203    0.894668
    135          1           0       15.420494    0.711431    0.720687
    136          1           0       14.178585    0.453583    1.936281
    137          1           0       13.831999    1.477130    0.368774
    138          1           0       14.768063   -1.263523   -1.859989
    139          1           0       15.087914   -2.408532   -0.524746
    140          1           0       15.853090   -0.647646   -0.624457
 ---------------------------------------------------------------------

 SCF Done:  E(RwB97XD) =  -3007.82566470     A.U. after   19 cycles

 Excitation energies and oscillator strengths:

 Excited State   1:      Singlet-A      1.6588 eV  747.45 nm  f=0.3576  <S**2>=0.000
     245 -> 248       -0.17596
     246 -> 247        0.68449
     245 <- 248       -0.11431
 This state for optimization and/or second-order correction.
 Total Energy, E(TD-HF/TD-DFT) =  -3007.76470661
 Copying the excited state density for this state as the 1-particle RhoCI density.

 Excited State   2:      Singlet-A      2.2724 eV  545.62 nm  f=0.0534  <S**2>=0.000
     245 -> 247        0.60374
     246 -> 248        0.35384

 Excited State   3:      Singlet-A      3.2977 eV  375.97 nm  f=0.0002  <S**2>=0.000
     240 -> 247        0.50699
     240 -> 249        0.34496
     240 -> 250       -0.12473
     241 -> 247       -0.20367
     241 -> 249       -0.12838

 Excited State   4:      Singlet-A      3.4800 eV  356.28 nm  f=0.5068  <S**2>=0.000
     240 -> 247       -0.13570
     241 -> 247       -0.32528
     245 -> 247       -0.28298
     246 -> 248        0.53275

 Excited State   5:      Singlet-A      3.5051 eV  353.72 nm  f=0.0160  <S**2>=0.000
     241 -> 247       -0.19557
     243 -> 247        0.63763
     243 -> 249       -0.10964
     246 -> 248       -0.11745

 The electronic state is 1-A.
 Alpha  occ. eigenvalues --  -46.95115 -19.30745 -19.30537 -19.24659 -19.24285
 Alpha  occ. eigenvalues --  -19.24063 -19.23986 -14.47330 -14.46569 -14.44984
 Alpha  occ. eigenvalues --  -14.44300 -10.43772 -10.43041 -10.39766 -10.39401
 Alpha  occ. eigenvalues --  -10.36128 -10.35888 -10.35583 -10.35421 -10.35268
 Alpha  occ. eigenvalues --  -10.35069 -10.35056 -10.34436 -10.34072 -10.33920
 Alpha  occ. eigenvalues --  -10.32999 -10.32989 -10.32837 -10.32808 -10.32735
 Alpha  occ. eigenvalues --  -10.32239 -10.32200 -10.32186 -10.32098 -10.31994
 Alpha  occ. eigenvalues --  -10.31831 -10.31424 -10.31411 -10.30975 -10.30933
 Alpha  occ. eigenvalues --  -10.30915 -10.30817 -10.30609 -10.30501 -10.30415
 Alpha  occ. eigenvalues --  -10.29978 -10.29964 -10.29910 -10.29885 -10.29749
 Alpha  occ. eigenvalues --  -10.29660 -10.29560 -10.29228 -10.29185 -10.29176
 Alpha  occ. eigenvalues --  -10.28861 -10.28857 -10.28822 -10.28566 -10.28535
 Alpha  occ. eigenvalues --  -10.28473 -10.28438 -10.28385 -10.28230 -10.28172
 Alpha  occ. eigenvalues --  -10.27667  -3.21271  -1.94844  -1.94410  -1.94242
 Alpha  occ. eigenvalues --   -1.19254  -1.18918  -1.11683  -1.10308  -1.08958
 Alpha  occ. eigenvalues --   -1.08404  -1.07239  -1.06403  -1.05596  -1.04524
 Alpha  occ. eigenvalues --   -0.94936  -0.92208  -0.91721  -0.91362  -0.90828
 Alpha  occ. eigenvalues --   -0.90562  -0.90359  -0.89798  -0.89485  -0.88525
 Alpha  occ. eigenvalues --   -0.87665  -0.86837  -0.86783  -0.86408  -0.85646
 Alpha  occ. eigenvalues --   -0.84692  -0.84224  -0.83738  -0.83393  -0.82658
 Alpha  occ. eigenvalues --   -0.81730  -0.80619  -0.80225  -0.79462  -0.78666
 Alpha  occ. eigenvalues --   -0.77509  -0.77166  -0.77143  -0.76172  -0.75617
 Alpha  occ. eigenvalues --   -0.75403  -0.74849  -0.74489  -0.72142  -0.71434
 Alpha  occ. eigenvalues --   -0.70829  -0.70005  -0.68807  -0.68589  -0.68148
 Alpha  occ. eigenvalues --   -0.67511  -0.67072  -0.66813  -0.66663  -0.65745
 Alpha  occ. eigenvalues --   -0.65710  -0.65433  -0.64868  -0.63552  -0.62473
 Alpha  occ. eigenvalues --   -0.62117  -0.61732  -0.61193  -0.60415  -0.60101
 Alpha  occ. eigenvalues --   -0.59724  -0.58827  -0.58505  -0.58337  -0.58270
 Alpha  occ. eigenvalues --   -0.57457  -0.57319  -0.56937  -0.56620  -0.56454
 Alpha  occ. eigenvalues --   -0.55515  -0.55458  -0.55338  -0.55175  -0.54995
 Alpha  occ. eigenvalues --   -0.54841  -0.54787  -0.54433  -0.54343  -0.53916
 Alpha  occ. eigenvalues --   -0.53854  -0.53809  -0.53372  -0.53185  -0.52925
 Alpha  occ. eigenvalues --   -0.52527  -0.52018  -0.51823  -0.51581  -0.51511
 Alpha  occ. eigenvalues --   -0.51309  -0.51174  -0.51062  -0.50799  -0.50761
 Alpha  occ. eigenvalues --   -0.50567  -0.50265  -0.50028  -0.49736  -0.49420
 Alpha  occ. eigenvalues --   -0.49303  -0.49250  -0.49097  -0.48983  -0.48722
 Alpha  occ. eigenvalues --   -0.48579  -0.48479  -0.48243  -0.48228  -0.47831
 Alpha  occ. eigenvalues --   -0.47698  -0.47395  -0.47146  -0.46979  -0.46766
 Alpha  occ. eigenvalues --   -0.46624  -0.46456  -0.46381  -0.46028  -0.45787
 Alpha  occ. eigenvalues --   -0.45590  -0.45174  -0.45064  -0.44901  -0.44802
 Alpha  occ. eigenvalues --   -0.44581  -0.44484  -0.44386  -0.44315  -0.44201
 Alpha  occ. eigenvalues --   -0.44146  -0.44028  -0.43806  -0.43749  -0.43697
 Alpha  occ. eigenvalues --   -0.42970  -0.42947  -0.42675  -0.42614  -0.42449
 Alpha  occ. eigenvalues --   -0.42236  -0.41123  -0.41009  -0.40719  -0.40322
 Alpha  occ. eigenvalues --   -0.40209  -0.40003  -0.39787  -0.39776  -0.39602
 Alpha  occ. eigenvalues --   -0.38904  -0.38817  -0.38614  -0.38510  -0.38031
 Alpha  occ. eigenvalues --   -0.37778  -0.37485  -0.36531  -0.36458  -0.36206
 Alpha  occ. eigenvalues --   -0.35747  -0.35682  -0.35119  -0.34032  -0.33098
 Alpha  occ. eigenvalues --   -0.33056  -0.32972  -0.31939  -0.31702  -0.27034
 Alpha  occ. eigenvalues --   -0.23209
 Alpha virt. eigenvalues --   -0.07300  -0.00627   0.01965   0.03750   0.04702
 Alpha virt. eigenvalues --    0.06792   0.06997   0.07837   0.08934   0.09212
 Alpha virt. eigenvalues --    0.09847   0.10523   0.11231   0.11689   0.11930

 Mulliken charges:
               1
     1  Mg   0.977205
     2  C   -0.007186
     3  C   -0.113717
     4  C   -0.099704
     5  C   -0.104636
     6  N   -0.294153
     7  C   -0.015658
     8  C   -0.060437
     9  C   -0.114394
    10  C   -0.017591
    11  C    0.039925
    12  C    0.005054
    13  C   -0.026380
    14  C    0.256532
    15  O   -0.297128
    16  O   -0.351209
    17  N   -0.519562
    18  C    0.255133
    19  C   -0.190037
    20  C   -0.083148
    21  C    0.123037
    22  C    0.080669
    23  C    0.048538
    24  O   -0.242558
    25  C    0.000253
    26  N   -0.385317
    27  C    0.118772
    28  C   -0.110308
    29  C   -0.089010
    30  C    0.067570
    31  C    0.024852
    32  C    0.006610
    33  C   -0.069184
    34  N   -0.413437
    35  C    0.137090
    36  C   -0.183762
    37  C    0.003818
    38  C    0.116062
    39  C    0.094719
    40  C    0.094334
    41  O   -0.241023
    42  C   -0.065881
    43  C    0.268115
    44  O   -0.258350
    45  O   -0.349230
    46  C    0.127791
    47  C    0.289247
    48  C   -0.160377
    49  C   -0.197276
    50  C    0.015313
    51  C    0.000208
    52  C   -0.028042
    53  C    0.038771
    54  C   -0.153736
    55  C   -0.008438
    56  C    0.003157
    57  C   -0.029321
    58  C   -0.006551
    59  C   -0.194306
    60  C    0.008701
    61  C   -0.035607
    62  C   -0.006216
    63  C   -0.016868
    64  C   -0.276046
    65  C   -0.007067
    66  C    0.009767
    67  H    0.000308
    68  H   -0.014621
    69  H    0.004204
    70  H    0.017173
    71  H    0.031447
    72  H    0.036684
    73  H    0.050309
    74  H    0.052596
    75  H    0.046024
    76  H    0.045114
    77  H    0.081090
    78  H    0.064487
    79  H    0.064564
    80  H    0.009279
    81  H    0.055799
    82  H    0.089600
    83  H    0.045149
    84  H    0.060964
    85  H    0.033579
    86  H    0.029694
    87  H    0.047754
    88  H    0.039676
    89  H    0.039589
    90  H    0.048770
    91  H    0.044296
    92  H    0.040025
    93  H    0.042929
    94  H    0.031366
    95  H    0.073511
    96  H    0.051179
    97  H    0.025601
    98  H    0.083145
    99  H    0.052456
   100  H    0.070628
   101  H    0.066327
   102  H    0.068330
   103  H    0.037459
   104  H    0.018230
   105  H    0.033365
   106  H    0.040485
   107  H    0.050265
   108  H    0.030185
   109  H    0.015047
   110  H    0.030792
   111  H    0.033492
   112  H    0.013554
   113  H    0.027093
   114  H    0.019035
   115  H    0.020562
   116  H    0.032665
   117  H    0.019496
   118  H    0.012319
   119  H    0.013332
   120  H    0.030186
   121  H    0.026859
   122  H    0.026619
   123  H    0.019157
   124  H    0.018734
   125  H    0.034604
   126  H    0.019335
   127  H    0.035442
   128  H   -0.007320
   129  H    0.004743
   130  H    0.031090
   131  H    0.031659
   132  H    0.015934
   133  H    0.019704
   134  H    0.019721
   135  H    0.018296
   136  H    0.044013
   137  H    0.048376
   138  H    0.023852
   139  H    0.051390
   140  H    0.022815
 Sum of Mulliken charges =  -0.00000

 Dipole moment (field-independent basis, Debye):
    X=             -0.0219    Y=              7.2411    Z=              0.4039  Tot=              7.2523
 Quadrupole moment (field-independent basis, Debye-Ang):
   XX=           -405.3690   YY=           -411.2170   ZZ=           -405.4987
   XY=            -42.0099   XZ=            -29.5959   YZ=            -38.3807

 Normal termination of Gaussian 16 at Fri Apr 29 04:26:34 2022.
