 Gaussian 16, Revision A.03,
 Gaussian 16:  ES64L-G16RevA.03 25-Dec-2016

 --------------------
 #p ZINDO=(nstates=5)
 --------------------

 ------------------------------
 step_1851_chromophore_26 ZINDO
 ------------------------------
 Symbolic Z-matrix:
 Charge =  0 Multiplicity = 1

                         Standard orientation:
 ---------------------------------------------------------------------
 Center     Atomic      Atomic             Coordinates (Angstroms)
 Number     Number       Type             X           Y           Z
 ---------------------------------------------------------------------
      1         12           0       -3.956553    1.341192    0.727381
      2          6           0       -5.293661   -1.875718   -0.220352
      3          6           0       -2.487169   -0.302572    3.380134
      4          6           0       -2.444371    4.091230    1.318334
      5          6           0       -5.228048    2.600241   -2.329646
      6          7           0       -3.792594   -0.910026    1.401588
      7          6           0       -4.433019   -1.963523    0.860738
      8          6           0       -3.986862   -3.222729    1.632883
      9          6           0       -3.503462   -2.627073    3.038766
     10          6           0       -3.210670   -1.196991    2.601525
     11          6           0       -4.594530   -2.639558    4.165270
     12          6           0       -2.929778   -4.038531    0.934454
     13          6           0       -1.894600   -3.372137    0.006469
     14          6           0       -0.573255   -4.183005   -0.292675
     15          8           0       -0.226680   -5.304728    0.160086
     16          8           0        0.292753   -3.439090   -1.035427
     17          7           0       -2.551980    1.748983    2.047253
     18          6           0       -2.166597    0.975508    3.089012
     19          6           0       -1.302659    1.691368    3.960287
     20          6           0       -1.142833    3.028813    3.386136
     21          6           0       -2.040025    3.043359    2.201608
     22          6           0       -0.413555    1.077847    5.112753
     23          6           0       -0.165346    4.218627    3.866651
     24          8           0        0.547311    4.016782    4.854053
     25          6           0       -0.103910    5.538165    3.183137
     26          7           0       -3.824206    3.062127   -0.386116
     27          6           0       -3.128544    4.150277    0.128945
     28          6           0       -3.346271    5.395184   -0.684640
     29          6           0       -3.988165    4.774577   -2.029735
     30          6           0       -4.363702    3.374420   -1.554789
     31          6           0       -4.335887    6.395105    0.013284
     32          6           0       -2.961145    4.858363   -3.245815
     33          6           0       -3.468068    5.519188   -4.551146
     34          7           0       -5.131209    0.580610   -0.900467
     35          6           0       -5.574490    1.271461   -2.058876
     36          6           0       -6.507861    0.323297   -2.799599
     37          6           0       -6.328565   -0.879034   -2.151568
     38          6           0       -5.479271   -0.682473   -0.988809
     39          6           0       -7.456326    0.634628   -3.919943
     40          6           0       -6.644685   -2.277241   -2.223818
     41          8           0       -7.339003   -2.885201   -3.086278
     42          6           0       -5.880539   -3.014669   -1.096175
     43          6           0       -6.828087   -3.916109   -0.421771
     44          8           0       -6.803595   -5.150867   -0.524603
     45          8           0       -7.603690   -3.255079    0.448435
     46          6           0       -8.088990   -4.032736    1.597763
     47          6           0        1.601868   -4.061015   -1.087337
     48          6           0        2.489562   -3.146165   -1.787465
     49          6           0        3.772228   -2.819665   -1.648259
     50          6           0        4.737672   -3.548917   -0.641930
     51          6           0        4.479227   -1.780654   -2.564203
     52          6           0        4.007981   -0.372121   -2.288376
     53          6           0        4.943296    0.612964   -2.931995
     54          6           0        5.523533    1.673225   -1.914352
     55          6           0        5.396022    3.076261   -2.480353
     56          6           0        7.031463    1.391784   -1.464461
     57          6           0        7.167348    1.157586    0.048041
     58          6           0        7.652762   -0.333245    0.400972
     59          6           0        9.094254   -0.481992    0.963678
     60          6           0        9.285283   -1.771119    1.838955
     61          6           0       10.149086   -0.618273   -0.248668
     62          6           0       11.410592    0.236495   -0.187632
     63          6           0       12.673931   -0.520813   -0.847754
     64          6           0       13.910192   -0.664318    0.060775
     65          6           0       14.342998    0.660468    0.878518
     66          6           0       15.047860   -1.357418   -0.810784
     67          1           0       -2.183592   -0.751679    4.328382
     68          1           0       -2.139390    5.020901    1.802769
     69          1           0       -5.626305    3.070232   -3.231830
     70          1           0       -4.862694   -3.854057    1.782495
     71          1           0       -2.580851   -3.145962    3.296186
     72          1           0       -5.331094   -3.431323    4.026933
     73          1           0       -5.101905   -1.678804    4.087939
     74          1           0       -4.049783   -2.841132    5.087428
     75          1           0       -3.454610   -4.720155    0.265888
     76          1           0       -2.494534   -4.622954    1.746277
     77          1           0       -1.650223   -2.418975    0.475370
     78          1           0       -2.434795   -3.290995   -0.937051
     79          1           0        0.650930    1.179221    4.898507
     80          1           0       -0.586267    0.003075    5.167160
     81          1           0       -0.678755    1.478092    6.091002
     82          1           0       -0.880543    6.251837    3.456850
     83          1           0       -0.126105    5.246285    2.133237
     84          1           0        0.918052    5.856050    3.390547
     85          1           0       -2.427603    5.970906   -0.791008
     86          1           0       -4.949331    5.215115   -2.297382
     87          1           0       -4.215169    7.369608   -0.459899
     88          1           0       -4.066582    6.435236    1.068298
     89          1           0       -5.305175    5.939614   -0.190243
     90          1           0       -2.782196    3.818668   -3.519410
     91          1           0       -2.131388    5.482439   -2.911973
     92          1           0       -3.617793    4.752305   -5.310473
     93          1           0       -2.702013    6.236298   -4.844631
     94          1           0       -4.429300    6.030183   -4.489969
     95          1           0       -8.398162    0.086781   -3.878476
     96          1           0       -7.027171    0.372934   -4.887041
     97          1           0       -7.523006    1.718858   -4.002137
     98          1           0       -5.060114   -3.528151   -1.597157
     99          1           0       -7.708332   -3.465241    2.447196
    100          1           0       -7.755081   -5.062427    1.725786
    101          1           0       -9.176333   -4.074319    1.534994
    102          1           0        1.574221   -5.061727   -1.517663
    103          1           0        1.968576   -4.081619   -0.061729
    104          1           0        1.961091   -2.550259   -2.531651
    105          1           0        4.252285   -4.255514    0.031124
    106          1           0        5.264151   -2.838738   -0.004136
    107          1           0        5.457254   -4.036272   -1.300033
    108          1           0        4.203402   -1.966884   -3.602074
    109          1           0        5.566669   -1.826646   -2.500671
    110          1           0        4.040066   -0.348848   -1.199531
    111          1           0        3.024483   -0.289300   -2.752210
    112          1           0        4.242905    1.144448   -3.577831
    113          1           0        5.787761    0.191024   -3.475629
    114          1           0        5.005329    1.608481   -0.957907
    115          1           0        4.382969    3.393550   -2.726283
    116          1           0        6.019323    3.171493   -3.369219
    117          1           0        5.632556    3.870956   -1.773148
    118          1           0        7.701248    2.233523   -1.640334
    119          1           0        7.543060    0.605714   -2.018674
    120          1           0        6.233381    1.235378    0.605965
    121          1           0        7.821987    1.924141    0.461504
    122          1           0        7.591399   -0.972660   -0.479691
    123          1           0        7.107296   -0.809421    1.215373
    124          1           0        9.512371    0.378831    1.485398
    125          1           0        8.451545   -2.463169    1.722986
    126          1           0        9.243747   -1.443317    2.877281
    127          1           0       10.303373   -2.148242    1.738756
    128          1           0        9.653083   -0.363872   -1.184550
    129          1           0       10.419813   -1.647950   -0.481247
    130          1           0       11.659191    0.469586    0.848297
    131          1           0       11.066520    1.077563   -0.789190
    132          1           0       12.967559   -0.047456   -1.785484
    133          1           0       12.499116   -1.534973   -1.205069
    134          1           0       13.697844   -1.333203    0.894668
    135          1           0       15.420494    0.711431    0.720687
    136          1           0       14.178585    0.453583    1.936281
    137          1           0       13.831999    1.477130    0.368774
    138          1           0       14.768063   -1.263523   -1.859989
    139          1           0       15.087914   -2.408532   -0.524746
    140          1           0       15.853090   -0.647646   -0.624457
 ---------------------------------------------------------------------

 SCF Done:  E(RZINDO/S) =  -474.032264817     A.U. after   19 cycles

 Excitation energies and oscillator strengths:

 Excited State   1:      Singlet-A      1.2693 eV  976.77 nm  f=0.5811  <S**2>=0.000
     175 ->178         0.17905
     176 ->177         0.66669
 This state for optimization and/or second-order correction.
 Total Energy, E(CIS/TDA) =  -473.985617873
 Copying the excited state density for this state as the 1-particle RhoCI density.

 Excited State   2:      Singlet-A      1.9737 eV  628.19 nm  f=0.0018  <S**2>=0.000
     175 ->177        -0.48687
     176 ->178         0.48968

 Excited State   3:      Singlet-A      2.8332 eV  437.61 nm  f=0.0001  <S**2>=0.000
     166 ->179        -0.10953
     167 ->179        -0.10918
     168 ->177         0.36917
     168 ->179        -0.46510
     168 ->180         0.11772
     168 ->184        -0.10534
     168 ->185        -0.14049

 Excited State   4:      Singlet-A      2.9945 eV  414.04 nm  f=0.1334  <S**2>=0.000
     175 ->177        -0.17524
     176 ->178        -0.15508
     176 ->179         0.62025

 Excited State   5:      Singlet-A      3.0442 eV  407.28 nm  f=1.1169  <S**2>=0.000
     175 ->177         0.42175
     176 ->178         0.43877
     176 ->179         0.19406
     176 ->180         0.19699
     176 ->181         0.11247

 The electronic state is 1-A.
 Alpha  occ. eigenvalues --   -1.84565  -1.82552  -1.81012  -1.74900  -1.73995
 Alpha  occ. eigenvalues --   -1.71516  -1.63636  -1.59496  -1.57794  -1.57480
 Alpha  occ. eigenvalues --   -1.53446  -1.50043  -1.47899  -1.46658  -1.46110
 Alpha  occ. eigenvalues --   -1.44984  -1.41821  -1.41396  -1.38652  -1.37664
 Alpha  occ. eigenvalues --   -1.36120  -1.34320  -1.32934  -1.30755  -1.28517
 Alpha  occ. eigenvalues --   -1.28207  -1.27810  -1.23058  -1.21751  -1.18957
 Alpha  occ. eigenvalues --   -1.17015  -1.16200  -1.15214  -1.13470  -1.13227
 Alpha  occ. eigenvalues --   -1.10979  -1.09458  -1.08680  -1.06684  -1.05404
 Alpha  occ. eigenvalues --   -1.02552  -1.01142  -0.99154  -0.98067  -0.97279
 Alpha  occ. eigenvalues --   -0.96857  -0.93831  -0.92894  -0.92223  -0.91249
 Alpha  occ. eigenvalues --   -0.90559  -0.90207  -0.89344  -0.88594  -0.85405
 Alpha  occ. eigenvalues --   -0.85360  -0.85226  -0.84268  -0.83214  -0.81488
 Alpha  occ. eigenvalues --   -0.80576  -0.78333  -0.77568  -0.77400  -0.75988
 Alpha  occ. eigenvalues --   -0.75169  -0.74713  -0.73944  -0.73623  -0.73402
 Alpha  occ. eigenvalues --   -0.73195  -0.72563  -0.72095  -0.71366  -0.71132
 Alpha  occ. eigenvalues --   -0.70558  -0.69492  -0.69146  -0.68665  -0.68527
 Alpha  occ. eigenvalues --   -0.67471  -0.67268  -0.67019  -0.66613  -0.65468
 Alpha  occ. eigenvalues --   -0.65008  -0.64720  -0.64616  -0.63972  -0.63690
 Alpha  occ. eigenvalues --   -0.63338  -0.63179  -0.63023  -0.62244  -0.62084
 Alpha  occ. eigenvalues --   -0.61840  -0.61433  -0.61146  -0.60535  -0.60481
 Alpha  occ. eigenvalues --   -0.60119  -0.59702  -0.59092  -0.58892  -0.58420
 Alpha  occ. eigenvalues --   -0.58180  -0.57751  -0.57479  -0.57006  -0.56636
 Alpha  occ. eigenvalues --   -0.56099  -0.55777  -0.55604  -0.55171  -0.54472
 Alpha  occ. eigenvalues --   -0.54096  -0.53912  -0.53447  -0.53190  -0.53034
 Alpha  occ. eigenvalues --   -0.52821  -0.52652  -0.52383  -0.52152  -0.51901
 Alpha  occ. eigenvalues --   -0.51836  -0.51510  -0.51383  -0.50933  -0.50888
 Alpha  occ. eigenvalues --   -0.50638  -0.49989  -0.49718  -0.49279  -0.49188
 Alpha  occ. eigenvalues --   -0.49074  -0.48861  -0.48517  -0.48256  -0.48073
 Alpha  occ. eigenvalues --   -0.47415  -0.47307  -0.47214  -0.47075  -0.46663
 Alpha  occ. eigenvalues --   -0.46389  -0.46244  -0.46139  -0.45659  -0.45306
 Alpha  occ. eigenvalues --   -0.44520  -0.44487  -0.44343  -0.44276  -0.43807
 Alpha  occ. eigenvalues --   -0.43597  -0.43311  -0.43146  -0.42250  -0.42105
 Alpha  occ. eigenvalues --   -0.42054  -0.41611  -0.41209  -0.39774  -0.38790
 Alpha  occ. eigenvalues --   -0.38403  -0.37450  -0.36036  -0.35732  -0.35235
 Alpha  occ. eigenvalues --   -0.34498  -0.33411  -0.32142  -0.32122  -0.27764
 Alpha  occ. eigenvalues --   -0.21988
 Alpha virt. eigenvalues --   -0.08719  -0.02689  -0.01258   0.00908   0.01089
 Alpha virt. eigenvalues --    0.01142   0.01856   0.02565   0.04312   0.05545
 Alpha virt. eigenvalues --    0.05690   0.06248   0.06821   0.07013   0.07608

 Mulliken charges:
               1
     1  Mg   0.431674
     2  C   -0.082792
     3  C   -0.066014
     4  C   -0.062675
     5  C   -0.068588
     6  N   -0.310615
     7  C    0.155182
     8  C    0.004670
     9  C   -0.009005
    10  C    0.107838
    11  C   -0.048492
    12  C   -0.019551
    13  C    0.010435
    14  C    0.455745
    15  O   -0.525373
    16  O   -0.257565
    17  N   -0.320034
    18  C    0.122951
    19  C   -0.011320
    20  C   -0.067023
    21  C    0.081344
    22  C   -0.040009
    23  C    0.324912
    24  O   -0.520909
    25  C   -0.028261
    26  N   -0.260423
    27  C    0.098393
    28  C   -0.004868
    29  C   -0.009646
    30  C    0.160064
    31  C   -0.055386
    32  C   -0.034212
    33  C   -0.060606
    34  N   -0.324078
    35  C    0.100835
    36  C    0.062382
    37  C   -0.045056
    38  C    0.142494
    39  C   -0.032492
    40  C    0.329215
    41  O   -0.526394
    42  C    0.061893
    43  C    0.498220
    44  O   -0.532240
    45  O   -0.263853
    46  C    0.077547
    47  C    0.120161
    48  C   -0.077542
    49  C   -0.024521
    50  C   -0.051425
    51  C   -0.023117
    52  C   -0.028993
    53  C   -0.035926
    54  C   -0.013803
    55  C   -0.052465
    56  C   -0.039146
    57  C   -0.036587
    58  C   -0.038775
    59  C   -0.022077
    60  C   -0.062085
    61  C   -0.052521
    62  C   -0.042500
    63  C   -0.038209
    64  C   -0.034871
    65  C   -0.069415
    66  C   -0.072622
    67  H    0.030256
    68  H    0.018743
    69  H    0.031023
    70  H    0.025254
    71  H    0.034360
    72  H    0.020665
    73  H    0.032307
    74  H    0.027559
    75  H    0.019709
    76  H    0.031848
    77  H    0.052353
    78  H    0.046072
    79  H    0.039049
    80  H    0.011846
    81  H    0.036438
    82  H    0.055284
    83  H    0.029463
    84  H    0.041273
    85  H    0.031272
    86  H    0.032512
    87  H    0.022194
    88  H    0.028102
    89  H    0.027903
    90  H    0.031908
    91  H    0.033139
    92  H    0.019083
    93  H    0.021627
    94  H    0.020528
    95  H    0.050571
    96  H    0.035794
    97  H    0.023328
    98  H    0.064980
    99  H    0.029922
   100  H    0.054246
   101  H    0.042544
   102  H    0.063558
   103  H    0.045382
   104  H    0.015800
   105  H    0.025301
   106  H    0.024937
   107  H    0.028000
   108  H    0.017244
   109  H    0.021763
   110  H    0.028324
   111  H    0.026727
   112  H    0.014786
   113  H    0.031143
   114  H    0.025076
   115  H    0.009897
   116  H    0.019714
   117  H    0.011105
   118  H    0.012830
   119  H    0.023347
   120  H    0.019929
   121  H    0.022275
   122  H    0.024777
   123  H    0.017501
   124  H    0.028961
   125  H    0.029977
   126  H    0.005469
   127  H    0.026830
   128  H    0.003380
   129  H    0.014787
   130  H    0.029024
   131  H    0.026583
   132  H    0.015117
   133  H    0.018366
   134  H    0.011841
   135  H    0.017144
   136  H    0.031176
   137  H    0.033038
   138  H    0.018606
   139  H    0.033522
   140  H    0.031738
 Sum of Mulliken charges =  -0.00000

 Dipole moment (field-independent basis, Debye):
    X=             -1.4734    Y=              8.7025    Z=             -2.2971  Tot=              9.1203
 N-N= 4.479057757934D+03 E-N= 0.000000000000D+00  KE=-9.631510038038D+03
 Leave Link  601 at Fri Apr 29 04:41:18 2022, MaxMem=  6710886400 cpu:               1.0 elap:               0.1
 (Enter /sw/apps/gaussian-16.0/g16/l9999.exe)
 1\1\GINC-BP1-COMPUTE137\SP\RZINDO CIS\STO-3G\C55H74Mg1N4O6\OF15641\29-
 Apr-2022\0\\#p ZINDO=(nstates=5)\\step_1851_chromophore_26 ZINDO\\0,1\
 Mg,0,-9.936,18.091,41.506\C,0,-6.424,17.373,41.936\C,0,-8.975,21.366,4
 1.007\C,0,-12.981,18.641,40.716\C,0,-10.508,14.597,41.616\N,0,-7.869,1
 9.208,41.335\C,0,-6.649,18.689,41.569\C,0,-5.614,19.803,41.307\C,0,-6.
 473,21.141,41.499\C,0,-7.862,20.569,41.243\C,0,-6.398,21.767,42.935\C,
 0,-4.934,19.717,39.965\C,0,-5.66,19.122,38.742\C,0,-5.089,19.495,37.31

 Normal termination of Gaussian 16 at Fri Apr 29 04:41:18 2022.
