 Gaussian 16, Revision A.03,
 Gaussian 16:  ES64L-G16RevA.03 25-Dec-2016

 ------------------------------
 #p blyp/Def2SVP td=(nstates=5)
 ------------------------------

 --------------------------------------------------
 step_151_chromophore_17 TDDFT with blyp functional
 --------------------------------------------------
 Symbolic Z-matrix:
 Charge =  0 Multiplicity = 1

                         Standard orientation:
 ---------------------------------------------------------------------
 Center     Atomic      Atomic             Coordinates (Angstroms)
 Number     Number       Type             X           Y           Z
 ---------------------------------------------------------------------
      1         12           0        4.130319    0.924733   -0.359326
      2          6           0        3.477994   -2.432762   -0.733709
      3          6           0        1.878817    1.664939   -2.810263
      4          6           0        4.366754    4.255524    0.307979
      5          6           0        5.803833    0.138074    2.614099
      6          7           0        2.779607   -0.278031   -1.562878
      7          6           0        2.695036   -1.615502   -1.586282
      8          6           0        1.647001   -2.024791   -2.572454
      9          6           0        1.479451   -0.700836   -3.508324
     10          6           0        2.082940    0.308763   -2.546799
     11          6           0        2.185996   -0.692455   -4.945349
     12          6           0        0.357120   -2.447021   -1.808578
     13          6           0        0.001107   -3.941167   -1.577939
     14          6           0       -1.459456   -4.416623   -1.829156
     15          8           0       -1.961531   -4.716410   -2.903180
     16          8           0       -2.128160   -4.434388   -0.653471
     17          7           0        3.281619    2.782959   -1.208794
     18          6           0        2.351997    2.822601   -2.244084
     19          6           0        2.103373    4.131705   -2.606061
     20          6           0        2.844030    4.996230   -1.772471
     21          6           0        3.553194    4.051296   -0.804808
     22          6           0        1.222144    4.549291   -3.784188
     23          6           0        2.957446    6.457792   -1.833420
     24          8           0        2.360056    7.187329   -2.575386
     25          6           0        3.946116    7.229506   -0.942690
     26          7           0        5.107679    2.056582    1.123405
     27          6           0        5.033676    3.386054    1.220325
     28          6           0        5.679777    3.802058    2.533485
     29          6           0        6.064516    2.560682    3.238600
     30          6           0        5.565092    1.499280    2.289078
     31          6           0        6.656979    5.063441    2.378216
     32          6           0        5.564162    2.406058    4.789104
     33          6           0        6.569480    1.698661    5.684282
     34          7           0        4.838105   -0.797875    0.647969
     35          6           0        5.440575   -0.930104    1.862850
     36          6           0        5.638580   -2.275553    2.112014
     37          6           0        4.861228   -2.955725    1.145010
     38          6           0        4.389603   -1.960671    0.275982
     39          6           0        6.497394   -2.807573    3.237448
     40          6           0        4.394857   -4.266846    0.655548
     41          8           0        4.511645   -5.435496    0.961811
     42          6           0        3.501747   -3.897528   -0.624475
     43          6           0        4.159356   -4.516037   -1.729525
     44          8           0        5.369113   -4.479865   -2.057831
     45          8           0        3.186616   -5.381745   -2.218352
     46          6           0        3.627595   -6.435485   -3.183667
     47          6           0       -3.518666   -4.828520   -0.762531
     48          6           0       -4.406799   -3.807038    0.023725
     49          6           0       -5.760904   -3.797701    0.189743
     50          6           0       -6.735207   -4.780250   -0.365649
     51          6           0       -6.385452   -2.741429    1.108007
     52          6           0       -6.193085   -2.861204    2.611660
     53          6           0       -5.074885   -1.869774    3.064044
     54          6           0       -5.592729   -0.857595    4.148825
     55          6           0       -4.466038   -0.290745    5.112066
     56          6           0       -6.256340    0.403100    3.370093
     57          6           0       -7.802774    0.592924    3.600295
     58          6           0       -8.678863    0.151091    2.402233
     59          6           0       -9.403791    1.365372    1.820090
     60          6           0      -10.865034    1.389192    2.340640
     61          6           0       -9.381697    1.445940    0.277373
     62          6           0       -8.611388    2.729125   -0.261492
     63          6           0       -9.367201    3.303879   -1.505157
     64          6           0       -8.370638    3.848054   -2.530878
     65          6           0       -7.894085    5.268863   -2.429430
     66          6           0       -8.835992    3.734396   -3.992237
     67          1           0        1.272900    1.799016   -3.708856
     68          1           0        4.228241    5.284512    0.646027
     69          1           0        6.378057   -0.064924    3.520840
     70          1           0        1.945368   -2.829609   -3.244285
     71          1           0        0.411190   -0.554630   -3.667717
     72          1           0        2.176456   -1.667977   -5.430719
     73          1           0        3.223910   -0.384626   -4.823758
     74          1           0        1.689811    0.078070   -5.535316
     75          1           0       -0.480801   -1.930156   -2.275719
     76          1           0        0.481661   -1.992545   -0.825110
     77          1           0        0.220686   -4.002878   -0.512159
     78          1           0        0.669149   -4.665475   -2.044445
     79          1           0        0.364063    5.155484   -3.491426
     80          1           0        0.804972    3.638975   -4.214086
     81          1           0        1.786008    5.149333   -4.498692
     82          1           0        3.508356    7.232012    0.055207
     83          1           0        4.046937    8.260060   -1.282708
     84          1           0        4.967805    6.849288   -0.936760
     85          1           0        4.863475    4.252559    3.098428
     86          1           0        7.145637    2.688495    3.286240
     87          1           0        6.573302    5.413637    1.349735
     88          1           0        7.692946    4.799199    2.590427
     89          1           0        6.371936    5.763220    3.164777
     90          1           0        4.715555    1.721901    4.784069
     91          1           0        5.188901    3.312893    5.263719
     92          1           0        6.812605    2.290096    6.566829
     93          1           0        7.559088    1.493023    5.274347
     94          1           0        6.158203    0.750267    6.028262
     95          1           0        6.564371   -3.859409    2.962863
     96          1           0        6.067117   -2.649294    4.226417
     97          1           0        7.493106   -2.407078    3.043883
     98          1           0        2.479526   -4.271350   -0.577671
     99          1           0        3.716057   -6.140813   -4.229960
    100          1           0        2.782182   -7.122726   -3.190214
    101          1           0        4.491626   -6.865034   -2.677436
    102          1           0       -3.557851   -5.758408   -0.193432
    103          1           0       -3.959569   -4.953337   -1.751393
    104          1           0       -3.778492   -3.197921    0.673354
    105          1           0       -6.239758   -5.283776   -1.195975
    106          1           0       -7.498561   -4.126152   -0.787193
    107          1           0       -7.105845   -5.442718    0.416773
    108          1           0       -7.406626   -2.518892    0.800487
    109          1           0       -5.970289   -1.809203    0.723872
    110          1           0       -5.790318   -3.858861    2.790361
    111          1           0       -7.145890   -2.593560    3.068102
    112          1           0       -4.665949   -1.289096    2.237027
    113          1           0       -4.217835   -2.427491    3.441305
    114          1           0       -6.341205   -1.388553    4.737210
    115          1           0       -4.792814   -0.363327    6.149020
    116          1           0       -4.308879    0.777211    4.963557
    117          1           0       -3.481954   -0.758968    5.137365
    118          1           0       -6.213216    0.206887    2.298714
    119          1           0       -5.827592    1.375092    3.617322
    120          1           0       -8.096375    1.485888    4.153346
    121          1           0       -8.147378   -0.177627    4.289797
    122          1           0       -9.438030   -0.481375    2.862259
    123          1           0       -8.227349   -0.498450    1.653891
    124          1           0       -8.984028    2.264323    2.270703
    125          1           0      -11.533761    1.875530    1.630523
    126          1           0      -10.987025    1.893954    3.298629
    127          1           0      -11.241410    0.389625    2.559830
    128          1           0      -10.397208    1.450186   -0.118567
    129          1           0       -8.861237    0.590996   -0.155746
    130          1           0       -7.572922    2.553163   -0.540137
    131          1           0       -8.647039    3.529211    0.477614
    132          1           0      -10.098478    4.084252   -1.291847
    133          1           0       -9.966577    2.601151   -2.083963
    134          1           0       -7.480950    3.219521   -2.556578
    135          1           0       -7.888642    5.921771   -3.302442
    136          1           0       -6.819652    5.276772   -2.247272
    137          1           0       -8.302418    5.696856   -1.513666
    138          1           0       -8.281441    4.406791   -4.647150
    139          1           0       -9.857306    4.114003   -4.026549
    140          1           0       -8.780979    2.715651   -4.376110
 ---------------------------------------------------------------------

 SCF Done:  E(RB-LYP) =  -3007.31658808     A.U. after   20 cycles

 Excitation energies and oscillator strengths:

 Excited State   1:      Singlet-A      1.6321 eV  759.68 nm  f=0.0002  <S**2>=0.000
     244 -> 247        0.69790
     245 -> 247       -0.11154
 This state for optimization and/or second-order correction.
 Total Energy, E(TD-HF/TD-DFT) =  -3007.25661124
 Copying the excited state density for this state as the 1-particle RhoCI density.

 Excited State   2:      Singlet-A      1.7996 eV  688.94 nm  f=0.2365  <S**2>=0.000
     243 -> 247        0.10428
     245 -> 247        0.15693
     245 -> 248       -0.18924
     246 -> 247        0.66020
     246 <- 247       -0.13299

 Excited State   3:      Singlet-A      1.9289 eV  642.78 nm  f=0.1146  <S**2>=0.000
     243 -> 247        0.24403
     245 -> 247        0.58730
     246 -> 247       -0.17898
     246 -> 248        0.19786

 Excited State   4:      Singlet-A      2.0940 eV  592.09 nm  f=0.0151  <S**2>=0.000
     243 -> 247        0.65036
     245 -> 247       -0.22154
     246 -> 248       -0.13880

 Excited State   5:      Singlet-A      2.1549 eV  575.37 nm  f=0.0000  <S**2>=0.000
     242 -> 247        0.70708

 The electronic state is 1-A.
 Alpha  occ. eigenvalues --  -46.28202 -18.82943 -18.82126 -18.76805 -18.76757
 Alpha  occ. eigenvalues --  -18.76532 -18.74908 -14.03978 -14.03898 -14.00981
 Alpha  occ. eigenvalues --  -14.00619 -10.04406 -10.03568 -10.00441  -9.99101
 Alpha  occ. eigenvalues --   -9.98006  -9.97752  -9.97360  -9.97068  -9.97047
 Alpha  occ. eigenvalues --   -9.96777  -9.96443  -9.95038  -9.94686  -9.94681
 Alpha  occ. eigenvalues --   -9.94344  -9.94335  -9.94109  -9.93927  -9.93864
 Alpha  occ. eigenvalues --   -9.93672  -9.93616  -9.93557  -9.93555  -9.93304
 Alpha  occ. eigenvalues --   -9.93195  -9.93058  -9.92975  -9.92955  -9.92911
 Alpha  occ. eigenvalues --   -9.92911  -9.92896  -9.92870  -9.92735  -9.92604
 Alpha  occ. eigenvalues --   -9.92387  -9.92243  -9.92203  -9.92030  -9.91923
 Alpha  occ. eigenvalues --   -9.91635  -9.91602  -9.91536  -9.91395  -9.91366
 Alpha  occ. eigenvalues --   -9.91224  -9.91181  -9.91094  -9.91032  -9.90966
 Alpha  occ. eigenvalues --   -9.90961  -9.90954  -9.90869  -9.90589  -9.90125
 Alpha  occ. eigenvalues --   -9.90073  -2.92673  -1.73125  -1.72509  -1.72411
 Alpha  occ. eigenvalues --   -0.99006  -0.96366  -0.92373  -0.92246  -0.90148
 Alpha  occ. eigenvalues --   -0.88586  -0.88385  -0.87603  -0.87269  -0.85354
 Alpha  occ. eigenvalues --   -0.76356  -0.73578  -0.72984  -0.72844  -0.72505
 Alpha  occ. eigenvalues --   -0.72373  -0.71855  -0.71597  -0.70981  -0.70652
 Alpha  occ. eigenvalues --   -0.69945  -0.69096  -0.68350  -0.68027  -0.67469
 Alpha  occ. eigenvalues --   -0.66671  -0.66111  -0.65679  -0.65237  -0.64350
 Alpha  occ. eigenvalues --   -0.64135  -0.62805  -0.62647  -0.61581  -0.60796
 Alpha  occ. eigenvalues --   -0.60541  -0.60168  -0.59602  -0.59156  -0.58917
 Alpha  occ. eigenvalues --   -0.58618  -0.58150  -0.57747  -0.55841  -0.55043
 Alpha  occ. eigenvalues --   -0.54617  -0.53928  -0.53660  -0.52789  -0.52274
 Alpha  occ. eigenvalues --   -0.51949  -0.51420  -0.51136  -0.50867  -0.50148
 Alpha  occ. eigenvalues --   -0.49806  -0.49550  -0.48824  -0.48290  -0.46882
 Alpha  occ. eigenvalues --   -0.46608  -0.46304  -0.46088  -0.45974  -0.44830
 Alpha  occ. eigenvalues --   -0.44587  -0.43831  -0.43392  -0.43023  -0.42487
 Alpha  occ. eigenvalues --   -0.42457  -0.42233  -0.41714  -0.41347  -0.41146
 Alpha  occ. eigenvalues --   -0.40829  -0.40716  -0.40412  -0.40292  -0.40125
 Alpha  occ. eigenvalues --   -0.40064  -0.39896  -0.39783  -0.39250  -0.39138
 Alpha  occ. eigenvalues --   -0.39095  -0.38911  -0.38702  -0.38618  -0.38592
 Alpha  occ. eigenvalues --   -0.38000  -0.37887  -0.37802  -0.37483  -0.37264
 Alpha  occ. eigenvalues --   -0.37061  -0.36991  -0.36658  -0.36582  -0.36438
 Alpha  occ. eigenvalues --   -0.36400  -0.36296  -0.36077  -0.35864  -0.35759
 Alpha  occ. eigenvalues --   -0.35555  -0.35463  -0.35448  -0.35295  -0.35053
 Alpha  occ. eigenvalues --   -0.34892  -0.34723  -0.34232  -0.34090  -0.33849
 Alpha  occ. eigenvalues --   -0.33791  -0.33636  -0.33450  -0.33249  -0.33143
 Alpha  occ. eigenvalues --   -0.32778  -0.32669  -0.32549  -0.32264  -0.32239
 Alpha  occ. eigenvalues --   -0.32035  -0.31994  -0.31967  -0.31699  -0.31517
 Alpha  occ. eigenvalues --   -0.31407  -0.31359  -0.31306  -0.31076  -0.30850
 Alpha  occ. eigenvalues --   -0.30630  -0.30564  -0.30389  -0.30052  -0.29991
 Alpha  occ. eigenvalues --   -0.29804  -0.29765  -0.29511  -0.29237  -0.29109
 Alpha  occ. eigenvalues --   -0.28937  -0.28796  -0.28441  -0.28373  -0.27880
 Alpha  occ. eigenvalues --   -0.27768  -0.27480  -0.26928  -0.26732  -0.26529
 Alpha  occ. eigenvalues --   -0.26512  -0.26362  -0.26276  -0.25350  -0.25133
 Alpha  occ. eigenvalues --   -0.24830  -0.24731  -0.24692  -0.24135  -0.23888
 Alpha  occ. eigenvalues --   -0.23222  -0.22686  -0.22017  -0.21662  -0.21011
 Alpha  occ. eigenvalues --   -0.20522  -0.19943  -0.19446  -0.17939  -0.17580
 Alpha  occ. eigenvalues --   -0.16420
 Alpha virt. eigenvalues --   -0.12025  -0.07608  -0.06212  -0.04487  -0.03192
 Alpha virt. eigenvalues --   -0.02946  -0.02311  -0.02200  -0.01639  -0.00389
 Alpha virt. eigenvalues --    0.01065   0.01289   0.02403   0.02528   0.02907

 Mulliken charges:
               1
     1  Mg   0.678638
     2  C    0.021866
     3  C   -0.068085
     4  C   -0.055153
     5  C   -0.122106
     6  N   -0.191037
     7  C   -0.066071
     8  C   -0.001953
     9  C   -0.025489
    10  C    0.002990
    11  C    0.123980
    12  C    0.120846
    13  C    0.099591
    14  C    0.074794
    15  O   -0.190352
    16  O   -0.244187
    17  N   -0.268162
    18  C    0.177281
    19  C   -0.138298
    20  C    0.100152
    21  C    0.057094
    22  C    0.198846
    23  C   -0.135213
    24  O   -0.143255
    25  C    0.101409
    26  N   -0.215820
    27  C    0.009674
    28  C    0.002483
    29  C    0.060086
    30  C    0.057294
    31  C    0.126264
    32  C    0.085641
    33  C    0.053758
    34  N   -0.208833
    35  C    0.154539
    36  C   -0.225799
    37  C    0.065603
    38  C    0.041752
    39  C    0.194668
    40  C   -0.014214
    41  O   -0.108942
    42  C    0.062756
    43  C    0.130295
    44  O   -0.206416
    45  O   -0.298911
    46  C    0.214001
    47  C    0.285157
    48  C   -0.121172
    49  C   -0.180641
    50  C    0.184071
    51  C    0.056983
    52  C    0.144563
    53  C    0.061997
    54  C   -0.059408
    55  C    0.096746
    56  C    0.110103
    57  C    0.038689
    58  C    0.108944
    59  C   -0.062333
    60  C    0.082256
    61  C    0.120672
    62  C    0.073444
    63  C    0.113711
    64  C   -0.115195
    65  C    0.124871
    66  C    0.081714
    67  H   -0.070630
    68  H   -0.059061
    69  H   -0.067101
    70  H   -0.032331
    71  H   -0.024263
    72  H    0.007048
    73  H   -0.003498
    74  H    0.003448
    75  H   -0.016916
    76  H   -0.012602
    77  H    0.002037
    78  H    0.020444
    79  H    0.003351
    80  H   -0.033718
    81  H    0.013985
    82  H    0.014008
    83  H   -0.015544
    84  H    0.003228
    85  H   -0.029765
    86  H   -0.024047
    87  H    0.009315
    88  H   -0.016483
    89  H   -0.005601
    90  H   -0.022842
    91  H   -0.013760
    92  H   -0.015649
    93  H   -0.004500
    94  H   -0.003526
    95  H    0.002154
    96  H    0.017703
    97  H   -0.000408
    98  H   -0.020346
    99  H    0.022706
   100  H    0.008947
   101  H    0.035004
   102  H   -0.001187
   103  H    0.029519
   104  H   -0.024156
   105  H   -0.021858
   106  H   -0.007286
   107  H    0.017388
   108  H   -0.036703
   109  H   -0.020096
   110  H   -0.019345
   111  H   -0.014215
   112  H   -0.018900
   113  H   -0.037710
   114  H   -0.021533
   115  H   -0.023783
   116  H   -0.020154
   117  H   -0.017778
   118  H   -0.027981
   119  H   -0.021049
   120  H   -0.028092
   121  H   -0.049797
   122  H   -0.046822
   123  H   -0.036516
   124  H   -0.026652
   125  H   -0.018186
   126  H   -0.024971
   127  H   -0.022392
   128  H   -0.027969
   129  H   -0.034466
   130  H   -0.018782
   131  H   -0.023252
   132  H   -0.035724
   133  H   -0.037128
   134  H   -0.039117
   135  H   -0.014550
   136  H   -0.038166
   137  H   -0.027657
   138  H   -0.022962
   139  H   -0.025621
   140  H   -0.018315
 Sum of Mulliken charges =  -0.00000

 Dipole moment (field-independent basis, Debye):
    X=             -0.9084    Y=              0.9015    Z=              3.3497  Tot=              3.5859
 Quadrupole moment (field-independent basis, Debye-Ang):
   XX=           -396.4198   YY=           -443.7441   ZZ=           -392.0283
   XY=             30.0247   XZ=              6.8670   YZ=             22.9408

 Normal termination of Gaussian 16 at Wed May  4 09:26:24 2022.
