 Gaussian 16, Revision A.03,
 Gaussian 16:  ES64L-G16RevA.03 25-Dec-2016

 -----------------------------------
 #p cam-b3lyp/Def2SVP td=(nstates=5)
 -----------------------------------

 -------------------------------------------------------
 step_151_chromophore_17 TDDFT with cam-b3lyp functional
 -------------------------------------------------------
 Symbolic Z-matrix:
 Charge =  0 Multiplicity = 1

                         Standard orientation:
 ---------------------------------------------------------------------
 Center     Atomic      Atomic             Coordinates (Angstroms)
 Number     Number       Type             X           Y           Z
 ---------------------------------------------------------------------
      1         12           0        4.130319    0.924733   -0.359326
      2          6           0        3.477994   -2.432762   -0.733709
      3          6           0        1.878817    1.664939   -2.810263
      4          6           0        4.366754    4.255524    0.307979
      5          6           0        5.803833    0.138074    2.614099
      6          7           0        2.779607   -0.278031   -1.562878
      7          6           0        2.695036   -1.615502   -1.586282
      8          6           0        1.647001   -2.024791   -2.572454
      9          6           0        1.479451   -0.700836   -3.508324
     10          6           0        2.082940    0.308763   -2.546799
     11          6           0        2.185996   -0.692455   -4.945349
     12          6           0        0.357120   -2.447021   -1.808578
     13          6           0        0.001107   -3.941167   -1.577939
     14          6           0       -1.459456   -4.416623   -1.829156
     15          8           0       -1.961531   -4.716410   -2.903180
     16          8           0       -2.128160   -4.434388   -0.653471
     17          7           0        3.281619    2.782959   -1.208794
     18          6           0        2.351997    2.822601   -2.244084
     19          6           0        2.103373    4.131705   -2.606061
     20          6           0        2.844030    4.996230   -1.772471
     21          6           0        3.553194    4.051296   -0.804808
     22          6           0        1.222144    4.549291   -3.784188
     23          6           0        2.957446    6.457792   -1.833420
     24          8           0        2.360056    7.187329   -2.575386
     25          6           0        3.946116    7.229506   -0.942690
     26          7           0        5.107679    2.056582    1.123405
     27          6           0        5.033676    3.386054    1.220325
     28          6           0        5.679777    3.802058    2.533485
     29          6           0        6.064516    2.560682    3.238600
     30          6           0        5.565092    1.499280    2.289078
     31          6           0        6.656979    5.063441    2.378216
     32          6           0        5.564162    2.406058    4.789104
     33          6           0        6.569480    1.698661    5.684282
     34          7           0        4.838105   -0.797875    0.647969
     35          6           0        5.440575   -0.930104    1.862850
     36          6           0        5.638580   -2.275553    2.112014
     37          6           0        4.861228   -2.955725    1.145010
     38          6           0        4.389603   -1.960671    0.275982
     39          6           0        6.497394   -2.807573    3.237448
     40          6           0        4.394857   -4.266846    0.655548
     41          8           0        4.511645   -5.435496    0.961811
     42          6           0        3.501747   -3.897528   -0.624475
     43          6           0        4.159356   -4.516037   -1.729525
     44          8           0        5.369113   -4.479865   -2.057831
     45          8           0        3.186616   -5.381745   -2.218352
     46          6           0        3.627595   -6.435485   -3.183667
     47          6           0       -3.518666   -4.828520   -0.762531
     48          6           0       -4.406799   -3.807038    0.023725
     49          6           0       -5.760904   -3.797701    0.189743
     50          6           0       -6.735207   -4.780250   -0.365649
     51          6           0       -6.385452   -2.741429    1.108007
     52          6           0       -6.193085   -2.861204    2.611660
     53          6           0       -5.074885   -1.869774    3.064044
     54          6           0       -5.592729   -0.857595    4.148825
     55          6           0       -4.466038   -0.290745    5.112066
     56          6           0       -6.256340    0.403100    3.370093
     57          6           0       -7.802774    0.592924    3.600295
     58          6           0       -8.678863    0.151091    2.402233
     59          6           0       -9.403791    1.365372    1.820090
     60          6           0      -10.865034    1.389192    2.340640
     61          6           0       -9.381697    1.445940    0.277373
     62          6           0       -8.611388    2.729125   -0.261492
     63          6           0       -9.367201    3.303879   -1.505157
     64          6           0       -8.370638    3.848054   -2.530878
     65          6           0       -7.894085    5.268863   -2.429430
     66          6           0       -8.835992    3.734396   -3.992237
     67          1           0        1.272900    1.799016   -3.708856
     68          1           0        4.228241    5.284512    0.646027
     69          1           0        6.378057   -0.064924    3.520840
     70          1           0        1.945368   -2.829609   -3.244285
     71          1           0        0.411190   -0.554630   -3.667717
     72          1           0        2.176456   -1.667977   -5.430719
     73          1           0        3.223910   -0.384626   -4.823758
     74          1           0        1.689811    0.078070   -5.535316
     75          1           0       -0.480801   -1.930156   -2.275719
     76          1           0        0.481661   -1.992545   -0.825110
     77          1           0        0.220686   -4.002878   -0.512159
     78          1           0        0.669149   -4.665475   -2.044445
     79          1           0        0.364063    5.155484   -3.491426
     80          1           0        0.804972    3.638975   -4.214086
     81          1           0        1.786008    5.149333   -4.498692
     82          1           0        3.508356    7.232012    0.055207
     83          1           0        4.046937    8.260060   -1.282708
     84          1           0        4.967805    6.849288   -0.936760
     85          1           0        4.863475    4.252559    3.098428
     86          1           0        7.145637    2.688495    3.286240
     87          1           0        6.573302    5.413637    1.349735
     88          1           0        7.692946    4.799199    2.590427
     89          1           0        6.371936    5.763220    3.164777
     90          1           0        4.715555    1.721901    4.784069
     91          1           0        5.188901    3.312893    5.263719
     92          1           0        6.812605    2.290096    6.566829
     93          1           0        7.559088    1.493023    5.274347
     94          1           0        6.158203    0.750267    6.028262
     95          1           0        6.564371   -3.859409    2.962863
     96          1           0        6.067117   -2.649294    4.226417
     97          1           0        7.493106   -2.407078    3.043883
     98          1           0        2.479526   -4.271350   -0.577671
     99          1           0        3.716057   -6.140813   -4.229960
    100          1           0        2.782182   -7.122726   -3.190214
    101          1           0        4.491626   -6.865034   -2.677436
    102          1           0       -3.557851   -5.758408   -0.193432
    103          1           0       -3.959569   -4.953337   -1.751393
    104          1           0       -3.778492   -3.197921    0.673354
    105          1           0       -6.239758   -5.283776   -1.195975
    106          1           0       -7.498561   -4.126152   -0.787193
    107          1           0       -7.105845   -5.442718    0.416773
    108          1           0       -7.406626   -2.518892    0.800487
    109          1           0       -5.970289   -1.809203    0.723872
    110          1           0       -5.790318   -3.858861    2.790361
    111          1           0       -7.145890   -2.593560    3.068102
    112          1           0       -4.665949   -1.289096    2.237027
    113          1           0       -4.217835   -2.427491    3.441305
    114          1           0       -6.341205   -1.388553    4.737210
    115          1           0       -4.792814   -0.363327    6.149020
    116          1           0       -4.308879    0.777211    4.963557
    117          1           0       -3.481954   -0.758968    5.137365
    118          1           0       -6.213216    0.206887    2.298714
    119          1           0       -5.827592    1.375092    3.617322
    120          1           0       -8.096375    1.485888    4.153346
    121          1           0       -8.147378   -0.177627    4.289797
    122          1           0       -9.438030   -0.481375    2.862259
    123          1           0       -8.227349   -0.498450    1.653891
    124          1           0       -8.984028    2.264323    2.270703
    125          1           0      -11.533761    1.875530    1.630523
    126          1           0      -10.987025    1.893954    3.298629
    127          1           0      -11.241410    0.389625    2.559830
    128          1           0      -10.397208    1.450186   -0.118567
    129          1           0       -8.861237    0.590996   -0.155746
    130          1           0       -7.572922    2.553163   -0.540137
    131          1           0       -8.647039    3.529211    0.477614
    132          1           0      -10.098478    4.084252   -1.291847
    133          1           0       -9.966577    2.601151   -2.083963
    134          1           0       -7.480950    3.219521   -2.556578
    135          1           0       -7.888642    5.921771   -3.302442
    136          1           0       -6.819652    5.276772   -2.247272
    137          1           0       -8.302418    5.696856   -1.513666
    138          1           0       -8.281441    4.406791   -4.647150
    139          1           0       -9.857306    4.114003   -4.026549
    140          1           0       -8.780979    2.715651   -4.376110
 ---------------------------------------------------------------------

 SCF Done:  E(RCAM-B3LYP) =  -3007.11259157     A.U. after   19 cycles

 Excitation energies and oscillator strengths:

 Excited State   1:      Singlet-A      1.7400 eV  712.55 nm  f=0.3674  <S**2>=0.000
     245 -> 248       -0.18519
     246 -> 247        0.68305
     245 <- 248       -0.10568
 This state for optimization and/or second-order correction.
 Total Energy, E(TD-HF/TD-DFT) =  -3007.04864782
 Copying the excited state density for this state as the 1-particle RhoCI density.

 Excited State   2:      Singlet-A      2.1875 eV  566.79 nm  f=0.1054  <S**2>=0.000
     245 -> 247        0.63584
     246 -> 248        0.29210

 Excited State   3:      Singlet-A      3.2906 eV  376.78 nm  f=0.0135  <S**2>=0.000
     241 -> 247        0.10990
     242 -> 247       -0.19461
     243 -> 247        0.61170
     246 -> 248        0.17108

 Excited State   4:      Singlet-A      3.3628 eV  368.70 nm  f=0.0022  <S**2>=0.000
     241 -> 247        0.53711
     241 -> 248       -0.11442
     241 -> 249       -0.22544
     241 -> 250       -0.14266
     241 -> 251        0.12591
     242 -> 247       -0.17823
     243 -> 247       -0.21306

 Excited State   5:      Singlet-A      3.4433 eV  360.07 nm  f=0.2669  <S**2>=0.000
     240 -> 247       -0.24213
     241 -> 247       -0.11343
     242 -> 247       -0.29950
     243 -> 247       -0.21714
     245 -> 247       -0.18531
     246 -> 248        0.48077

 The electronic state is 1-A.
 Alpha  occ. eigenvalues --  -46.89828 -19.25762 -19.25119 -19.19833 -19.19758
 Alpha  occ. eigenvalues --  -19.19504 -19.18317 -14.42952 -14.42734 -14.39569
 Alpha  occ. eigenvalues --  -14.38855 -10.39689 -10.39092 -10.35678 -10.34405
 Alpha  occ. eigenvalues --  -10.32047 -10.31986 -10.31826 -10.31446 -10.31426
 Alpha  occ. eigenvalues --  -10.31279 -10.31223 -10.29587 -10.28836 -10.28772
 Alpha  occ. eigenvalues --  -10.28596 -10.28403 -10.28391 -10.28134 -10.27762
 Alpha  occ. eigenvalues --  -10.27750 -10.27593 -10.27563 -10.27538 -10.27294
 Alpha  occ. eigenvalues --  -10.27272 -10.27151 -10.27122 -10.27101 -10.27017
 Alpha  occ. eigenvalues --  -10.26922 -10.26911 -10.26869 -10.26698 -10.26302
 Alpha  occ. eigenvalues --  -10.26149 -10.25979 -10.25898 -10.25777 -10.25647
 Alpha  occ. eigenvalues --  -10.25492 -10.25313 -10.25290 -10.25243 -10.25086
 Alpha  occ. eigenvalues --  -10.25041 -10.24880 -10.24866 -10.24695 -10.24615
 Alpha  occ. eigenvalues --  -10.24613 -10.24533 -10.24529 -10.24182 -10.23734
 Alpha  occ. eigenvalues --  -10.23637  -3.18196  -1.93127  -1.92617  -1.92509
 Alpha  occ. eigenvalues --   -1.17433  -1.14877  -1.11037  -1.10478  -1.08018
 Alpha  occ. eigenvalues --   -1.06481  -1.06084  -1.05355  -1.04903  -1.03151
 Alpha  occ. eigenvalues --   -0.93485  -0.90417  -0.89791  -0.89623  -0.89234
 Alpha  occ. eigenvalues --   -0.89052  -0.88540  -0.88167  -0.87520  -0.87187
 Alpha  occ. eigenvalues --   -0.86629  -0.85523  -0.84544  -0.84237  -0.83639
 Alpha  occ. eigenvalues --   -0.82687  -0.82166  -0.81528  -0.81138  -0.80447
 Alpha  occ. eigenvalues --   -0.79943  -0.78394  -0.78195  -0.77359  -0.76277
 Alpha  occ. eigenvalues --   -0.75860  -0.75463  -0.74934  -0.74442  -0.74105
 Alpha  occ. eigenvalues --   -0.73714  -0.73164  -0.72719  -0.70712  -0.69621
 Alpha  occ. eigenvalues --   -0.69342  -0.68471  -0.68147  -0.67171  -0.66423
 Alpha  occ. eigenvalues --   -0.66002  -0.65604  -0.65317  -0.64893  -0.64153
 Alpha  occ. eigenvalues --   -0.63658  -0.63508  -0.62775  -0.62044  -0.60530
 Alpha  occ. eigenvalues --   -0.60249  -0.59791  -0.59632  -0.59370  -0.58362
 Alpha  occ. eigenvalues --   -0.58097  -0.57201  -0.56702  -0.56238  -0.55743
 Alpha  occ. eigenvalues --   -0.55662  -0.55199  -0.54518  -0.54318  -0.54145
 Alpha  occ. eigenvalues --   -0.53664  -0.53467  -0.53320  -0.53055  -0.52705
 Alpha  occ. eigenvalues --   -0.52561  -0.52449  -0.52301  -0.52240  -0.52112
 Alpha  occ. eigenvalues --   -0.51533  -0.51464  -0.51150  -0.50976  -0.50896
 Alpha  occ. eigenvalues --   -0.50540  -0.50235  -0.50000  -0.49899  -0.49729
 Alpha  occ. eigenvalues --   -0.49632  -0.49479  -0.49121  -0.49076  -0.48676
 Alpha  occ. eigenvalues --   -0.48554  -0.48470  -0.48404  -0.48029  -0.47897
 Alpha  occ. eigenvalues --   -0.47841  -0.47532  -0.47393  -0.47318  -0.47073
 Alpha  occ. eigenvalues --   -0.46894  -0.46560  -0.46242  -0.46036  -0.45791
 Alpha  occ. eigenvalues --   -0.45525  -0.45417  -0.45274  -0.45137  -0.44881
 Alpha  occ. eigenvalues --   -0.44476  -0.44466  -0.44061  -0.43905  -0.43778
 Alpha  occ. eigenvalues --   -0.43720  -0.43582  -0.43462  -0.43338  -0.43164
 Alpha  occ. eigenvalues --   -0.43030  -0.42892  -0.42666  -0.42485  -0.42238
 Alpha  occ. eigenvalues --   -0.42117  -0.42077  -0.41960  -0.41510  -0.41240
 Alpha  occ. eigenvalues --   -0.41207  -0.40923  -0.40755  -0.40485  -0.40238
 Alpha  occ. eigenvalues --   -0.39985  -0.39774  -0.39492  -0.39380  -0.38908
 Alpha  occ. eigenvalues --   -0.38623  -0.38339  -0.37818  -0.37719  -0.37651
 Alpha  occ. eigenvalues --   -0.37261  -0.37175  -0.37122  -0.36555  -0.36505
 Alpha  occ. eigenvalues --   -0.35506  -0.35241  -0.35024  -0.34602  -0.34523
 Alpha  occ. eigenvalues --   -0.34104  -0.33981  -0.33570  -0.31664  -0.30992
 Alpha  occ. eigenvalues --   -0.30458  -0.30233  -0.29872  -0.29517  -0.24458
 Alpha  occ. eigenvalues --   -0.21765
 Alpha virt. eigenvalues --   -0.09162  -0.02575   0.00246   0.02508   0.02531
 Alpha virt. eigenvalues --    0.04411   0.04653   0.05193   0.05262   0.06227
 Alpha virt. eigenvalues --    0.08104   0.08437   0.08771   0.08858   0.09075

 Mulliken charges:
               1
     1  Mg   0.811130
     2  C   -0.013138
     3  C   -0.079129
     4  C   -0.077674
     5  C   -0.121232
     6  N   -0.263734
     7  C   -0.025399
     8  C   -0.053317
     9  C   -0.076751
    10  C    0.021647
    11  C    0.071057
    12  C    0.073771
    13  C    0.025748
    14  C    0.158723
    15  O   -0.233399
    16  O   -0.308487
    17  N   -0.353293
    18  C    0.177475
    19  C   -0.137799
    20  C    0.022432
    21  C    0.091984
    22  C    0.149570
    23  C   -0.055569
    24  O   -0.182126
    25  C    0.022660
    26  N   -0.293145
    27  C    0.042125
    28  C   -0.054269
    29  C    0.003180
    30  C    0.072544
    31  C    0.070614
    32  C    0.031319
    33  C   -0.013630
    34  N   -0.300878
    35  C    0.148728
    36  C   -0.211868
    37  C   -0.021600
    38  C    0.086139
    39  C    0.139694
    40  C    0.087073
    41  O   -0.150395
    42  C   -0.024069
    43  C    0.228222
    44  O   -0.244178
    45  O   -0.365169
    46  C    0.177446
    47  C    0.254216
    48  C   -0.142509
    49  C   -0.196939
    50  C    0.121338
    51  C   -0.000232
    52  C    0.086335
    53  C    0.011701
    54  C   -0.114861
    55  C    0.040307
    56  C    0.059729
    57  C   -0.015532
    58  C    0.058824
    59  C   -0.122445
    60  C    0.029342
    61  C    0.068142
    62  C    0.021725
    63  C    0.055622
    64  C   -0.173514
    65  C    0.059743
    66  C    0.023273
    67  H   -0.036077
    68  H   -0.027588
    69  H   -0.029700
    70  H    0.003216
    71  H    0.011388
    72  H    0.031428
    73  H    0.021368
    74  H    0.025461
    75  H    0.013042
    76  H    0.019088
    77  H    0.035848
    78  H    0.050249
    79  H    0.033059
    80  H   -0.007206
    81  H    0.042224
    82  H    0.039800
    83  H    0.021112
    84  H    0.031477
    85  H    0.005640
    86  H    0.008892
    87  H    0.031292
    88  H    0.009018
    89  H    0.018636
    90  H    0.008186
    91  H    0.014207
    92  H    0.010271
    93  H    0.018089
    94  H    0.019306
    95  H    0.029182
    96  H    0.041228
    97  H    0.025214
    98  H    0.025547
    99  H    0.043735
   100  H    0.032212
   101  H    0.059277
   102  H    0.026739
   103  H    0.058820
   104  H    0.007794
   105  H    0.001938
   106  H    0.016470
   107  H    0.040572
   108  H   -0.008206
   109  H    0.008496
   110  H    0.011199
   111  H    0.011803
   112  H    0.006747
   113  H   -0.007817
   114  H    0.008861
   115  H    0.000639
   116  H    0.003055
   117  H    0.006730
   118  H   -0.002996
   119  H    0.007117
   120  H    0.001137
   121  H   -0.020602
   122  H   -0.016686
   123  H   -0.015004
   124  H    0.004500
   125  H    0.005707
   126  H   -0.000366
   127  H    0.000696
   128  H    0.000646
   129  H   -0.006389
   130  H    0.008383
   131  H    0.003758
   132  H   -0.007146
   133  H   -0.007174
   134  H   -0.007078
   135  H    0.011229
   136  H   -0.011998
   137  H   -0.003064
   138  H    0.001801
   139  H   -0.001904
   140  H    0.006177
 Sum of Mulliken charges =  -0.00000

 Dipole moment (field-independent basis, Debye):
    X=             -1.0470    Y=              1.7065    Z=              3.0386  Tot=              3.6389
 Quadrupole moment (field-independent basis, Debye-Ang):
   XX=           -397.0977   YY=           -439.9269   ZZ=           -389.8772
   XY=             33.0448   XZ=              6.9510   YZ=             23.4452

 Normal termination of Gaussian 16 at Wed May  4 08:24:27 2022.
