 Gaussian 16, Revision A.03,
 Gaussian 16:  ES64L-G16RevA.03 25-Dec-2016

 ---------------------------------
 #p PBE1PBE/Def2SVP td=(nstates=5)
 ---------------------------------

 -----------------------------------------------------
 step_151_chromophore_17 TDDFT with PBE1PBE functional
 -----------------------------------------------------
 Symbolic Z-matrix:
 Charge =  0 Multiplicity = 1

                         Standard orientation:
 ---------------------------------------------------------------------
 Center     Atomic      Atomic             Coordinates (Angstroms)
 Number     Number       Type             X           Y           Z
 ---------------------------------------------------------------------
      1         12           0        4.130319    0.924733   -0.359326
      2          6           0        3.477994   -2.432762   -0.733709
      3          6           0        1.878817    1.664939   -2.810263
      4          6           0        4.366754    4.255524    0.307979
      5          6           0        5.803833    0.138074    2.614099
      6          7           0        2.779607   -0.278031   -1.562878
      7          6           0        2.695036   -1.615502   -1.586282
      8          6           0        1.647001   -2.024791   -2.572454
      9          6           0        1.479451   -0.700836   -3.508324
     10          6           0        2.082940    0.308763   -2.546799
     11          6           0        2.185996   -0.692455   -4.945349
     12          6           0        0.357120   -2.447021   -1.808578
     13          6           0        0.001107   -3.941167   -1.577939
     14          6           0       -1.459456   -4.416623   -1.829156
     15          8           0       -1.961531   -4.716410   -2.903180
     16          8           0       -2.128160   -4.434388   -0.653471
     17          7           0        3.281619    2.782959   -1.208794
     18          6           0        2.351997    2.822601   -2.244084
     19          6           0        2.103373    4.131705   -2.606061
     20          6           0        2.844030    4.996230   -1.772471
     21          6           0        3.553194    4.051296   -0.804808
     22          6           0        1.222144    4.549291   -3.784188
     23          6           0        2.957446    6.457792   -1.833420
     24          8           0        2.360056    7.187329   -2.575386
     25          6           0        3.946116    7.229506   -0.942690
     26          7           0        5.107679    2.056582    1.123405
     27          6           0        5.033676    3.386054    1.220325
     28          6           0        5.679777    3.802058    2.533485
     29          6           0        6.064516    2.560682    3.238600
     30          6           0        5.565092    1.499280    2.289078
     31          6           0        6.656979    5.063441    2.378216
     32          6           0        5.564162    2.406058    4.789104
     33          6           0        6.569480    1.698661    5.684282
     34          7           0        4.838105   -0.797875    0.647969
     35          6           0        5.440575   -0.930104    1.862850
     36          6           0        5.638580   -2.275553    2.112014
     37          6           0        4.861228   -2.955725    1.145010
     38          6           0        4.389603   -1.960671    0.275982
     39          6           0        6.497394   -2.807573    3.237448
     40          6           0        4.394857   -4.266846    0.655548
     41          8           0        4.511645   -5.435496    0.961811
     42          6           0        3.501747   -3.897528   -0.624475
     43          6           0        4.159356   -4.516037   -1.729525
     44          8           0        5.369113   -4.479865   -2.057831
     45          8           0        3.186616   -5.381745   -2.218352
     46          6           0        3.627595   -6.435485   -3.183667
     47          6           0       -3.518666   -4.828520   -0.762531
     48          6           0       -4.406799   -3.807038    0.023725
     49          6           0       -5.760904   -3.797701    0.189743
     50          6           0       -6.735207   -4.780250   -0.365649
     51          6           0       -6.385452   -2.741429    1.108007
     52          6           0       -6.193085   -2.861204    2.611660
     53          6           0       -5.074885   -1.869774    3.064044
     54          6           0       -5.592729   -0.857595    4.148825
     55          6           0       -4.466038   -0.290745    5.112066
     56          6           0       -6.256340    0.403100    3.370093
     57          6           0       -7.802774    0.592924    3.600295
     58          6           0       -8.678863    0.151091    2.402233
     59          6           0       -9.403791    1.365372    1.820090
     60          6           0      -10.865034    1.389192    2.340640
     61          6           0       -9.381697    1.445940    0.277373
     62          6           0       -8.611388    2.729125   -0.261492
     63          6           0       -9.367201    3.303879   -1.505157
     64          6           0       -8.370638    3.848054   -2.530878
     65          6           0       -7.894085    5.268863   -2.429430
     66          6           0       -8.835992    3.734396   -3.992237
     67          1           0        1.272900    1.799016   -3.708856
     68          1           0        4.228241    5.284512    0.646027
     69          1           0        6.378057   -0.064924    3.520840
     70          1           0        1.945368   -2.829609   -3.244285
     71          1           0        0.411190   -0.554630   -3.667717
     72          1           0        2.176456   -1.667977   -5.430719
     73          1           0        3.223910   -0.384626   -4.823758
     74          1           0        1.689811    0.078070   -5.535316
     75          1           0       -0.480801   -1.930156   -2.275719
     76          1           0        0.481661   -1.992545   -0.825110
     77          1           0        0.220686   -4.002878   -0.512159
     78          1           0        0.669149   -4.665475   -2.044445
     79          1           0        0.364063    5.155484   -3.491426
     80          1           0        0.804972    3.638975   -4.214086
     81          1           0        1.786008    5.149333   -4.498692
     82          1           0        3.508356    7.232012    0.055207
     83          1           0        4.046937    8.260060   -1.282708
     84          1           0        4.967805    6.849288   -0.936760
     85          1           0        4.863475    4.252559    3.098428
     86          1           0        7.145637    2.688495    3.286240
     87          1           0        6.573302    5.413637    1.349735
     88          1           0        7.692946    4.799199    2.590427
     89          1           0        6.371936    5.763220    3.164777
     90          1           0        4.715555    1.721901    4.784069
     91          1           0        5.188901    3.312893    5.263719
     92          1           0        6.812605    2.290096    6.566829
     93          1           0        7.559088    1.493023    5.274347
     94          1           0        6.158203    0.750267    6.028262
     95          1           0        6.564371   -3.859409    2.962863
     96          1           0        6.067117   -2.649294    4.226417
     97          1           0        7.493106   -2.407078    3.043883
     98          1           0        2.479526   -4.271350   -0.577671
     99          1           0        3.716057   -6.140813   -4.229960
    100          1           0        2.782182   -7.122726   -3.190214
    101          1           0        4.491626   -6.865034   -2.677436
    102          1           0       -3.557851   -5.758408   -0.193432
    103          1           0       -3.959569   -4.953337   -1.751393
    104          1           0       -3.778492   -3.197921    0.673354
    105          1           0       -6.239758   -5.283776   -1.195975
    106          1           0       -7.498561   -4.126152   -0.787193
    107          1           0       -7.105845   -5.442718    0.416773
    108          1           0       -7.406626   -2.518892    0.800487
    109          1           0       -5.970289   -1.809203    0.723872
    110          1           0       -5.790318   -3.858861    2.790361
    111          1           0       -7.145890   -2.593560    3.068102
    112          1           0       -4.665949   -1.289096    2.237027
    113          1           0       -4.217835   -2.427491    3.441305
    114          1           0       -6.341205   -1.388553    4.737210
    115          1           0       -4.792814   -0.363327    6.149020
    116          1           0       -4.308879    0.777211    4.963557
    117          1           0       -3.481954   -0.758968    5.137365
    118          1           0       -6.213216    0.206887    2.298714
    119          1           0       -5.827592    1.375092    3.617322
    120          1           0       -8.096375    1.485888    4.153346
    121          1           0       -8.147378   -0.177627    4.289797
    122          1           0       -9.438030   -0.481375    2.862259
    123          1           0       -8.227349   -0.498450    1.653891
    124          1           0       -8.984028    2.264323    2.270703
    125          1           0      -11.533761    1.875530    1.630523
    126          1           0      -10.987025    1.893954    3.298629
    127          1           0      -11.241410    0.389625    2.559830
    128          1           0      -10.397208    1.450186   -0.118567
    129          1           0       -8.861237    0.590996   -0.155746
    130          1           0       -7.572922    2.553163   -0.540137
    131          1           0       -8.647039    3.529211    0.477614
    132          1           0      -10.098478    4.084252   -1.291847
    133          1           0       -9.966577    2.601151   -2.083963
    134          1           0       -7.480950    3.219521   -2.556578
    135          1           0       -7.888642    5.921771   -3.302442
    136          1           0       -6.819652    5.276772   -2.247272
    137          1           0       -8.302418    5.696856   -1.513666
    138          1           0       -8.281441    4.406791   -4.647150
    139          1           0       -9.857306    4.114003   -4.026549
    140          1           0       -8.780979    2.715651   -4.376110
 ---------------------------------------------------------------------

 SCF Done:  E(RPBE1PBE) =  -3005.30247295     A.U. after   16 cycles

 Excitation energies and oscillator strengths:

 Excited State   1:      Singlet-A      1.8715 eV  662.48 nm  f=0.3446  <S**2>=0.000
     245 -> 248       -0.17893
     246 -> 247        0.68834
 This state for optimization and/or second-order correction.
 Total Energy, E(TD-HF/TD-DFT) =  -3005.23369634
 Copying the excited state density for this state as the 1-particle RhoCI density.

 Excited State   2:      Singlet-A      2.1849 eV  567.45 nm  f=0.1105  <S**2>=0.000
     245 -> 247        0.64910
     246 -> 248        0.25920

 Excited State   3:      Singlet-A      2.7581 eV  449.53 nm  f=0.0002  <S**2>=0.000
     243 -> 247        0.67737
     243 -> 249       -0.12585
     243 -> 250       -0.10453

 Excited State   4:      Singlet-A      2.9657 eV  418.06 nm  f=0.0070  <S**2>=0.000
     240 -> 247       -0.19306
     242 -> 247        0.66447

 Excited State   5:      Singlet-A      3.0760 eV  403.06 nm  f=0.0033  <S**2>=0.000
     240 -> 247        0.59564
     240 -> 249        0.11706
     241 -> 247       -0.21967
     242 -> 247        0.19671
     246 -> 248       -0.15921

 The electronic state is 1-A.
 Alpha  occ. eigenvalues --  -46.93192 -19.26512 -19.25808 -19.20097 -19.20093
 Alpha  occ. eigenvalues --  -19.19885 -19.18361 -14.42377 -14.42280 -14.39147
 Alpha  occ. eigenvalues --  -14.38568 -10.36771 -10.36111 -10.32972 -10.31376
 Alpha  occ. eigenvalues --  -10.29645 -10.29454 -10.29235 -10.29190 -10.29036
 Alpha  occ. eigenvalues --  -10.28988 -10.28711 -10.27002 -10.26626 -10.26582
 Alpha  occ. eigenvalues --  -10.26227 -10.26221 -10.26005 -10.25973 -10.25654
 Alpha  occ. eigenvalues --  -10.25401 -10.25338 -10.25173 -10.25127 -10.25109
 Alpha  occ. eigenvalues --  -10.24997 -10.24757 -10.24690 -10.24666 -10.24612
 Alpha  occ. eigenvalues --  -10.24581 -10.24557 -10.24452 -10.24367 -10.23710
 Alpha  occ. eigenvalues --  -10.23580 -10.23500 -10.23431 -10.23358 -10.23277
 Alpha  occ. eigenvalues --  -10.23204 -10.22845 -10.22830 -10.22739 -10.22676
 Alpha  occ. eigenvalues --  -10.22528 -10.22476 -10.22432 -10.22249 -10.22230
 Alpha  occ. eigenvalues --  -10.22198 -10.22113 -10.21944 -10.21587 -10.21113
 Alpha  occ. eigenvalues --  -10.20989  -3.15146  -1.88018  -1.87486  -1.87381
 Alpha  occ. eigenvalues --   -1.12321  -1.09629  -1.05644  -1.05372  -1.02932
 Alpha  occ. eigenvalues --   -1.01287  -1.00837  -0.99987  -0.99616  -0.97672
 Alpha  occ. eigenvalues --   -0.87899  -0.84542  -0.84082  -0.83721  -0.83482
 Alpha  occ. eigenvalues --   -0.83349  -0.82639  -0.82528  -0.81911  -0.81312
 Alpha  occ. eigenvalues --   -0.80883  -0.79765  -0.78870  -0.78486  -0.77824
 Alpha  occ. eigenvalues --   -0.76970  -0.76347  -0.75880  -0.75325  -0.74628
 Alpha  occ. eigenvalues --   -0.74082  -0.72722  -0.72531  -0.71511  -0.70568
 Alpha  occ. eigenvalues --   -0.70209  -0.69645  -0.69022  -0.68548  -0.68309
 Alpha  occ. eigenvalues --   -0.68107  -0.67510  -0.67170  -0.65004  -0.63978
 Alpha  occ. eigenvalues --   -0.63787  -0.62739  -0.62610  -0.61412  -0.60883
 Alpha  occ. eigenvalues --   -0.60468  -0.60101  -0.59565  -0.59442  -0.58380
 Alpha  occ. eigenvalues --   -0.58073  -0.57657  -0.56928  -0.56612  -0.55107
 Alpha  occ. eigenvalues --   -0.54774  -0.54359  -0.54156  -0.53925  -0.52996
 Alpha  occ. eigenvalues --   -0.52531  -0.51669  -0.51204  -0.50803  -0.50354
 Alpha  occ. eigenvalues --   -0.50159  -0.49708  -0.49083  -0.48907  -0.48702
 Alpha  occ. eigenvalues --   -0.48182  -0.48033  -0.47855  -0.47658  -0.47157
 Alpha  occ. eigenvalues --   -0.47060  -0.46991  -0.46881  -0.46711  -0.46358
 Alpha  occ. eigenvalues --   -0.46058  -0.45970  -0.45781  -0.45554  -0.45503
 Alpha  occ. eigenvalues --   -0.45196  -0.44740  -0.44549  -0.44512  -0.44265
 Alpha  occ. eigenvalues --   -0.44184  -0.44077  -0.43690  -0.43665  -0.43327
 Alpha  occ. eigenvalues --   -0.43208  -0.43065  -0.42982  -0.42634  -0.42557
 Alpha  occ. eigenvalues --   -0.42536  -0.42219  -0.42052  -0.41923  -0.41722
 Alpha  occ. eigenvalues --   -0.41542  -0.41150  -0.40881  -0.40629  -0.40547
 Alpha  occ. eigenvalues --   -0.40265  -0.40140  -0.40022  -0.39887  -0.39605
 Alpha  occ. eigenvalues --   -0.39258  -0.39222  -0.38772  -0.38659  -0.38470
 Alpha  occ. eigenvalues --   -0.38408  -0.38404  -0.38120  -0.38064  -0.37902
 Alpha  occ. eigenvalues --   -0.37798  -0.37621  -0.37463  -0.37365  -0.37126
 Alpha  occ. eigenvalues --   -0.36945  -0.36853  -0.36808  -0.36335  -0.36135
 Alpha  occ. eigenvalues --   -0.35989  -0.35704  -0.35679  -0.35366  -0.35204
 Alpha  occ. eigenvalues --   -0.34746  -0.34725  -0.34393  -0.34125  -0.33905
 Alpha  occ. eigenvalues --   -0.33361  -0.33089  -0.32798  -0.32696  -0.32540
 Alpha  occ. eigenvalues --   -0.32232  -0.32070  -0.31877  -0.31549  -0.31502
 Alpha  occ. eigenvalues --   -0.30310  -0.30280  -0.30178  -0.29801  -0.29512
 Alpha  occ. eigenvalues --   -0.29089  -0.28961  -0.28533  -0.27197  -0.26148
 Alpha  occ. eigenvalues --   -0.25963  -0.25477  -0.24986  -0.24814  -0.21361
 Alpha  occ. eigenvalues --   -0.19393
 Alpha virt. eigenvalues --   -0.11648  -0.06043  -0.03969  -0.01914  -0.00420
 Alpha virt. eigenvalues --    0.00019   0.00423   0.00802   0.01100   0.02233
 Alpha virt. eigenvalues --    0.04006   0.04348   0.05275   0.05491   0.05787

 Mulliken charges:
               1
     1  Mg   0.953835
     2  C   -0.033815
     3  C   -0.069964
     4  C   -0.080128
     5  C   -0.102294
     6  N   -0.374359
     7  C    0.052295
     8  C   -0.126834
     9  C   -0.148462
    10  C    0.056494
    11  C    0.014142
    12  C    0.031016
    13  C   -0.056591
    14  C    0.230154
    15  O   -0.267462
    16  O   -0.339539
    17  N   -0.460241
    18  C    0.193556
    19  C   -0.157813
    20  C   -0.038961
    21  C    0.132335
    22  C    0.096240
    23  C    0.000254
    24  O   -0.219779
    25  C   -0.055470
    26  N   -0.404963
    27  C    0.082329
    28  C   -0.123361
    29  C   -0.074981
    30  C    0.105680
    31  C    0.009151
    32  C   -0.028453
    33  C   -0.086206
    34  N   -0.435231
    35  C    0.159637
    36  C   -0.211128
    37  C   -0.076276
    38  C    0.156358
    39  C    0.079611
    40  C    0.179063
    41  O   -0.196128
    42  C   -0.150074
    43  C    0.328775
    44  O   -0.279791
    45  O   -0.397357
    46  C    0.123705
    47  C    0.214954
    48  C   -0.153218
    49  C   -0.238452
    50  C    0.053006
    51  C   -0.061364
    52  C    0.019223
    53  C   -0.041580
    54  C   -0.201554
    55  C   -0.016525
    56  C    0.007092
    57  C   -0.074837
    58  C   -0.003759
    59  C   -0.207731
    60  C   -0.027408
    61  C    0.014491
    62  C   -0.042510
    63  C    0.000608
    64  C   -0.264407
    65  C    0.001182
    66  C   -0.042712
    67  H   -0.003368
    68  H    0.007003
    69  H    0.005709
    70  H    0.042243
    71  H    0.046606
    72  H    0.058040
    73  H    0.049417
    74  H    0.052123
    75  H    0.045521
    76  H    0.052330
    77  H    0.068117
    78  H    0.082258
    79  H    0.059595
    80  H    0.020304
    81  H    0.068131
    82  H    0.065526
    83  H    0.049271
    84  H    0.058120
    85  H    0.046145
    86  H    0.048418
    87  H    0.058844
    88  H    0.036391
    89  H    0.045341
    90  H    0.042255
    91  H    0.045576
    92  H    0.039389
    93  H    0.043821
    94  H    0.046046
    95  H    0.059396
    96  H    0.068320
    97  H    0.054197
    98  H    0.071219
    99  H    0.064675
   100  H    0.053485
   101  H    0.079928
   102  H    0.055556
   103  H    0.083736
   104  H    0.039446
   105  H    0.030932
   106  H    0.045078
   107  H    0.067961
   108  H    0.022137
   109  H    0.040955
   110  H    0.045216
   111  H    0.044516
   112  H    0.037639
   113  H    0.024563
   114  H    0.044569
   115  H    0.028607
   116  H    0.029797
   117  H    0.033027
   118  H    0.031591
   119  H    0.038539
   120  H    0.031322
   121  H    0.012843
   122  H    0.016419
   123  H    0.023653
   124  H    0.042186
   125  H    0.033059
   126  H    0.027617
   127  H    0.027419
   128  H    0.031907
   129  H    0.026368
   130  H    0.039398
   131  H    0.036533
   132  H    0.024913
   133  H    0.025844
   134  H    0.032200
   135  H    0.036826
   136  H    0.016358
   137  H    0.025305
   138  H    0.030338
   139  H    0.027491
   140  H    0.034278
 Sum of Mulliken charges =  -0.00000

 Dipole moment (field-independent basis, Debye):
    X=             -0.9180    Y=              1.4419    Z=              3.3576  Tot=              3.7677
 Quadrupole moment (field-independent basis, Debye-Ang):
   XX=           -392.2291   YY=           -437.8733   ZZ=           -385.7421
   XY=             32.7160   XZ=              9.0498   YZ=             24.2496

 Normal termination of Gaussian 16 at Wed May  4 08:46:14 2022.
