 Gaussian 16, Revision A.03,
 Gaussian 16:  ES64L-G16RevA.03 25-Dec-2016

 --------------------------------
 #p wB97XD/Def2SVP td=(nstates=5)
 --------------------------------

 ----------------------------------------------------
 step_151_chromophore_17 TDDFT with wB97XD functional
 ----------------------------------------------------
 Symbolic Z-matrix:
 Charge =  0 Multiplicity = 1

                         Standard orientation:
 ---------------------------------------------------------------------
 Center     Atomic      Atomic             Coordinates (Angstroms)
 Number     Number       Type             X           Y           Z
 ---------------------------------------------------------------------
      1         12           0        4.130319    0.924733   -0.359326
      2          6           0        3.477994   -2.432762   -0.733709
      3          6           0        1.878817    1.664939   -2.810263
      4          6           0        4.366754    4.255524    0.307979
      5          6           0        5.803833    0.138074    2.614099
      6          7           0        2.779607   -0.278031   -1.562878
      7          6           0        2.695036   -1.615502   -1.586282
      8          6           0        1.647001   -2.024791   -2.572454
      9          6           0        1.479451   -0.700836   -3.508324
     10          6           0        2.082940    0.308763   -2.546799
     11          6           0        2.185996   -0.692455   -4.945349
     12          6           0        0.357120   -2.447021   -1.808578
     13          6           0        0.001107   -3.941167   -1.577939
     14          6           0       -1.459456   -4.416623   -1.829156
     15          8           0       -1.961531   -4.716410   -2.903180
     16          8           0       -2.128160   -4.434388   -0.653471
     17          7           0        3.281619    2.782959   -1.208794
     18          6           0        2.351997    2.822601   -2.244084
     19          6           0        2.103373    4.131705   -2.606061
     20          6           0        2.844030    4.996230   -1.772471
     21          6           0        3.553194    4.051296   -0.804808
     22          6           0        1.222144    4.549291   -3.784188
     23          6           0        2.957446    6.457792   -1.833420
     24          8           0        2.360056    7.187329   -2.575386
     25          6           0        3.946116    7.229506   -0.942690
     26          7           0        5.107679    2.056582    1.123405
     27          6           0        5.033676    3.386054    1.220325
     28          6           0        5.679777    3.802058    2.533485
     29          6           0        6.064516    2.560682    3.238600
     30          6           0        5.565092    1.499280    2.289078
     31          6           0        6.656979    5.063441    2.378216
     32          6           0        5.564162    2.406058    4.789104
     33          6           0        6.569480    1.698661    5.684282
     34          7           0        4.838105   -0.797875    0.647969
     35          6           0        5.440575   -0.930104    1.862850
     36          6           0        5.638580   -2.275553    2.112014
     37          6           0        4.861228   -2.955725    1.145010
     38          6           0        4.389603   -1.960671    0.275982
     39          6           0        6.497394   -2.807573    3.237448
     40          6           0        4.394857   -4.266846    0.655548
     41          8           0        4.511645   -5.435496    0.961811
     42          6           0        3.501747   -3.897528   -0.624475
     43          6           0        4.159356   -4.516037   -1.729525
     44          8           0        5.369113   -4.479865   -2.057831
     45          8           0        3.186616   -5.381745   -2.218352
     46          6           0        3.627595   -6.435485   -3.183667
     47          6           0       -3.518666   -4.828520   -0.762531
     48          6           0       -4.406799   -3.807038    0.023725
     49          6           0       -5.760904   -3.797701    0.189743
     50          6           0       -6.735207   -4.780250   -0.365649
     51          6           0       -6.385452   -2.741429    1.108007
     52          6           0       -6.193085   -2.861204    2.611660
     53          6           0       -5.074885   -1.869774    3.064044
     54          6           0       -5.592729   -0.857595    4.148825
     55          6           0       -4.466038   -0.290745    5.112066
     56          6           0       -6.256340    0.403100    3.370093
     57          6           0       -7.802774    0.592924    3.600295
     58          6           0       -8.678863    0.151091    2.402233
     59          6           0       -9.403791    1.365372    1.820090
     60          6           0      -10.865034    1.389192    2.340640
     61          6           0       -9.381697    1.445940    0.277373
     62          6           0       -8.611388    2.729125   -0.261492
     63          6           0       -9.367201    3.303879   -1.505157
     64          6           0       -8.370638    3.848054   -2.530878
     65          6           0       -7.894085    5.268863   -2.429430
     66          6           0       -8.835992    3.734396   -3.992237
     67          1           0        1.272900    1.799016   -3.708856
     68          1           0        4.228241    5.284512    0.646027
     69          1           0        6.378057   -0.064924    3.520840
     70          1           0        1.945368   -2.829609   -3.244285
     71          1           0        0.411190   -0.554630   -3.667717
     72          1           0        2.176456   -1.667977   -5.430719
     73          1           0        3.223910   -0.384626   -4.823758
     74          1           0        1.689811    0.078070   -5.535316
     75          1           0       -0.480801   -1.930156   -2.275719
     76          1           0        0.481661   -1.992545   -0.825110
     77          1           0        0.220686   -4.002878   -0.512159
     78          1           0        0.669149   -4.665475   -2.044445
     79          1           0        0.364063    5.155484   -3.491426
     80          1           0        0.804972    3.638975   -4.214086
     81          1           0        1.786008    5.149333   -4.498692
     82          1           0        3.508356    7.232012    0.055207
     83          1           0        4.046937    8.260060   -1.282708
     84          1           0        4.967805    6.849288   -0.936760
     85          1           0        4.863475    4.252559    3.098428
     86          1           0        7.145637    2.688495    3.286240
     87          1           0        6.573302    5.413637    1.349735
     88          1           0        7.692946    4.799199    2.590427
     89          1           0        6.371936    5.763220    3.164777
     90          1           0        4.715555    1.721901    4.784069
     91          1           0        5.188901    3.312893    5.263719
     92          1           0        6.812605    2.290096    6.566829
     93          1           0        7.559088    1.493023    5.274347
     94          1           0        6.158203    0.750267    6.028262
     95          1           0        6.564371   -3.859409    2.962863
     96          1           0        6.067117   -2.649294    4.226417
     97          1           0        7.493106   -2.407078    3.043883
     98          1           0        2.479526   -4.271350   -0.577671
     99          1           0        3.716057   -6.140813   -4.229960
    100          1           0        2.782182   -7.122726   -3.190214
    101          1           0        4.491626   -6.865034   -2.677436
    102          1           0       -3.557851   -5.758408   -0.193432
    103          1           0       -3.959569   -4.953337   -1.751393
    104          1           0       -3.778492   -3.197921    0.673354
    105          1           0       -6.239758   -5.283776   -1.195975
    106          1           0       -7.498561   -4.126152   -0.787193
    107          1           0       -7.105845   -5.442718    0.416773
    108          1           0       -7.406626   -2.518892    0.800487
    109          1           0       -5.970289   -1.809203    0.723872
    110          1           0       -5.790318   -3.858861    2.790361
    111          1           0       -7.145890   -2.593560    3.068102
    112          1           0       -4.665949   -1.289096    2.237027
    113          1           0       -4.217835   -2.427491    3.441305
    114          1           0       -6.341205   -1.388553    4.737210
    115          1           0       -4.792814   -0.363327    6.149020
    116          1           0       -4.308879    0.777211    4.963557
    117          1           0       -3.481954   -0.758968    5.137365
    118          1           0       -6.213216    0.206887    2.298714
    119          1           0       -5.827592    1.375092    3.617322
    120          1           0       -8.096375    1.485888    4.153346
    121          1           0       -8.147378   -0.177627    4.289797
    122          1           0       -9.438030   -0.481375    2.862259
    123          1           0       -8.227349   -0.498450    1.653891
    124          1           0       -8.984028    2.264323    2.270703
    125          1           0      -11.533761    1.875530    1.630523
    126          1           0      -10.987025    1.893954    3.298629
    127          1           0      -11.241410    0.389625    2.559830
    128          1           0      -10.397208    1.450186   -0.118567
    129          1           0       -8.861237    0.590996   -0.155746
    130          1           0       -7.572922    2.553163   -0.540137
    131          1           0       -8.647039    3.529211    0.477614
    132          1           0      -10.098478    4.084252   -1.291847
    133          1           0       -9.966577    2.601151   -2.083963
    134          1           0       -7.480950    3.219521   -2.556578
    135          1           0       -7.888642    5.921771   -3.302442
    136          1           0       -6.819652    5.276772   -2.247272
    137          1           0       -8.302418    5.696856   -1.513666
    138          1           0       -8.281441    4.406791   -4.647150
    139          1           0       -9.857306    4.114003   -4.026549
    140          1           0       -8.780979    2.715651   -4.376110
 ---------------------------------------------------------------------

 SCF Done:  E(RwB97XD) =  -3007.81040595     A.U. after   20 cycles

 Excitation energies and oscillator strengths:

 Excited State   1:      Singlet-A      1.6901 eV  733.61 nm  f=0.3666  <S**2>=0.000
     245 -> 248        0.19008
     246 -> 247        0.68094
     245 <- 248        0.11470
 This state for optimization and/or second-order correction.
 Total Energy, E(TD-HF/TD-DFT) =  -3007.74829713
 Copying the excited state density for this state as the 1-particle RhoCI density.

 Excited State   2:      Singlet-A      2.1317 eV  581.62 nm  f=0.1023  <S**2>=0.000
     245 -> 247        0.63366
     246 -> 248       -0.29437

 Excited State   3:      Singlet-A      3.3028 eV  375.39 nm  f=0.0214  <S**2>=0.000
     242 -> 247        0.24526
     242 -> 249        0.12177
     243 -> 247        0.57711
     246 -> 248       -0.20012

 Excited State   4:      Singlet-A      3.3779 eV  367.04 nm  f=0.0058  <S**2>=0.000
     241 -> 247        0.40566
     241 -> 249        0.18692
     241 -> 250        0.13791
     242 -> 247        0.38799
     242 -> 249        0.16804
     242 -> 250        0.15275
     243 -> 247       -0.17083

 Excited State   5:      Singlet-A      3.4643 eV  357.89 nm  f=0.2826  <S**2>=0.000
     240 -> 247        0.21228
     241 -> 247        0.18155
     242 -> 247       -0.20370
     243 -> 247        0.29729
     245 -> 247        0.18941
     246 -> 248        0.47697

 The electronic state is 1-A.
 Alpha  occ. eigenvalues --  -46.96153 -19.31040 -19.30340 -19.24791 -19.24746
 Alpha  occ. eigenvalues --  -19.24527 -19.23362 -14.47536 -14.47300 -14.44198
 Alpha  occ. eigenvalues --  -14.43406 -10.43539 -10.42936 -10.39691 -10.38389
 Alpha  occ. eigenvalues --  -10.36097 -10.35904 -10.35550 -10.35505 -10.35415
 Alpha  occ. eigenvalues --  -10.35326 -10.35246 -10.33651 -10.32921 -10.32785
 Alpha  occ. eigenvalues --  -10.32712 -10.32529 -10.32463 -10.32042 -10.31781
 Alpha  occ. eigenvalues --  -10.31748 -10.31718 -10.31557 -10.31520 -10.31331
 Alpha  occ. eigenvalues --  -10.31220 -10.31203 -10.31179 -10.31020 -10.31007
 Alpha  occ. eigenvalues --  -10.30943 -10.30882 -10.30751 -10.30714 -10.30267
 Alpha  occ. eigenvalues --  -10.29992 -10.29868 -10.29797 -10.29596 -10.29572
 Alpha  occ. eigenvalues --  -10.29507 -10.29216 -10.29198 -10.29190 -10.29040
 Alpha  occ. eigenvalues --  -10.29022 -10.28817 -10.28795 -10.28603 -10.28544
 Alpha  occ. eigenvalues --  -10.28535 -10.28471 -10.28357 -10.28016 -10.27549
 Alpha  occ. eigenvalues --  -10.27429  -3.21977  -1.95595  -1.95063  -1.94956
 Alpha  occ. eigenvalues --   -1.19664  -1.17029  -1.13287  -1.12697  -1.10249
 Alpha  occ. eigenvalues --   -1.08657  -1.08085  -1.07359  -1.06914  -1.05239
 Alpha  occ. eigenvalues --   -0.95442  -0.92213  -0.91728  -0.91383  -0.91094
 Alpha  occ. eigenvalues --   -0.90930  -0.90297  -0.90084  -0.89460  -0.88978
 Alpha  occ. eigenvalues --   -0.88601  -0.87437  -0.86455  -0.86110  -0.85475
 Alpha  occ. eigenvalues --   -0.84581  -0.84016  -0.83485  -0.83032  -0.82379
 Alpha  occ. eigenvalues --   -0.81753  -0.80301  -0.80110  -0.79321  -0.78223
 Alpha  occ. eigenvalues --   -0.77784  -0.77305  -0.76715  -0.76242  -0.75951
 Alpha  occ. eigenvalues --   -0.75666  -0.75105  -0.74700  -0.72659  -0.71519
 Alpha  occ. eigenvalues --   -0.71319  -0.70338  -0.70147  -0.69038  -0.68376
 Alpha  occ. eigenvalues --   -0.67925  -0.67596  -0.67180  -0.66876  -0.65988
 Alpha  occ. eigenvalues --   -0.65612  -0.65321  -0.64577  -0.64021  -0.62541
 Alpha  occ. eigenvalues --   -0.62193  -0.61734  -0.61614  -0.61332  -0.60381
 Alpha  occ. eigenvalues --   -0.60041  -0.59114  -0.58701  -0.58154  -0.57736
 Alpha  occ. eigenvalues --   -0.57599  -0.57086  -0.56475  -0.56242  -0.56071
 Alpha  occ. eigenvalues --   -0.55591  -0.55332  -0.55271  -0.54968  -0.54563
 Alpha  occ. eigenvalues --   -0.54403  -0.54371  -0.54242  -0.54161  -0.54062
 Alpha  occ. eigenvalues --   -0.53423  -0.53339  -0.53037  -0.52843  -0.52793
 Alpha  occ. eigenvalues --   -0.52460  -0.52178  -0.51910  -0.51825  -0.51697
 Alpha  occ. eigenvalues --   -0.51510  -0.51393  -0.51067  -0.50972  -0.50580
 Alpha  occ. eigenvalues --   -0.50457  -0.50414  -0.50274  -0.49908  -0.49812
 Alpha  occ. eigenvalues --   -0.49766  -0.49446  -0.49266  -0.49206  -0.49016
 Alpha  occ. eigenvalues --   -0.48835  -0.48425  -0.48200  -0.47968  -0.47724
 Alpha  occ. eigenvalues --   -0.47437  -0.47363  -0.47219  -0.47026  -0.46759
 Alpha  occ. eigenvalues --   -0.46433  -0.46368  -0.45932  -0.45825  -0.45652
 Alpha  occ. eigenvalues --   -0.45613  -0.45464  -0.45295  -0.45253  -0.45073
 Alpha  occ. eigenvalues --   -0.44958  -0.44855  -0.44524  -0.44420  -0.44170
 Alpha  occ. eigenvalues --   -0.44086  -0.43946  -0.43896  -0.43391  -0.43174
 Alpha  occ. eigenvalues --   -0.43074  -0.42789  -0.42659  -0.42408  -0.42122
 Alpha  occ. eigenvalues --   -0.41825  -0.41699  -0.41409  -0.41232  -0.40821
 Alpha  occ. eigenvalues --   -0.40457  -0.40167  -0.39767  -0.39594  -0.39580
 Alpha  occ. eigenvalues --   -0.39257  -0.39101  -0.38939  -0.38572  -0.38525
 Alpha  occ. eigenvalues --   -0.37335  -0.37103  -0.37038  -0.36583  -0.36435
 Alpha  occ. eigenvalues --   -0.36113  -0.36005  -0.35405  -0.33848  -0.33016
 Alpha  occ. eigenvalues --   -0.32483  -0.32334  -0.32050  -0.31562  -0.26379
 Alpha  occ. eigenvalues --   -0.23574
 Alpha virt. eigenvalues --   -0.07515  -0.00657   0.02287   0.04612   0.05673
 Alpha virt. eigenvalues --    0.06748   0.07027   0.07497   0.07701   0.08663
 Alpha virt. eigenvalues --    0.10722   0.11194   0.11986   0.12191   0.12527

 Mulliken charges:
               1
     1  Mg   0.946831
     2  C   -0.032194
     3  C   -0.085513
     4  C   -0.094201
     5  C   -0.120001
     6  N   -0.336992
     7  C    0.015397
     8  C   -0.101097
     9  C   -0.124127
    10  C    0.043163
    11  C    0.023454
    12  C    0.040185
    13  C   -0.038223
    14  C    0.220168
    15  O   -0.265398
    16  O   -0.338895
    17  N   -0.430306
    18  C    0.189609
    19  C   -0.150109
    20  C   -0.029280
    21  C    0.124102
    22  C    0.104350
    23  C   -0.004410
    24  O   -0.213887
    25  C   -0.040320
    26  N   -0.371752
    27  C    0.075832
    28  C   -0.104231
    29  C   -0.046180
    30  C    0.093826
    31  C    0.024483
    32  C   -0.013303
    33  C   -0.073039
    34  N   -0.392917
    35  C    0.153969
    36  C   -0.213418
    37  C   -0.073298
    38  C    0.130192
    39  C    0.090286
    40  C    0.164442
    41  O   -0.188559
    42  C   -0.094716
    43  C    0.296717
    44  O   -0.273529
    45  O   -0.394879
    46  C    0.138078
    47  C    0.227813
    48  C   -0.162242
    49  C   -0.223880
    50  C    0.068949
    51  C   -0.038730
    52  C    0.035980
    53  C   -0.024165
    54  C   -0.172453
    55  C   -0.004452
    56  C    0.024105
    57  C   -0.058557
    58  C    0.025516
    59  C   -0.179442
    60  C   -0.014261
    61  C    0.029807
    62  C   -0.023934
    63  C    0.011787
    64  C   -0.233364
    65  C    0.010419
    66  C   -0.026606
    67  H   -0.013295
    68  H   -0.006272
    69  H   -0.004780
    70  H    0.030698
    71  H    0.038132
    72  H    0.054075
    73  H    0.043014
    74  H    0.046680
    75  H    0.037545
    76  H    0.043483
    77  H    0.062074
    78  H    0.074201
    79  H    0.057479
    80  H    0.016281
    81  H    0.065791
    82  H    0.061098
    83  H    0.048296
    84  H    0.052441
    85  H    0.033165
    86  H    0.033369
    87  H    0.050422
    88  H    0.031140
    89  H    0.040445
    90  H    0.032498
    91  H    0.038789
    92  H    0.034232
    93  H    0.037717
    94  H    0.040696
    95  H    0.054219
    96  H    0.063767
    97  H    0.048105
    98  H    0.054415
    99  H    0.061184
   100  H    0.049968
   101  H    0.076682
   102  H    0.050479
   103  H    0.078818
   104  H    0.033805
   105  H    0.024582
   106  H    0.038431
   107  H    0.062963
   108  H    0.014135
   109  H    0.028187
   110  H    0.036966
   111  H    0.034071
   112  H    0.025463
   113  H    0.017310
   114  H    0.032257
   115  H    0.022730
   116  H    0.022748
   117  H    0.028070
   118  H    0.015767
   119  H    0.031164
   120  H    0.025262
   121  H    0.001600
   122  H    0.006117
   123  H   -0.000251
   124  H    0.027011
   125  H    0.026633
   126  H    0.022030
   127  H    0.020297
   128  H    0.021651
   129  H    0.018578
   130  H    0.031365
   131  H    0.027188
   132  H    0.017182
   133  H    0.015931
   134  H    0.019067
   135  H    0.031253
   136  H    0.010314
   137  H    0.018766
   138  H    0.023266
   139  H    0.019386
   140  H    0.029058
 Sum of Mulliken charges =  -0.00000

 Dipole moment (field-independent basis, Debye):
    X=             -1.0945    Y=              1.8513    Z=              3.0050  Tot=              3.6953
 Quadrupole moment (field-independent basis, Debye-Ang):
   XX=           -393.5455   YY=           -435.5293   ZZ=           -385.5026
   XY=             33.9098   XZ=              7.4401   YZ=             23.4954

 Normal termination of Gaussian 16 at Wed May  4 09:13:27 2022.
