 Gaussian 16, Revision A.03,
 Gaussian 16:  ES64L-G16RevA.03 25-Dec-2016

 --------------------
 #p ZINDO=(nstates=5)
 --------------------

 -----------------------------
 step_151_chromophore_17 ZINDO
 -----------------------------
 Symbolic Z-matrix:
 Charge =  0 Multiplicity = 1

                         Standard orientation:
 ---------------------------------------------------------------------
 Center     Atomic      Atomic             Coordinates (Angstroms)
 Number     Number       Type             X           Y           Z
 ---------------------------------------------------------------------
      1         12           0        4.130319    0.924733   -0.359326
      2          6           0        3.477994   -2.432762   -0.733709
      3          6           0        1.878817    1.664939   -2.810263
      4          6           0        4.366754    4.255524    0.307979
      5          6           0        5.803833    0.138074    2.614099
      6          7           0        2.779607   -0.278031   -1.562878
      7          6           0        2.695036   -1.615502   -1.586282
      8          6           0        1.647001   -2.024791   -2.572454
      9          6           0        1.479451   -0.700836   -3.508324
     10          6           0        2.082940    0.308763   -2.546799
     11          6           0        2.185996   -0.692455   -4.945349
     12          6           0        0.357120   -2.447021   -1.808578
     13          6           0        0.001107   -3.941167   -1.577939
     14          6           0       -1.459456   -4.416623   -1.829156
     15          8           0       -1.961531   -4.716410   -2.903180
     16          8           0       -2.128160   -4.434388   -0.653471
     17          7           0        3.281619    2.782959   -1.208794
     18          6           0        2.351997    2.822601   -2.244084
     19          6           0        2.103373    4.131705   -2.606061
     20          6           0        2.844030    4.996230   -1.772471
     21          6           0        3.553194    4.051296   -0.804808
     22          6           0        1.222144    4.549291   -3.784188
     23          6           0        2.957446    6.457792   -1.833420
     24          8           0        2.360056    7.187329   -2.575386
     25          6           0        3.946116    7.229506   -0.942690
     26          7           0        5.107679    2.056582    1.123405
     27          6           0        5.033676    3.386054    1.220325
     28          6           0        5.679777    3.802058    2.533485
     29          6           0        6.064516    2.560682    3.238600
     30          6           0        5.565092    1.499280    2.289078
     31          6           0        6.656979    5.063441    2.378216
     32          6           0        5.564162    2.406058    4.789104
     33          6           0        6.569480    1.698661    5.684282
     34          7           0        4.838105   -0.797875    0.647969
     35          6           0        5.440575   -0.930104    1.862850
     36          6           0        5.638580   -2.275553    2.112014
     37          6           0        4.861228   -2.955725    1.145010
     38          6           0        4.389603   -1.960671    0.275982
     39          6           0        6.497394   -2.807573    3.237448
     40          6           0        4.394857   -4.266846    0.655548
     41          8           0        4.511645   -5.435496    0.961811
     42          6           0        3.501747   -3.897528   -0.624475
     43          6           0        4.159356   -4.516037   -1.729525
     44          8           0        5.369113   -4.479865   -2.057831
     45          8           0        3.186616   -5.381745   -2.218352
     46          6           0        3.627595   -6.435485   -3.183667
     47          6           0       -3.518666   -4.828520   -0.762531
     48          6           0       -4.406799   -3.807038    0.023725
     49          6           0       -5.760904   -3.797701    0.189743
     50          6           0       -6.735207   -4.780250   -0.365649
     51          6           0       -6.385452   -2.741429    1.108007
     52          6           0       -6.193085   -2.861204    2.611660
     53          6           0       -5.074885   -1.869774    3.064044
     54          6           0       -5.592729   -0.857595    4.148825
     55          6           0       -4.466038   -0.290745    5.112066
     56          6           0       -6.256340    0.403100    3.370093
     57          6           0       -7.802774    0.592924    3.600295
     58          6           0       -8.678863    0.151091    2.402233
     59          6           0       -9.403791    1.365372    1.820090
     60          6           0      -10.865034    1.389192    2.340640
     61          6           0       -9.381697    1.445940    0.277373
     62          6           0       -8.611388    2.729125   -0.261492
     63          6           0       -9.367201    3.303879   -1.505157
     64          6           0       -8.370638    3.848054   -2.530878
     65          6           0       -7.894085    5.268863   -2.429430
     66          6           0       -8.835992    3.734396   -3.992237
     67          1           0        1.272900    1.799016   -3.708856
     68          1           0        4.228241    5.284512    0.646027
     69          1           0        6.378057   -0.064924    3.520840
     70          1           0        1.945368   -2.829609   -3.244285
     71          1           0        0.411190   -0.554630   -3.667717
     72          1           0        2.176456   -1.667977   -5.430719
     73          1           0        3.223910   -0.384626   -4.823758
     74          1           0        1.689811    0.078070   -5.535316
     75          1           0       -0.480801   -1.930156   -2.275719
     76          1           0        0.481661   -1.992545   -0.825110
     77          1           0        0.220686   -4.002878   -0.512159
     78          1           0        0.669149   -4.665475   -2.044445
     79          1           0        0.364063    5.155484   -3.491426
     80          1           0        0.804972    3.638975   -4.214086
     81          1           0        1.786008    5.149333   -4.498692
     82          1           0        3.508356    7.232012    0.055207
     83          1           0        4.046937    8.260060   -1.282708
     84          1           0        4.967805    6.849288   -0.936760
     85          1           0        4.863475    4.252559    3.098428
     86          1           0        7.145637    2.688495    3.286240
     87          1           0        6.573302    5.413637    1.349735
     88          1           0        7.692946    4.799199    2.590427
     89          1           0        6.371936    5.763220    3.164777
     90          1           0        4.715555    1.721901    4.784069
     91          1           0        5.188901    3.312893    5.263719
     92          1           0        6.812605    2.290096    6.566829
     93          1           0        7.559088    1.493023    5.274347
     94          1           0        6.158203    0.750267    6.028262
     95          1           0        6.564371   -3.859409    2.962863
     96          1           0        6.067117   -2.649294    4.226417
     97          1           0        7.493106   -2.407078    3.043883
     98          1           0        2.479526   -4.271350   -0.577671
     99          1           0        3.716057   -6.140813   -4.229960
    100          1           0        2.782182   -7.122726   -3.190214
    101          1           0        4.491626   -6.865034   -2.677436
    102          1           0       -3.557851   -5.758408   -0.193432
    103          1           0       -3.959569   -4.953337   -1.751393
    104          1           0       -3.778492   -3.197921    0.673354
    105          1           0       -6.239758   -5.283776   -1.195975
    106          1           0       -7.498561   -4.126152   -0.787193
    107          1           0       -7.105845   -5.442718    0.416773
    108          1           0       -7.406626   -2.518892    0.800487
    109          1           0       -5.970289   -1.809203    0.723872
    110          1           0       -5.790318   -3.858861    2.790361
    111          1           0       -7.145890   -2.593560    3.068102
    112          1           0       -4.665949   -1.289096    2.237027
    113          1           0       -4.217835   -2.427491    3.441305
    114          1           0       -6.341205   -1.388553    4.737210
    115          1           0       -4.792814   -0.363327    6.149020
    116          1           0       -4.308879    0.777211    4.963557
    117          1           0       -3.481954   -0.758968    5.137365
    118          1           0       -6.213216    0.206887    2.298714
    119          1           0       -5.827592    1.375092    3.617322
    120          1           0       -8.096375    1.485888    4.153346
    121          1           0       -8.147378   -0.177627    4.289797
    122          1           0       -9.438030   -0.481375    2.862259
    123          1           0       -8.227349   -0.498450    1.653891
    124          1           0       -8.984028    2.264323    2.270703
    125          1           0      -11.533761    1.875530    1.630523
    126          1           0      -10.987025    1.893954    3.298629
    127          1           0      -11.241410    0.389625    2.559830
    128          1           0      -10.397208    1.450186   -0.118567
    129          1           0       -8.861237    0.590996   -0.155746
    130          1           0       -7.572922    2.553163   -0.540137
    131          1           0       -8.647039    3.529211    0.477614
    132          1           0      -10.098478    4.084252   -1.291847
    133          1           0       -9.966577    2.601151   -2.083963
    134          1           0       -7.480950    3.219521   -2.556578
    135          1           0       -7.888642    5.921771   -3.302442
    136          1           0       -6.819652    5.276772   -2.247272
    137          1           0       -8.302418    5.696856   -1.513666
    138          1           0       -8.281441    4.406791   -4.647150
    139          1           0       -9.857306    4.114003   -4.026549
    140          1           0       -8.780979    2.715651   -4.376110
 ---------------------------------------------------------------------

 SCF Done:  E(RZINDO/S) =  -474.456095354     A.U. after   19 cycles

 Excitation energies and oscillator strengths:

 Excited State   1:      Singlet-A      1.3005 eV  953.36 nm  f=0.5770  <S**2>=0.000
     175 ->178        -0.18433
     176 ->177         0.66495
 This state for optimization and/or second-order correction.
 Total Energy, E(CIS/TDA) =  -474.408303039
 Copying the excited state density for this state as the 1-particle RhoCI density.

 Excited State   2:      Singlet-A      1.8993 eV  652.78 nm  f=0.0334  <S**2>=0.000
     175 ->177         0.53301
     176 ->178         0.43643

 Excited State   3:      Singlet-A      2.8339 eV  437.51 nm  f=0.0027  <S**2>=0.000
     169 ->177         0.35535
     169 ->178        -0.12845
     169 ->179        -0.32007
     169 ->180        -0.29122
     169 ->186         0.22330

 Excited State   4:      Singlet-A      2.9746 eV  416.81 nm  f=1.1459  <S**2>=0.000
     171 ->177        -0.11831
     175 ->177        -0.39101
     176 ->178         0.50701
     176 ->179         0.13323

 Excited State   5:      Singlet-A      3.0845 eV  401.96 nm  f=0.1130  <S**2>=0.000
     170 ->177         0.25690
     170 ->179         0.30285
     170 ->180        -0.21874
     170 ->184        -0.14102
     170 ->186        -0.16698
     170 ->187         0.15128
     170 ->202        -0.10322
     175 ->177        -0.11903
     176 ->178         0.13427
     176 ->179        -0.33025

 The electronic state is 1-A.
 Alpha  occ. eigenvalues --   -1.88045  -1.83225  -1.82209  -1.74401  -1.73381
 Alpha  occ. eigenvalues --   -1.72613  -1.64961  -1.61631  -1.60904  -1.57859
 Alpha  occ. eigenvalues --   -1.56614  -1.50047  -1.48337  -1.47550  -1.46799
 Alpha  occ. eigenvalues --   -1.44610  -1.43128  -1.40801  -1.40068  -1.38338
 Alpha  occ. eigenvalues --   -1.36705  -1.34587  -1.33279  -1.32114  -1.28753
 Alpha  occ. eigenvalues --   -1.28045  -1.27813  -1.23509  -1.21626  -1.18566
 Alpha  occ. eigenvalues --   -1.18432  -1.15858  -1.14367  -1.13148  -1.12969
 Alpha  occ. eigenvalues --   -1.12844  -1.10222  -1.10066  -1.05483  -1.03408
 Alpha  occ. eigenvalues --   -1.02574  -1.01602  -0.99403  -0.98560  -0.97694
 Alpha  occ. eigenvalues --   -0.96877  -0.94980  -0.94058  -0.93503  -0.93244
 Alpha  occ. eigenvalues --   -0.91823  -0.90911  -0.90096  -0.88914  -0.88094
 Alpha  occ. eigenvalues --   -0.86860  -0.84653  -0.84316  -0.82708  -0.80146
 Alpha  occ. eigenvalues --   -0.79948  -0.79001  -0.77712  -0.77242  -0.76346
 Alpha  occ. eigenvalues --   -0.76084  -0.74537  -0.74205  -0.73814  -0.73502
 Alpha  occ. eigenvalues --   -0.72863  -0.72179  -0.71907  -0.71354  -0.70573
 Alpha  occ. eigenvalues --   -0.70380  -0.69564  -0.69355  -0.68864  -0.67868
 Alpha  occ. eigenvalues --   -0.67557  -0.66801  -0.66787  -0.66424  -0.65202
 Alpha  occ. eigenvalues --   -0.65185  -0.65054  -0.64564  -0.64396  -0.63927
 Alpha  occ. eigenvalues --   -0.63643  -0.63512  -0.63000  -0.62657  -0.62389
 Alpha  occ. eigenvalues --   -0.62056  -0.61916  -0.61585  -0.61150  -0.60879
 Alpha  occ. eigenvalues --   -0.60195  -0.59975  -0.58946  -0.58363  -0.57679
 Alpha  occ. eigenvalues --   -0.57312  -0.57195  -0.57000  -0.56467  -0.56056
 Alpha  occ. eigenvalues --   -0.55975  -0.55896  -0.55807  -0.55299  -0.54791
 Alpha  occ. eigenvalues --   -0.54714  -0.54499  -0.54116  -0.53690  -0.53412
 Alpha  occ. eigenvalues --   -0.53250  -0.52675  -0.52362  -0.52218  -0.51944
 Alpha  occ. eigenvalues --   -0.51413  -0.51151  -0.50853  -0.50556  -0.50152
 Alpha  occ. eigenvalues --   -0.50034  -0.49810  -0.49568  -0.49179  -0.48904
 Alpha  occ. eigenvalues --   -0.48387  -0.48099  -0.48016  -0.47880  -0.47710
 Alpha  occ. eigenvalues --   -0.47373  -0.47212  -0.47052  -0.46932  -0.46688
 Alpha  occ. eigenvalues --   -0.46482  -0.46400  -0.46141  -0.45695  -0.45458
 Alpha  occ. eigenvalues --   -0.45374  -0.44953  -0.44900  -0.44719  -0.44066
 Alpha  occ. eigenvalues --   -0.43127  -0.43052  -0.42515  -0.42484  -0.42062
 Alpha  occ. eigenvalues --   -0.41888  -0.41225  -0.41187  -0.39531  -0.38942
 Alpha  occ. eigenvalues --   -0.38447  -0.37042  -0.35604  -0.35339  -0.34734
 Alpha  occ. eigenvalues --   -0.33940  -0.32490  -0.32160  -0.31900  -0.27003
 Alpha  occ. eigenvalues --   -0.22270
 Alpha virt. eigenvalues --   -0.08750  -0.02737  -0.00814   0.01097   0.01685
 Alpha virt. eigenvalues --    0.01780   0.02547   0.02724   0.04323   0.04659
 Alpha virt. eigenvalues --    0.06013   0.06514   0.06710   0.07383   0.07932

 Mulliken charges:
               1
     1  Mg   0.427775
     2  C   -0.041926
     3  C   -0.070893
     4  C   -0.098274
     5  C   -0.054147
     6  N   -0.265020
     7  C    0.112268
     8  C    0.004577
     9  C   -0.012323
    10  C    0.159766
    11  C   -0.046789
    12  C   -0.015761
    13  C    0.000834
    14  C    0.471390
    15  O   -0.519443
    16  O   -0.254345
    17  N   -0.355981
    18  C    0.133182
    19  C    0.060942
    20  C   -0.044010
    21  C    0.142234
    22  C   -0.041582
    23  C    0.330676
    24  O   -0.513006
    25  C   -0.032219
    26  N   -0.254654
    27  C    0.169873
    28  C    0.002519
    29  C    0.002375
    30  C    0.082629
    31  C   -0.056792
    32  C   -0.033963
    33  C   -0.055802
    34  N   -0.316296
    35  C    0.082410
    36  C    0.020650
    37  C   -0.070540
    38  C    0.116977
    39  C   -0.048896
    40  C    0.337445
    41  O   -0.512872
    42  C    0.058644
    43  C    0.497107
    44  O   -0.531694
    45  O   -0.286776
    46  C    0.065492
    47  C    0.098873
    48  C   -0.108975
    49  C   -0.001216
    50  C   -0.041444
    51  C   -0.030709
    52  C   -0.026356
    53  C   -0.035670
    54  C   -0.012837
    55  C   -0.064600
    56  C   -0.043967
    57  C   -0.051945
    58  C   -0.033281
    59  C   -0.010473
    60  C   -0.060905
    61  C   -0.036038
    62  C   -0.039130
    63  C   -0.032061
    64  C   -0.011495
    65  C   -0.056918
    66  C   -0.060097
    67  H    0.020916
    68  H    0.017029
    69  H    0.030920
    70  H    0.029060
    71  H    0.031654
    72  H    0.031213
    73  H    0.024837
    74  H    0.024724
    75  H    0.025418
    76  H    0.023227
    77  H    0.028839
    78  H    0.048877
    79  H    0.037885
    80  H    0.019740
    81  H    0.044504
    82  H    0.036162
    83  H    0.033744
    84  H    0.028629
    85  H    0.019490
    86  H    0.032620
    87  H    0.032282
    88  H    0.021680
    89  H    0.024454
    90  H    0.017338
    91  H    0.027552
    92  H    0.012860
    93  H    0.020122
    94  H    0.019150
    95  H    0.027773
    96  H    0.040735
    97  H    0.032545
    98  H    0.050001
    99  H    0.050410
   100  H    0.025687
   101  H    0.060154
   102  H    0.038547
   103  H    0.066729
   104  H    0.029867
   105  H    0.023433
   106  H    0.027527
   107  H    0.042565
   108  H    0.012727
   109  H    0.014140
   110  H    0.029834
   111  H    0.032298
   112  H    0.023064
   113  H    0.012995
   114  H    0.030161
   115  H    0.010604
   116  H    0.018295
   117  H    0.022596
   118  H    0.022817
   119  H    0.026189
   120  H    0.033205
   121  H    0.002277
   122  H    0.009665
   123  H    0.030043
   124  H    0.023127
   125  H    0.015289
   126  H    0.012503
   127  H    0.016414
   128  H    0.024916
   129  H    0.017526
   130  H    0.030396
   131  H    0.020873
   132  H    0.020883
   133  H    0.017372
   134  H    0.012874
   135  H    0.031167
   136  H    0.002295
   137  H    0.014665
   138  H    0.015847
   139  H    0.012001
   140  H    0.013526
 Sum of Mulliken charges =  -0.00000

 Dipole moment (field-independent basis, Debye):
    X=             -3.0694    Y=              4.6463    Z=              3.4321  Tot=              6.5414
 N-N= 4.466816311451D+03 E-N= 0.000000000000D+00  KE=-9.607299937248D+03
 Leave Link  601 at Wed May  4 09:26:32 2022, MaxMem=  6710886400 cpu:               1.1 elap:               0.1
 (Enter /sw/apps/gaussian-16.0/g16/l9999.exe)
 1\1\GINC-BP1-COMPUTE036\SP\RZINDO CIS\STO-3G\C55H74Mg1N4O6\OF15641\04-
 May-2022\0\\#p ZINDO=(nstates=5)\\step_151_chromophore_17 ZINDO\\0,1\M
 g,0,29.866,58.715,41.517\C,0,27.061,56.995,40.511\C,0,31.863,56.382,40
 .036\C,0,32.637,60.621,42.05\C,0,27.774,61.408,42.312\N,0,29.466,56.93
 6,40.336\C,0,28.268,56.395,40.074\C,0,28.455,55.165,39.243\C,0,30.021,
 54.785,39.488\C,0,30.488,56.144,39.981\C,0,30.364,53.6,40.509\C,0,28.0
 88,55.482,37.763\C,0,26.719,55.067,37.158\C,0,26.685,54.411,35.747\O,0

 Normal termination of Gaussian 16 at Wed May  4 09:26:32 2022.
