 Gaussian 16, Revision A.03,
 Gaussian 16:  ES64L-G16RevA.03 25-Dec-2016

 ------------------------------
 #p blyp/Def2SVP td=(nstates=5)
 ------------------------------

 --------------------------------------------------
 step_251_chromophore_13 TDDFT with blyp functional
 --------------------------------------------------
 Symbolic Z-matrix:
 Charge =  0 Multiplicity = 1

                         Standard orientation:
 ---------------------------------------------------------------------
 Center     Atomic      Atomic             Coordinates (Angstroms)
 Number     Number       Type             X           Y           Z
 ---------------------------------------------------------------------
      1         12           0       -5.971164    0.419018   -0.212755
      2          6           0       -3.660534   -2.172417    0.021041
      3          6           0       -3.625060    2.623075    0.781909
      4          6           0       -8.391315    2.772135   -0.036152
      5          6           0       -8.414498   -1.955130   -0.745041
      6          7           0       -3.841925    0.199139    0.361137
      7          6           0       -3.069349   -0.918962    0.175309
      8          6           0       -1.647588   -0.617330    0.462229
      9          6           0       -1.573917    0.883346    0.767041
     10          6           0       -3.092530    1.329907    0.624416
     11          6           0       -0.908651    1.341528    2.055606
     12          6           0       -0.677173   -1.097324   -0.760063
     13          6           0        0.387754   -2.175647   -0.451176
     14          6           0        1.771330   -2.090080   -1.047244
     15          8           0        2.021519   -1.437471   -2.112814
     16          8           0        2.731932   -2.673057   -0.261944
     17          7           0       -5.987859    2.436643    0.181132
     18          6           0       -4.901636    3.190300    0.599894
     19          6           0       -5.314290    4.524685    0.842738
     20          6           0       -6.715117    4.600921    0.614983
     21          6           0       -7.085700    3.239510    0.215160
     22          6           0       -4.207868    5.603554    1.165712
     23          6           0       -7.579610    5.839682    0.843006
     24          8           0       -8.812901    5.887167    0.719919
     25          6           0       -6.940895    7.120398    1.158184
     26          7           0       -8.150812    0.432148   -0.119385
     27          6           0       -8.908706    1.508361   -0.161889
     28          6           0      -10.407278    1.131335   -0.145764
     29          6           0      -10.275610   -0.272813   -0.857003
     30          6           0       -8.820402   -0.639178   -0.583140
     31          6           0      -11.186619    0.991861    1.214178
     32          6           0      -10.618206   -0.330758   -2.422473
     33          6           0       -9.830899    0.513510   -3.338677
     34          7           0       -6.127317   -1.721368   -0.312136
     35          6           0       -7.223848   -2.570885   -0.557770
     36          6           0       -6.780448   -3.928513   -0.553746
     37          6           0       -5.431153   -3.850472   -0.271714
     38          6           0       -5.060449   -2.466234   -0.238979
     39          6           0       -7.621610   -5.109606   -0.541271
     40          6           0       -4.260976   -4.594228   -0.241218
     41          8           0       -4.056072   -5.808758   -0.335929
     42          6           0       -3.052621   -3.591204    0.046511
     43          6           0       -2.600978   -3.903241    1.434931
     44          8           0       -3.182483   -3.877580    2.499324
     45          8           0       -1.329398   -4.285800    1.305319
     46          6           0       -0.614287   -4.632960    2.576928
     47          6           0        4.097619   -2.523621   -0.745499
     48          6           0        4.715973   -1.336467   -0.082417
     49          6           0        5.986900   -0.833096   -0.241147
     50          6           0        6.930096   -1.423232   -1.257447
     51          6           0        6.533300    0.267163    0.638621
     52          6           0        7.343193    1.286668   -0.118515
     53          6           0        8.851473    1.248711    0.165833
     54          6           0        9.750533    2.002833   -0.863820
     55          6           0        9.360570    3.483359   -0.968690
     56          6           0        9.848780    1.314232   -2.276144
     57          6           0       11.215346    1.423914   -2.967370
     58          6           0       12.299303    0.509931   -2.414666
     59          6           0       13.353845    1.340043   -1.699496
     60          6           0       14.082710    2.118099   -2.914901
     61          6           0       14.421926    0.491583   -0.938926
     62          6           0       14.483100    0.746301    0.589901
     63          6           0       14.358666   -0.472537    1.579928
     64          6           0       13.583404   -0.121952    2.881770
     65          6           0       14.216030   -0.609306    4.239123
     66          6           0       12.127958   -0.691142    2.690678
     67          1           0       -2.743925    3.259681    0.885522
     68          1           0       -9.108375    3.590614   -0.119618
     69          1           0       -9.188001   -2.688955   -0.980049
     70          1           0       -1.415004   -1.201862    1.351492
     71          1           0       -1.050326    1.382880   -0.047779
     72          1           0       -1.823439    1.404113    2.643789
     73          1           0       -0.315429    2.253355    1.984356
     74          1           0       -0.231758    0.670092    2.583196
     75          1           0       -0.190726   -0.219131   -1.183587
     76          1           0       -1.208300   -1.600981   -1.568128
     77          1           0        0.002620   -3.104370   -0.873177
     78          1           0        0.464810   -2.380968    0.615707
     79          1           0       -4.492602    6.124721    2.079525
     80          1           0       -4.406302    6.249421    0.310300
     81          1           0       -3.194292    5.260889    1.374143
     82          1           0       -6.329692    7.042603    2.056270
     83          1           0       -7.740284    7.758782    1.533662
     84          1           0       -6.437149    7.607914    0.323122
     85          1           0      -10.916693    1.733594   -0.898146
     86          1           0      -11.009661   -0.889018   -0.338359
     87          1           0      -10.637449    0.520462    2.028336
     88          1           0      -12.065050    0.417385    0.917983
     89          1           0      -11.495287    1.970119    1.583687
     90          1           0      -11.646508   -0.048328   -2.649474
     91          1           0      -10.328743   -1.289149   -2.853419
     92          1           0       -8.922289   -0.068104   -3.487983
     93          1           0       -9.515126    1.504921   -3.012458
     94          1           0      -10.220589    0.698519   -4.339144
     95          1           0       -7.900866   -5.211862    0.508054
     96          1           0       -7.142549   -6.030514   -0.872479
     97          1           0       -8.467691   -5.046938   -1.226487
     98          1           0       -2.266448   -3.632855   -0.707421
     99          1           0        0.053102   -3.788071    2.748265
    100          1           0       -0.092954   -5.582438    2.457377
    101          1           0       -1.213887   -4.712145    3.484178
    102          1           0        4.257703   -2.379591   -1.813746
    103          1           0        4.774105   -3.308803   -0.407762
    104          1           0        4.077523   -0.911095    0.692518
    105          1           0        7.929939   -1.548715   -0.841301
    106          1           0        7.047430   -0.785335   -2.134237
    107          1           0        6.569355   -2.398000   -1.585029
    108          1           0        7.069662   -0.297718    1.400787
    109          1           0        5.754947    0.781000    1.204159
    110          1           0        6.937616    2.216411    0.281338
    111          1           0        7.150113    1.443442   -1.179967
    112          1           0        9.176934    0.217907    0.304773
    113          1           0        9.089761    1.722029    1.118746
    114          1           0       10.707289    1.886147   -0.354534
    115          1           0       10.240721    4.019242   -0.614317
    116          1           0        8.527590    3.673908   -0.291746
    117          1           0        9.153383    3.701396   -2.016224
    118          1           0        9.083707    1.795502   -2.885680
    119          1           0        9.462869    0.295188   -2.267126
    120          1           0       11.269261    2.438997   -2.574253
    121          1           0       11.027339    1.500084   -4.038112
    122          1           0       12.672322    0.036331   -3.322138
    123          1           0       11.830833   -0.251437   -1.790209
    124          1           0       12.925523    2.069663   -1.012113
    125          1           0       13.722801    3.127745   -2.716533
    126          1           0       13.890320    1.853755   -3.954273
    127          1           0       15.170327    2.115677   -2.837489
    128          1           0       15.384393    0.509754   -1.450075
    129          1           0       13.982816   -0.495329   -1.083170
    130          1           0       13.782383    1.518672    0.908849
    131          1           0       15.470383    1.175102    0.759649
    132          1           0       15.375921   -0.742412    1.862475
    133          1           0       13.930705   -1.358067    1.110051
    134          1           0       13.466501    0.943652    3.081472
    135          1           0       13.574123   -0.109155    4.963470
    136          1           0       15.210612   -0.164273    4.270947
    137          1           0       14.263270   -1.671993    4.476695
    138          1           0       11.875886   -0.821126    1.638845
    139          1           0       11.341570   -0.109940    3.171537
    140          1           0       12.127589   -1.644811    3.219655
 ---------------------------------------------------------------------

 SCF Done:  E(RB-LYP) =  -3007.32787477     A.U. after   22 cycles

 Excitation energies and oscillator strengths:

 Excited State   1:      Singlet-A      1.7625 eV  703.45 nm  f=0.1080  <S**2>=0.000
     243 -> 247        0.18223
     244 -> 247       -0.36782
     245 -> 247        0.26998
     245 -> 248        0.11037
     246 -> 247        0.49856
     246 <- 247       -0.10141
 This state for optimization and/or second-order correction.
 Total Energy, E(TD-HF/TD-DFT) =  -3007.26310348
 Copying the excited state density for this state as the 1-particle RhoCI density.

 Excited State   2:      Singlet-A      1.8378 eV  674.64 nm  f=0.1003  <S**2>=0.000
     243 -> 247        0.21938
     244 -> 247        0.53908
     245 -> 247       -0.12257
     246 -> 247        0.37154

 Excited State   3:      Singlet-A      1.8716 eV  662.47 nm  f=0.0945  <S**2>=0.000
     243 -> 247        0.60011
     245 -> 247        0.19889
     246 -> 247       -0.30171

 Excited State   4:      Singlet-A      1.9504 eV  635.68 nm  f=0.0003  <S**2>=0.000
     242 -> 247        0.70640

 Excited State   5:      Singlet-A      2.0038 eV  618.75 nm  f=0.1025  <S**2>=0.000
     243 -> 247       -0.23721
     244 -> 247        0.26369
     245 -> 247        0.55868
     246 -> 248       -0.20743

 The electronic state is 1-A.
 Alpha  occ. eigenvalues --  -46.27788 -18.83388 -18.82228 -18.76502 -18.76157
 Alpha  occ. eigenvalues --  -18.75452 -18.75130 -14.03307 -14.02903 -14.01265
 Alpha  occ. eigenvalues --  -14.00587 -10.04654 -10.03401  -9.99876  -9.98873
 Alpha  occ. eigenvalues --   -9.97926  -9.97693  -9.96968  -9.96769  -9.96287
 Alpha  occ. eigenvalues --   -9.95986  -9.95829  -9.95584  -9.94924  -9.94710
 Alpha  occ. eigenvalues --   -9.94631  -9.94604  -9.94174  -9.93871  -9.93781
 Alpha  occ. eigenvalues --   -9.93762  -9.93626  -9.93614  -9.93598  -9.93581
 Alpha  occ. eigenvalues --   -9.93528  -9.93193  -9.93169  -9.92856  -9.92689
 Alpha  occ. eigenvalues --   -9.92659  -9.92499  -9.92420  -9.92348  -9.92309
 Alpha  occ. eigenvalues --   -9.92298  -9.92044  -9.91907  -9.91836  -9.91711
 Alpha  occ. eigenvalues --   -9.91570  -9.91456  -9.91344  -9.91301  -9.91282
 Alpha  occ. eigenvalues --   -9.91242  -9.91241  -9.91191  -9.91170  -9.91124
 Alpha  occ. eigenvalues --   -9.90907  -9.90877  -9.90875  -9.90866  -9.90676
 Alpha  occ. eigenvalues --   -9.90640  -2.92299  -1.72723  -1.72167  -1.72027
 Alpha  occ. eigenvalues --   -0.98560  -0.97855  -0.90746  -0.90279  -0.89543
 Alpha  occ. eigenvalues --   -0.88054  -0.87656  -0.86600  -0.85822  -0.85157
 Alpha  occ. eigenvalues --   -0.75159  -0.73930  -0.73142  -0.72617  -0.72487
 Alpha  occ. eigenvalues --   -0.71771  -0.71704  -0.71347  -0.71106  -0.70836
 Alpha  occ. eigenvalues --   -0.70247  -0.69789  -0.68503  -0.68142  -0.67703
 Alpha  occ. eigenvalues --   -0.66915  -0.66358  -0.65654  -0.65174  -0.64859
 Alpha  occ. eigenvalues --   -0.63986  -0.63219  -0.62685  -0.61955  -0.60861
 Alpha  occ. eigenvalues --   -0.60731  -0.60120  -0.60101  -0.59258  -0.59109
 Alpha  occ. eigenvalues --   -0.58655  -0.58348  -0.56856  -0.56220  -0.54737
 Alpha  occ. eigenvalues --   -0.54445  -0.53921  -0.53141  -0.52920  -0.51672
 Alpha  occ. eigenvalues --   -0.51406  -0.50959  -0.50897  -0.50107  -0.49946
 Alpha  occ. eigenvalues --   -0.49734  -0.48956  -0.48375  -0.47721  -0.46869
 Alpha  occ. eigenvalues --   -0.46464  -0.46370  -0.45850  -0.45449  -0.44816
 Alpha  occ. eigenvalues --   -0.44444  -0.44231  -0.43405  -0.42671  -0.42506
 Alpha  occ. eigenvalues --   -0.42411  -0.42209  -0.42042  -0.41605  -0.41528
 Alpha  occ. eigenvalues --   -0.41379  -0.40984  -0.40821  -0.40482  -0.40430
 Alpha  occ. eigenvalues --   -0.40230  -0.40102  -0.39626  -0.39474  -0.39326
 Alpha  occ. eigenvalues --   -0.39261  -0.38931  -0.38706  -0.38605  -0.38334
 Alpha  occ. eigenvalues --   -0.38002  -0.37808  -0.37676  -0.37344  -0.37303
 Alpha  occ. eigenvalues --   -0.37197  -0.37144  -0.36751  -0.36507  -0.36408
 Alpha  occ. eigenvalues --   -0.36300  -0.36263  -0.36065  -0.35749  -0.35540
 Alpha  occ. eigenvalues --   -0.35283  -0.35231  -0.35064  -0.34833  -0.34750
 Alpha  occ. eigenvalues --   -0.34532  -0.34427  -0.34326  -0.33992  -0.33929
 Alpha  occ. eigenvalues --   -0.33465  -0.33419  -0.33352  -0.33140  -0.32854
 Alpha  occ. eigenvalues --   -0.32667  -0.32643  -0.32452  -0.32384  -0.32109
 Alpha  occ. eigenvalues --   -0.31976  -0.31759  -0.31619  -0.31483  -0.31297
 Alpha  occ. eigenvalues --   -0.31123  -0.30933  -0.30859  -0.30784  -0.30676
 Alpha  occ. eigenvalues --   -0.30579  -0.30544  -0.30352  -0.30142  -0.29856
 Alpha  occ. eigenvalues --   -0.29802  -0.29732  -0.29557  -0.29510  -0.28824
 Alpha  occ. eigenvalues --   -0.28800  -0.28417  -0.28045  -0.28039  -0.27658
 Alpha  occ. eigenvalues --   -0.27320  -0.27216  -0.27196  -0.26637  -0.26422
 Alpha  occ. eigenvalues --   -0.26316  -0.25977  -0.25598  -0.25366  -0.25147
 Alpha  occ. eigenvalues --   -0.25134  -0.24803  -0.24181  -0.24117  -0.23799
 Alpha  occ. eigenvalues --   -0.23600  -0.22527  -0.21819  -0.21346  -0.21178
 Alpha  occ. eigenvalues --   -0.20797  -0.19007  -0.18637  -0.18430  -0.17308
 Alpha  occ. eigenvalues --   -0.16126
 Alpha virt. eigenvalues --   -0.11839  -0.06897  -0.06177  -0.04699  -0.03514
 Alpha virt. eigenvalues --   -0.02764  -0.01676  -0.01256  -0.01223   0.00270
 Alpha virt. eigenvalues --    0.01311   0.01423   0.01873   0.02468   0.02501

 Mulliken charges:
               1
     1  Mg   0.674541
     2  C    0.027022
     3  C   -0.036305
     4  C   -0.042991
     5  C   -0.103685
     6  N   -0.237961
     7  C   -0.075679
     8  C    0.040038
     9  C    0.050120
    10  C   -0.073929
    11  C    0.114129
    12  C    0.116420
    13  C    0.107441
    14  C    0.081700
    15  O   -0.238532
    16  O   -0.249358
    17  N   -0.289944
    18  C    0.175884
    19  C   -0.158863
    20  C    0.048133
    21  C    0.078647
    22  C    0.181848
    23  C   -0.081606
    24  O   -0.175947
    25  C    0.143593
    26  N   -0.161323
    27  C   -0.005651
    28  C    0.059567
    29  C   -0.010028
    30  C    0.071527
    31  C    0.147319
    32  C    0.115855
    33  C    0.020189
    34  N   -0.234946
    35  C    0.102834
    36  C   -0.123276
    37  C    0.127536
    38  C    0.024984
    39  C    0.160448
    40  C   -0.071378
    41  O   -0.151629
    42  C    0.047329
    43  C    0.108501
    44  O   -0.172411
    45  O   -0.256615
    46  C    0.194796
    47  C    0.336140
    48  C   -0.161691
    49  C   -0.159137
    50  C    0.145289
    51  C    0.173120
    52  C    0.080482
    53  C    0.052277
    54  C   -0.118968
    55  C    0.145959
    56  C    0.075456
    57  C    0.064243
    58  C    0.168834
    59  C   -0.133420
    60  C    0.080138
    61  C    0.149199
    62  C    0.054288
    63  C    0.127203
    64  C   -0.102488
    65  C    0.079346
    66  C    0.072531
    67  H   -0.061245
    68  H   -0.054753
    69  H   -0.063665
    70  H   -0.009292
    71  H   -0.023731
    72  H    0.001835
    73  H   -0.003056
    74  H   -0.008778
    75  H   -0.005891
    76  H   -0.009704
    77  H    0.018919
    78  H   -0.010055
    79  H   -0.008826
    80  H    0.015994
    81  H    0.002054
    82  H   -0.010940
    83  H   -0.017694
    84  H    0.025061
    85  H   -0.045152
    86  H   -0.040728
    87  H    0.002985
    88  H   -0.001015
    89  H    0.004078
    90  H   -0.016424
    91  H   -0.024299
    92  H   -0.018926
    93  H   -0.004846
    94  H   -0.010923
    95  H    0.023606
    96  H    0.001700
    97  H   -0.010214
    98  H   -0.014332
    99  H    0.012623
   100  H    0.028960
   101  H    0.029162
   102  H    0.017521
   103  H    0.009591
   104  H   -0.043340
   105  H   -0.009699
   106  H    0.012968
   107  H   -0.024714
   108  H   -0.017584
   109  H   -0.043971
   110  H   -0.038622
   111  H   -0.021200
   112  H   -0.028986
   113  H   -0.039832
   114  H   -0.030659
   115  H   -0.015159
   116  H   -0.011229
   117  H   -0.010036
   118  H   -0.046426
   119  H   -0.052244
   120  H   -0.039072
   121  H   -0.031137
   122  H   -0.028139
   123  H   -0.033665
   124  H   -0.017110
   125  H   -0.017083
   126  H   -0.003957
   127  H   -0.021832
   128  H   -0.027040
   129  H   -0.044854
   130  H   -0.026693
   131  H   -0.029877
   132  H   -0.046036
   133  H   -0.028307
   134  H   -0.029090
   135  H   -0.016545
   136  H   -0.011052
   137  H   -0.004216
   138  H   -0.001320
   139  H   -0.020570
   140  H   -0.018414
 Sum of Mulliken charges =  -0.00000

 Dipole moment (field-independent basis, Debye):
    X=              3.0695    Y=              2.5420    Z=              0.4673  Tot=              4.0127
 Quadrupole moment (field-independent basis, Debye-Ang):
   XX=           -382.2538   YY=           -427.6045   ZZ=           -405.9388
   XY=              8.5584   XZ=             19.8124   YZ=              2.6070

 Normal termination of Gaussian 16 at Fri Apr 29 10:20:10 2022.
