 Gaussian 16, Revision A.03,
 Gaussian 16:  ES64L-G16RevA.03 25-Dec-2016

 -----------------------------------
 #p cam-b3lyp/Def2SVP td=(nstates=5)
 -----------------------------------

 -------------------------------------------------------
 step_251_chromophore_13 TDDFT with cam-b3lyp functional
 -------------------------------------------------------
 Symbolic Z-matrix:
 Charge =  0 Multiplicity = 1

                         Standard orientation:
 ---------------------------------------------------------------------
 Center     Atomic      Atomic             Coordinates (Angstroms)
 Number     Number       Type             X           Y           Z
 ---------------------------------------------------------------------
      1         12           0       -5.971164    0.419018   -0.212755
      2          6           0       -3.660534   -2.172417    0.021041
      3          6           0       -3.625060    2.623075    0.781909
      4          6           0       -8.391315    2.772135   -0.036152
      5          6           0       -8.414498   -1.955130   -0.745041
      6          7           0       -3.841925    0.199139    0.361137
      7          6           0       -3.069349   -0.918962    0.175309
      8          6           0       -1.647588   -0.617330    0.462229
      9          6           0       -1.573917    0.883346    0.767041
     10          6           0       -3.092530    1.329907    0.624416
     11          6           0       -0.908651    1.341528    2.055606
     12          6           0       -0.677173   -1.097324   -0.760063
     13          6           0        0.387754   -2.175647   -0.451176
     14          6           0        1.771330   -2.090080   -1.047244
     15          8           0        2.021519   -1.437471   -2.112814
     16          8           0        2.731932   -2.673057   -0.261944
     17          7           0       -5.987859    2.436643    0.181132
     18          6           0       -4.901636    3.190300    0.599894
     19          6           0       -5.314290    4.524685    0.842738
     20          6           0       -6.715117    4.600921    0.614983
     21          6           0       -7.085700    3.239510    0.215160
     22          6           0       -4.207868    5.603554    1.165712
     23          6           0       -7.579610    5.839682    0.843006
     24          8           0       -8.812901    5.887167    0.719919
     25          6           0       -6.940895    7.120398    1.158184
     26          7           0       -8.150812    0.432148   -0.119385
     27          6           0       -8.908706    1.508361   -0.161889
     28          6           0      -10.407278    1.131335   -0.145764
     29          6           0      -10.275610   -0.272813   -0.857003
     30          6           0       -8.820402   -0.639178   -0.583140
     31          6           0      -11.186619    0.991861    1.214178
     32          6           0      -10.618206   -0.330758   -2.422473
     33          6           0       -9.830899    0.513510   -3.338677
     34          7           0       -6.127317   -1.721368   -0.312136
     35          6           0       -7.223848   -2.570885   -0.557770
     36          6           0       -6.780448   -3.928513   -0.553746
     37          6           0       -5.431153   -3.850472   -0.271714
     38          6           0       -5.060449   -2.466234   -0.238979
     39          6           0       -7.621610   -5.109606   -0.541271
     40          6           0       -4.260976   -4.594228   -0.241218
     41          8           0       -4.056072   -5.808758   -0.335929
     42          6           0       -3.052621   -3.591204    0.046511
     43          6           0       -2.600978   -3.903241    1.434931
     44          8           0       -3.182483   -3.877580    2.499324
     45          8           0       -1.329398   -4.285800    1.305319
     46          6           0       -0.614287   -4.632960    2.576928
     47          6           0        4.097619   -2.523621   -0.745499
     48          6           0        4.715973   -1.336467   -0.082417
     49          6           0        5.986900   -0.833096   -0.241147
     50          6           0        6.930096   -1.423232   -1.257447
     51          6           0        6.533300    0.267163    0.638621
     52          6           0        7.343193    1.286668   -0.118515
     53          6           0        8.851473    1.248711    0.165833
     54          6           0        9.750533    2.002833   -0.863820
     55          6           0        9.360570    3.483359   -0.968690
     56          6           0        9.848780    1.314232   -2.276144
     57          6           0       11.215346    1.423914   -2.967370
     58          6           0       12.299303    0.509931   -2.414666
     59          6           0       13.353845    1.340043   -1.699496
     60          6           0       14.082710    2.118099   -2.914901
     61          6           0       14.421926    0.491583   -0.938926
     62          6           0       14.483100    0.746301    0.589901
     63          6           0       14.358666   -0.472537    1.579928
     64          6           0       13.583404   -0.121952    2.881770
     65          6           0       14.216030   -0.609306    4.239123
     66          6           0       12.127958   -0.691142    2.690678
     67          1           0       -2.743925    3.259681    0.885522
     68          1           0       -9.108375    3.590614   -0.119618
     69          1           0       -9.188001   -2.688955   -0.980049
     70          1           0       -1.415004   -1.201862    1.351492
     71          1           0       -1.050326    1.382880   -0.047779
     72          1           0       -1.823439    1.404113    2.643789
     73          1           0       -0.315429    2.253355    1.984356
     74          1           0       -0.231758    0.670092    2.583196
     75          1           0       -0.190726   -0.219131   -1.183587
     76          1           0       -1.208300   -1.600981   -1.568128
     77          1           0        0.002620   -3.104370   -0.873177
     78          1           0        0.464810   -2.380968    0.615707
     79          1           0       -4.492602    6.124721    2.079525
     80          1           0       -4.406302    6.249421    0.310300
     81          1           0       -3.194292    5.260889    1.374143
     82          1           0       -6.329692    7.042603    2.056270
     83          1           0       -7.740284    7.758782    1.533662
     84          1           0       -6.437149    7.607914    0.323122
     85          1           0      -10.916693    1.733594   -0.898146
     86          1           0      -11.009661   -0.889018   -0.338359
     87          1           0      -10.637449    0.520462    2.028336
     88          1           0      -12.065050    0.417385    0.917983
     89          1           0      -11.495287    1.970119    1.583687
     90          1           0      -11.646508   -0.048328   -2.649474
     91          1           0      -10.328743   -1.289149   -2.853419
     92          1           0       -8.922289   -0.068104   -3.487983
     93          1           0       -9.515126    1.504921   -3.012458
     94          1           0      -10.220589    0.698519   -4.339144
     95          1           0       -7.900866   -5.211862    0.508054
     96          1           0       -7.142549   -6.030514   -0.872479
     97          1           0       -8.467691   -5.046938   -1.226487
     98          1           0       -2.266448   -3.632855   -0.707421
     99          1           0        0.053102   -3.788071    2.748265
    100          1           0       -0.092954   -5.582438    2.457377
    101          1           0       -1.213887   -4.712145    3.484178
    102          1           0        4.257703   -2.379591   -1.813746
    103          1           0        4.774105   -3.308803   -0.407762
    104          1           0        4.077523   -0.911095    0.692518
    105          1           0        7.929939   -1.548715   -0.841301
    106          1           0        7.047430   -0.785335   -2.134237
    107          1           0        6.569355   -2.398000   -1.585029
    108          1           0        7.069662   -0.297718    1.400787
    109          1           0        5.754947    0.781000    1.204159
    110          1           0        6.937616    2.216411    0.281338
    111          1           0        7.150113    1.443442   -1.179967
    112          1           0        9.176934    0.217907    0.304773
    113          1           0        9.089761    1.722029    1.118746
    114          1           0       10.707289    1.886147   -0.354534
    115          1           0       10.240721    4.019242   -0.614317
    116          1           0        8.527590    3.673908   -0.291746
    117          1           0        9.153383    3.701396   -2.016224
    118          1           0        9.083707    1.795502   -2.885680
    119          1           0        9.462869    0.295188   -2.267126
    120          1           0       11.269261    2.438997   -2.574253
    121          1           0       11.027339    1.500084   -4.038112
    122          1           0       12.672322    0.036331   -3.322138
    123          1           0       11.830833   -0.251437   -1.790209
    124          1           0       12.925523    2.069663   -1.012113
    125          1           0       13.722801    3.127745   -2.716533
    126          1           0       13.890320    1.853755   -3.954273
    127          1           0       15.170327    2.115677   -2.837489
    128          1           0       15.384393    0.509754   -1.450075
    129          1           0       13.982816   -0.495329   -1.083170
    130          1           0       13.782383    1.518672    0.908849
    131          1           0       15.470383    1.175102    0.759649
    132          1           0       15.375921   -0.742412    1.862475
    133          1           0       13.930705   -1.358067    1.110051
    134          1           0       13.466501    0.943652    3.081472
    135          1           0       13.574123   -0.109155    4.963470
    136          1           0       15.210612   -0.164273    4.270947
    137          1           0       14.263270   -1.671993    4.476695
    138          1           0       11.875886   -0.821126    1.638845
    139          1           0       11.341570   -0.109940    3.171537
    140          1           0       12.127589   -1.644811    3.219655
 ---------------------------------------------------------------------

 SCF Done:  E(RCAM-B3LYP) =  -3007.12464124     A.U. after   19 cycles

 Excitation energies and oscillator strengths:

 Excited State   1:      Singlet-A      1.7042 eV  727.51 nm  f=0.3673  <S**2>=0.000
     245 -> 248        0.17543
     246 -> 247        0.68605
     245 <- 248        0.10626
 This state for optimization and/or second-order correction.
 Total Energy, E(TD-HF/TD-DFT) =  -3007.06201164
 Copying the excited state density for this state as the 1-particle RhoCI density.

 Excited State   2:      Singlet-A      2.1781 eV  569.22 nm  f=0.1453  <S**2>=0.000
     245 -> 247        0.65130
     246 -> 248       -0.26360

 Excited State   3:      Singlet-A      3.3024 eV  375.44 nm  f=0.0021  <S**2>=0.000
     241 -> 247       -0.19395
     241 -> 249        0.12301
     242 -> 247        0.42474
     242 -> 249       -0.21363
     242 -> 250       -0.11556
     242 -> 251        0.10074
     243 -> 247       -0.37349

 Excited State   4:      Singlet-A      3.4532 eV  359.04 nm  f=0.0038  <S**2>=0.000
     241 -> 247       -0.20535
     242 -> 247        0.32057
     242 -> 249       -0.10896
     243 -> 247        0.56435

 Excited State   5:      Singlet-A      3.5587 eV  348.39 nm  f=0.2778  <S**2>=0.000
     241 -> 247        0.37255
     242 -> 247        0.21144
     245 -> 247        0.16699
     246 -> 248        0.50826

 The electronic state is 1-A.
 Alpha  occ. eigenvalues --  -46.89372 -19.26358 -19.25230 -19.19479 -19.19212
 Alpha  occ. eigenvalues --  -19.18689 -19.18273 -14.42045 -14.41859 -14.39729
 Alpha  occ. eigenvalues --  -14.39024 -10.40102 -10.38758 -10.35094 -10.34230
 Alpha  occ. eigenvalues --  -10.31939 -10.31815 -10.31476 -10.31269 -10.30649
 Alpha  occ. eigenvalues --  -10.30317 -10.30138 -10.29827 -10.29133 -10.29032
 Alpha  occ. eigenvalues --  -10.28749 -10.28701 -10.28602 -10.28189 -10.28026
 Alpha  occ. eigenvalues --  -10.27930 -10.27818 -10.27752 -10.27610 -10.27536
 Alpha  occ. eigenvalues --  -10.27530 -10.27489 -10.27187 -10.26598 -10.26529
 Alpha  occ. eigenvalues --  -10.26485 -10.26381 -10.26339 -10.26270 -10.26122
 Alpha  occ. eigenvalues --  -10.26062 -10.25838 -10.25748 -10.25629 -10.25606
 Alpha  occ. eigenvalues --  -10.25594 -10.25200 -10.25128 -10.25038 -10.25028
 Alpha  occ. eigenvalues --  -10.24975 -10.24876 -10.24864 -10.24744 -10.24722
 Alpha  occ. eigenvalues --  -10.24698 -10.24617 -10.24544 -10.24531 -10.24517
 Alpha  occ. eigenvalues --  -10.24293  -3.17780  -1.92682  -1.92214  -1.92097
 Alpha  occ. eigenvalues --   -1.17171  -1.16277  -1.09145  -1.08631  -1.07507
 Alpha  occ. eigenvalues --   -1.05917  -1.05452  -1.04298  -1.03427  -1.02675
 Alpha  occ. eigenvalues --   -0.92292  -0.90860  -0.89973  -0.89348  -0.89211
 Alpha  occ. eigenvalues --   -0.88458  -0.88395  -0.87996  -0.87657  -0.87419
 Alpha  occ. eigenvalues --   -0.86895  -0.86206  -0.84794  -0.84316  -0.83893
 Alpha  occ. eigenvalues --   -0.82995  -0.82475  -0.81695  -0.81070  -0.80719
 Alpha  occ. eigenvalues --   -0.79759  -0.78942  -0.78322  -0.77472  -0.76283
 Alpha  occ. eigenvalues --   -0.76148  -0.75448  -0.75416  -0.74523  -0.74365
 Alpha  occ. eigenvalues --   -0.73744  -0.73429  -0.71740  -0.71094  -0.69387
 Alpha  occ. eigenvalues --   -0.69099  -0.68517  -0.67601  -0.67398  -0.65831
 Alpha  occ. eigenvalues --   -0.65501  -0.65176  -0.64861  -0.64067  -0.63964
 Alpha  occ. eigenvalues --   -0.63499  -0.62879  -0.62159  -0.61493  -0.60466
 Alpha  occ. eigenvalues --   -0.60054  -0.60022  -0.59411  -0.58747  -0.58353
 Alpha  occ. eigenvalues --   -0.58014  -0.57729  -0.56522  -0.55921  -0.55732
 Alpha  occ. eigenvalues --   -0.55621  -0.55108  -0.54936  -0.54787  -0.54648
 Alpha  occ. eigenvalues --   -0.54190  -0.53737  -0.53406  -0.53261  -0.53086
 Alpha  occ. eigenvalues --   -0.53039  -0.52857  -0.52747  -0.52181  -0.51815
 Alpha  occ. eigenvalues --   -0.51771  -0.51532  -0.51236  -0.51200  -0.50621
 Alpha  occ. eigenvalues --   -0.50387  -0.50140  -0.49914  -0.49829  -0.49707
 Alpha  occ. eigenvalues --   -0.49460  -0.49295  -0.49194  -0.49118  -0.48679
 Alpha  occ. eigenvalues --   -0.48455  -0.48377  -0.48267  -0.48170  -0.47945
 Alpha  occ. eigenvalues --   -0.47406  -0.47168  -0.47132  -0.46876  -0.46705
 Alpha  occ. eigenvalues --   -0.46501  -0.46269  -0.46219  -0.45991  -0.45670
 Alpha  occ. eigenvalues --   -0.45281  -0.45146  -0.44967  -0.44841  -0.44556
 Alpha  occ. eigenvalues --   -0.44505  -0.44196  -0.44100  -0.43873  -0.43722
 Alpha  occ. eigenvalues --   -0.43659  -0.43449  -0.43355  -0.43267  -0.42911
 Alpha  occ. eigenvalues --   -0.42650  -0.42495  -0.42358  -0.42171  -0.42134
 Alpha  occ. eigenvalues --   -0.41893  -0.41819  -0.41798  -0.41729  -0.41246
 Alpha  occ. eigenvalues --   -0.41133  -0.40978  -0.40856  -0.40667  -0.40203
 Alpha  occ. eigenvalues --   -0.39892  -0.39500  -0.39067  -0.38926  -0.38478
 Alpha  occ. eigenvalues --   -0.38227  -0.38080  -0.38079  -0.37773  -0.37267
 Alpha  occ. eigenvalues --   -0.37122  -0.36719  -0.36683  -0.36367  -0.36232
 Alpha  occ. eigenvalues --   -0.35829  -0.35698  -0.34678  -0.34575  -0.34466
 Alpha  occ. eigenvalues --   -0.34237  -0.33705  -0.33516  -0.31533  -0.31061
 Alpha  occ. eigenvalues --   -0.30563  -0.30523  -0.30031  -0.28556  -0.24062
 Alpha  occ. eigenvalues --   -0.21476
 Alpha virt. eigenvalues --   -0.09015  -0.01660   0.00239   0.02022   0.02448
 Alpha virt. eigenvalues --    0.04329   0.05381   0.06116   0.06480   0.06922
 Alpha virt. eigenvalues --    0.07378   0.08027   0.08494   0.08636   0.08964

 Mulliken charges:
               1
     1  Mg   0.805809
     2  C   -0.005292
     3  C   -0.056819
     4  C   -0.056286
     5  C   -0.102242
     6  N   -0.309754
     7  C   -0.024706
     8  C   -0.018575
     9  C   -0.001417
    10  C   -0.047693
    11  C    0.052113
    12  C    0.068714
    13  C    0.035644
    14  C    0.171401
    15  O   -0.281102
    16  O   -0.314705
    17  N   -0.378328
    18  C    0.182123
    19  C   -0.165893
    20  C   -0.026498
    21  C    0.106039
    22  C    0.128526
    23  C    0.003982
    24  O   -0.216723
    25  C    0.054109
    26  N   -0.227568
    27  C    0.004355
    28  C    0.006845
    29  C   -0.066320
    30  C    0.078638
    31  C    0.091277
    32  C    0.063786
    33  C   -0.038869
    34  N   -0.322713
    35  C    0.102201
    36  C   -0.118519
    37  C    0.059747
    38  C    0.067005
    39  C    0.105369
    40  C    0.014890
    41  O   -0.191295
    42  C   -0.027162
    43  C    0.200605
    44  O   -0.212124
    45  O   -0.320010
    46  C    0.159730
    47  C    0.293974
    48  C   -0.173357
    49  C   -0.180643
    50  C    0.082548
    51  C    0.116586
    52  C    0.008678
    53  C    0.015631
    54  C   -0.170218
    55  C    0.080685
    56  C    0.028497
    57  C    0.011397
    58  C    0.107413
    59  C   -0.184375
    60  C    0.024729
    61  C    0.097724
    62  C    0.000720
    63  C    0.067637
    64  C   -0.161481
    65  C    0.024877
    66  C    0.019524
    67  H   -0.030009
    68  H   -0.012711
    69  H   -0.027737
    70  H    0.022407
    71  H    0.011351
    72  H    0.027639
    73  H    0.021234
    74  H    0.016666
    75  H    0.026925
    76  H    0.020783
    77  H    0.047870
    78  H    0.019805
    79  H    0.016155
    80  H    0.039705
    81  H    0.030267
    82  H    0.018133
    83  H    0.019418
    84  H    0.053210
    85  H   -0.008302
    86  H   -0.003723
    87  H    0.027699
    88  H    0.020329
    89  H    0.028579
    90  H    0.010835
    91  H    0.004006
    92  H    0.002881
    93  H    0.016338
    94  H    0.015563
    95  H    0.051040
    96  H    0.031587
    97  H    0.014729
    98  H    0.027752
    99  H    0.031403
   100  H    0.051193
   101  H    0.056675
   102  H    0.049955
   103  H    0.037559
   104  H   -0.009972
   105  H    0.014250
   106  H    0.036218
   107  H    0.000665
   108  H    0.012890
   109  H   -0.010671
   110  H   -0.008077
   111  H    0.007670
   112  H   -0.006007
   113  H   -0.010776
   114  H   -0.002710
   115  H    0.009630
   116  H    0.013696
   117  H    0.014273
   118  H   -0.017319
   119  H   -0.025889
   120  H   -0.014004
   121  H   -0.000222
   122  H    0.002563
   123  H   -0.006414
   124  H    0.010368
   125  H    0.006378
   126  H    0.018467
   127  H    0.002503
   128  H    0.001930
   129  H   -0.016136
   130  H   -0.000705
   131  H   -0.001233
   132  H   -0.015293
   133  H   -0.000067
   134  H    0.001691
   135  H    0.006802
   136  H    0.012132
   137  H    0.018279
   138  H    0.017429
   139  H    0.002806
   140  H    0.004809
 Sum of Mulliken charges =  -0.00000

 Dipole moment (field-independent basis, Debye):
    X=              3.0638    Y=              2.8275    Z=              0.5556  Tot=              4.2060
 Quadrupole moment (field-independent basis, Debye-Ang):
   XX=           -381.2486   YY=           -423.9186   ZZ=           -405.6850
   XY=              7.0650   XZ=             21.1654   YZ=              3.6064

 Normal termination of Gaussian 16 at Fri Apr 29 09:19:55 2022.
