 Gaussian 16, Revision A.03,
 Gaussian 16:  ES64L-G16RevA.03 25-Dec-2016

 ---------------------------------
 #p PBE1PBE/Def2SVP td=(nstates=5)
 ---------------------------------

 -----------------------------------------------------
 step_251_chromophore_13 TDDFT with PBE1PBE functional
 -----------------------------------------------------
 Symbolic Z-matrix:
 Charge =  0 Multiplicity = 1

                         Standard orientation:
 ---------------------------------------------------------------------
 Center     Atomic      Atomic             Coordinates (Angstroms)
 Number     Number       Type             X           Y           Z
 ---------------------------------------------------------------------
      1         12           0       -5.971164    0.419018   -0.212755
      2          6           0       -3.660534   -2.172417    0.021041
      3          6           0       -3.625060    2.623075    0.781909
      4          6           0       -8.391315    2.772135   -0.036152
      5          6           0       -8.414498   -1.955130   -0.745041
      6          7           0       -3.841925    0.199139    0.361137
      7          6           0       -3.069349   -0.918962    0.175309
      8          6           0       -1.647588   -0.617330    0.462229
      9          6           0       -1.573917    0.883346    0.767041
     10          6           0       -3.092530    1.329907    0.624416
     11          6           0       -0.908651    1.341528    2.055606
     12          6           0       -0.677173   -1.097324   -0.760063
     13          6           0        0.387754   -2.175647   -0.451176
     14          6           0        1.771330   -2.090080   -1.047244
     15          8           0        2.021519   -1.437471   -2.112814
     16          8           0        2.731932   -2.673057   -0.261944
     17          7           0       -5.987859    2.436643    0.181132
     18          6           0       -4.901636    3.190300    0.599894
     19          6           0       -5.314290    4.524685    0.842738
     20          6           0       -6.715117    4.600921    0.614983
     21          6           0       -7.085700    3.239510    0.215160
     22          6           0       -4.207868    5.603554    1.165712
     23          6           0       -7.579610    5.839682    0.843006
     24          8           0       -8.812901    5.887167    0.719919
     25          6           0       -6.940895    7.120398    1.158184
     26          7           0       -8.150812    0.432148   -0.119385
     27          6           0       -8.908706    1.508361   -0.161889
     28          6           0      -10.407278    1.131335   -0.145764
     29          6           0      -10.275610   -0.272813   -0.857003
     30          6           0       -8.820402   -0.639178   -0.583140
     31          6           0      -11.186619    0.991861    1.214178
     32          6           0      -10.618206   -0.330758   -2.422473
     33          6           0       -9.830899    0.513510   -3.338677
     34          7           0       -6.127317   -1.721368   -0.312136
     35          6           0       -7.223848   -2.570885   -0.557770
     36          6           0       -6.780448   -3.928513   -0.553746
     37          6           0       -5.431153   -3.850472   -0.271714
     38          6           0       -5.060449   -2.466234   -0.238979
     39          6           0       -7.621610   -5.109606   -0.541271
     40          6           0       -4.260976   -4.594228   -0.241218
     41          8           0       -4.056072   -5.808758   -0.335929
     42          6           0       -3.052621   -3.591204    0.046511
     43          6           0       -2.600978   -3.903241    1.434931
     44          8           0       -3.182483   -3.877580    2.499324
     45          8           0       -1.329398   -4.285800    1.305319
     46          6           0       -0.614287   -4.632960    2.576928
     47          6           0        4.097619   -2.523621   -0.745499
     48          6           0        4.715973   -1.336467   -0.082417
     49          6           0        5.986900   -0.833096   -0.241147
     50          6           0        6.930096   -1.423232   -1.257447
     51          6           0        6.533300    0.267163    0.638621
     52          6           0        7.343193    1.286668   -0.118515
     53          6           0        8.851473    1.248711    0.165833
     54          6           0        9.750533    2.002833   -0.863820
     55          6           0        9.360570    3.483359   -0.968690
     56          6           0        9.848780    1.314232   -2.276144
     57          6           0       11.215346    1.423914   -2.967370
     58          6           0       12.299303    0.509931   -2.414666
     59          6           0       13.353845    1.340043   -1.699496
     60          6           0       14.082710    2.118099   -2.914901
     61          6           0       14.421926    0.491583   -0.938926
     62          6           0       14.483100    0.746301    0.589901
     63          6           0       14.358666   -0.472537    1.579928
     64          6           0       13.583404   -0.121952    2.881770
     65          6           0       14.216030   -0.609306    4.239123
     66          6           0       12.127958   -0.691142    2.690678
     67          1           0       -2.743925    3.259681    0.885522
     68          1           0       -9.108375    3.590614   -0.119618
     69          1           0       -9.188001   -2.688955   -0.980049
     70          1           0       -1.415004   -1.201862    1.351492
     71          1           0       -1.050326    1.382880   -0.047779
     72          1           0       -1.823439    1.404113    2.643789
     73          1           0       -0.315429    2.253355    1.984356
     74          1           0       -0.231758    0.670092    2.583196
     75          1           0       -0.190726   -0.219131   -1.183587
     76          1           0       -1.208300   -1.600981   -1.568128
     77          1           0        0.002620   -3.104370   -0.873177
     78          1           0        0.464810   -2.380968    0.615707
     79          1           0       -4.492602    6.124721    2.079525
     80          1           0       -4.406302    6.249421    0.310300
     81          1           0       -3.194292    5.260889    1.374143
     82          1           0       -6.329692    7.042603    2.056270
     83          1           0       -7.740284    7.758782    1.533662
     84          1           0       -6.437149    7.607914    0.323122
     85          1           0      -10.916693    1.733594   -0.898146
     86          1           0      -11.009661   -0.889018   -0.338359
     87          1           0      -10.637449    0.520462    2.028336
     88          1           0      -12.065050    0.417385    0.917983
     89          1           0      -11.495287    1.970119    1.583687
     90          1           0      -11.646508   -0.048328   -2.649474
     91          1           0      -10.328743   -1.289149   -2.853419
     92          1           0       -8.922289   -0.068104   -3.487983
     93          1           0       -9.515126    1.504921   -3.012458
     94          1           0      -10.220589    0.698519   -4.339144
     95          1           0       -7.900866   -5.211862    0.508054
     96          1           0       -7.142549   -6.030514   -0.872479
     97          1           0       -8.467691   -5.046938   -1.226487
     98          1           0       -2.266448   -3.632855   -0.707421
     99          1           0        0.053102   -3.788071    2.748265
    100          1           0       -0.092954   -5.582438    2.457377
    101          1           0       -1.213887   -4.712145    3.484178
    102          1           0        4.257703   -2.379591   -1.813746
    103          1           0        4.774105   -3.308803   -0.407762
    104          1           0        4.077523   -0.911095    0.692518
    105          1           0        7.929939   -1.548715   -0.841301
    106          1           0        7.047430   -0.785335   -2.134237
    107          1           0        6.569355   -2.398000   -1.585029
    108          1           0        7.069662   -0.297718    1.400787
    109          1           0        5.754947    0.781000    1.204159
    110          1           0        6.937616    2.216411    0.281338
    111          1           0        7.150113    1.443442   -1.179967
    112          1           0        9.176934    0.217907    0.304773
    113          1           0        9.089761    1.722029    1.118746
    114          1           0       10.707289    1.886147   -0.354534
    115          1           0       10.240721    4.019242   -0.614317
    116          1           0        8.527590    3.673908   -0.291746
    117          1           0        9.153383    3.701396   -2.016224
    118          1           0        9.083707    1.795502   -2.885680
    119          1           0        9.462869    0.295188   -2.267126
    120          1           0       11.269261    2.438997   -2.574253
    121          1           0       11.027339    1.500084   -4.038112
    122          1           0       12.672322    0.036331   -3.322138
    123          1           0       11.830833   -0.251437   -1.790209
    124          1           0       12.925523    2.069663   -1.012113
    125          1           0       13.722801    3.127745   -2.716533
    126          1           0       13.890320    1.853755   -3.954273
    127          1           0       15.170327    2.115677   -2.837489
    128          1           0       15.384393    0.509754   -1.450075
    129          1           0       13.982816   -0.495329   -1.083170
    130          1           0       13.782383    1.518672    0.908849
    131          1           0       15.470383    1.175102    0.759649
    132          1           0       15.375921   -0.742412    1.862475
    133          1           0       13.930705   -1.358067    1.110051
    134          1           0       13.466501    0.943652    3.081472
    135          1           0       13.574123   -0.109155    4.963470
    136          1           0       15.210612   -0.164273    4.270947
    137          1           0       14.263270   -1.671993    4.476695
    138          1           0       11.875886   -0.821126    1.638845
    139          1           0       11.341570   -0.109940    3.171537
    140          1           0       12.127589   -1.644811    3.219655
 ---------------------------------------------------------------------

 SCF Done:  E(RPBE1PBE) =  -3005.31551171     A.U. after   16 cycles

 Excitation energies and oscillator strengths:

 Excited State   1:      Singlet-A      1.8585 eV  667.11 nm  f=0.3426  <S**2>=0.000
     245 -> 248        0.16409
     246 -> 247        0.69260
     246 <- 247       -0.10767
 This state for optimization and/or second-order correction.
 Total Energy, E(TD-HF/TD-DFT) =  -3005.24721246
 Copying the excited state density for this state as the 1-particle RhoCI density.

 Excited State   2:      Singlet-A      2.1784 eV  569.14 nm  f=0.1498  <S**2>=0.000
     245 -> 247        0.66020
     246 -> 248       -0.23541

 Excited State   3:      Singlet-A      2.8167 eV  440.18 nm  f=0.0013  <S**2>=0.000
     243 -> 247        0.66616
     243 -> 249       -0.14956

 Excited State   4:      Singlet-A      3.0593 eV  405.27 nm  f=0.0003  <S**2>=0.000
     241 -> 247        0.32458
     242 -> 247        0.49632
     244 -> 247       -0.32996

 Excited State   5:      Singlet-A      3.0611 eV  405.03 nm  f=0.0001  <S**2>=0.000
     241 -> 247        0.19107
     242 -> 247        0.24805
     244 -> 247        0.62495

 The electronic state is 1-A.
 Alpha  occ. eigenvalues --  -46.92757 -19.27053 -19.25860 -19.19815 -19.19432
 Alpha  occ. eigenvalues --  -19.18914 -19.18527 -14.41676 -14.41244 -14.39401
 Alpha  occ. eigenvalues --  -14.38644 -10.37161 -10.35741 -10.32221 -10.31345
 Alpha  occ. eigenvalues --  -10.29366 -10.29254 -10.29038 -10.28969 -10.28387
 Alpha  occ. eigenvalues --  -10.28035 -10.27858 -10.27539 -10.26822 -10.26667
 Alpha  occ. eigenvalues --  -10.26570 -10.26453 -10.26411 -10.25868 -10.25707
 Alpha  occ. eigenvalues --  -10.25675 -10.25638 -10.25426 -10.25350 -10.25282
 Alpha  occ. eigenvalues --  -10.25131 -10.25016 -10.24932 -10.24257 -10.24008
 Alpha  occ. eigenvalues --  -10.24002 -10.23979 -10.23963 -10.23856 -10.23814
 Alpha  occ. eigenvalues --  -10.23422 -10.23399 -10.23345 -10.23152 -10.23131
 Alpha  occ. eigenvalues --  -10.22885 -10.22751 -10.22677 -10.22606 -10.22583
 Alpha  occ. eigenvalues --  -10.22535 -10.22429 -10.22378 -10.22267 -10.22199
 Alpha  occ. eigenvalues --  -10.22151 -10.22110 -10.22103 -10.22080 -10.21925
 Alpha  occ. eigenvalues --  -10.21751  -3.14749  -1.87592  -1.87102  -1.86988
 Alpha  occ. eigenvalues --   -1.11934  -1.11111  -1.03865  -1.03359  -1.02309
 Alpha  occ. eigenvalues --   -1.00755  -1.00056  -0.98962  -0.98091  -0.97356
 Alpha  occ. eigenvalues --   -0.86630  -0.84952  -0.84092  -0.83605  -0.83498
 Alpha  occ. eigenvalues --   -0.82755  -0.82517  -0.82290  -0.81988  -0.81534
 Alpha  occ. eigenvalues --   -0.81180  -0.80457  -0.79009  -0.78569  -0.78182
 Alpha  occ. eigenvalues --   -0.77204  -0.76735  -0.75922  -0.75356  -0.74972
 Alpha  occ. eigenvalues --   -0.73947  -0.73240  -0.72637  -0.71793  -0.70589
 Alpha  occ. eigenvalues --   -0.70312  -0.69734  -0.69546  -0.68690  -0.68485
 Alpha  occ. eigenvalues --   -0.68121  -0.67804  -0.66193  -0.65358  -0.63768
 Alpha  occ. eigenvalues --   -0.63481  -0.62781  -0.61960  -0.61741  -0.60329
 Alpha  occ. eigenvalues --   -0.60043  -0.59399  -0.59366  -0.58567  -0.58102
 Alpha  occ. eigenvalues --   -0.58001  -0.57073  -0.56711  -0.55742  -0.55029
 Alpha  occ. eigenvalues --   -0.54567  -0.54401  -0.53969  -0.53381  -0.52874
 Alpha  occ. eigenvalues --   -0.52488  -0.52147  -0.51110  -0.50418  -0.50263
 Alpha  occ. eigenvalues --   -0.50125  -0.49675  -0.49452  -0.49292  -0.49200
 Alpha  occ. eigenvalues --   -0.48567  -0.48194  -0.47926  -0.47817  -0.47475
 Alpha  occ. eigenvalues --   -0.47454  -0.47381  -0.47322  -0.46693  -0.46390
 Alpha  occ. eigenvalues --   -0.46244  -0.46081  -0.45893  -0.45726  -0.45144
 Alpha  occ. eigenvalues --   -0.44995  -0.44798  -0.44489  -0.44403  -0.44294
 Alpha  occ. eigenvalues --   -0.44076  -0.43872  -0.43791  -0.43723  -0.43283
 Alpha  occ. eigenvalues --   -0.43063  -0.42974  -0.42900  -0.42751  -0.42604
 Alpha  occ. eigenvalues --   -0.42007  -0.41786  -0.41779  -0.41560  -0.41360
 Alpha  occ. eigenvalues --   -0.41178  -0.40956  -0.40850  -0.40728  -0.40317
 Alpha  occ. eigenvalues --   -0.40097  -0.39952  -0.39630  -0.39556  -0.39246
 Alpha  occ. eigenvalues --   -0.39154  -0.38968  -0.38889  -0.38562  -0.38512
 Alpha  occ. eigenvalues --   -0.38451  -0.38188  -0.38129  -0.38085  -0.37713
 Alpha  occ. eigenvalues --   -0.37427  -0.37207  -0.37136  -0.37012  -0.36902
 Alpha  occ. eigenvalues --   -0.36741  -0.36639  -0.36554  -0.36503  -0.36084
 Alpha  occ. eigenvalues --   -0.36003  -0.35816  -0.35634  -0.35532  -0.35131
 Alpha  occ. eigenvalues --   -0.34758  -0.34354  -0.33971  -0.33751  -0.33290
 Alpha  occ. eigenvalues --   -0.33079  -0.33062  -0.32872  -0.32759  -0.32314
 Alpha  occ. eigenvalues --   -0.31984  -0.31650  -0.31555  -0.31316  -0.31235
 Alpha  occ. eigenvalues --   -0.30752  -0.30580  -0.29775  -0.29627  -0.29289
 Alpha  occ. eigenvalues --   -0.29146  -0.29072  -0.28462  -0.27156  -0.26195
 Alpha  occ. eigenvalues --   -0.25814  -0.25757  -0.25301  -0.23855  -0.21008
 Alpha  occ. eigenvalues --   -0.19105
 Alpha virt. eigenvalues --   -0.11466  -0.05196  -0.03955  -0.02152  -0.00569
 Alpha virt. eigenvalues --   -0.00311   0.01116   0.01765   0.01876   0.03179
 Alpha virt. eigenvalues --    0.04145   0.04352   0.04535   0.05330   0.05384

 Mulliken charges:
               1
     1  Mg   0.948941
     2  C   -0.006654
     3  C   -0.060016
     4  C   -0.050615
     5  C   -0.094829
     6  N   -0.407830
     7  C    0.042349
     8  C   -0.097198
     9  C   -0.077180
    10  C   -0.005052
    11  C   -0.007393
    12  C    0.027135
    13  C   -0.050325
    14  C    0.241989
    15  O   -0.311408
    16  O   -0.347674
    17  N   -0.496259
    18  C    0.205249
    19  C   -0.189121
    20  C   -0.079315
    21  C    0.140872
    22  C    0.066356
    23  C    0.055880
    24  O   -0.253392
    25  C   -0.020289
    26  N   -0.333087
    27  C    0.041980
    28  C   -0.066622
    29  C   -0.140589
    30  C    0.110228
    31  C    0.032099
    32  C   -0.002081
    33  C   -0.106281
    34  N   -0.446144
    35  C    0.127258
    36  C   -0.143180
    37  C    0.024189
    38  C    0.130250
    39  C    0.054262
    40  C    0.092906
    41  O   -0.236708
    42  C   -0.139479
    43  C    0.298940
    44  O   -0.249567
    45  O   -0.351785
    46  C    0.103881
    47  C    0.244259
    48  C   -0.174856
    49  C   -0.228909
    50  C    0.020649
    51  C    0.058707
    52  C   -0.059469
    53  C   -0.039724
    54  C   -0.256526
    55  C    0.017530
    56  C   -0.025752
    57  C   -0.052668
    58  C    0.046672
    59  C   -0.272819
    60  C   -0.030555
    61  C    0.045547
    62  C   -0.060760
    63  C    0.008300
    64  C   -0.249413
    65  C   -0.038228
    66  C   -0.042466
    67  H    0.004441
    68  H    0.019120
    69  H    0.003518
    70  H    0.062765
    71  H    0.049107
    72  H    0.056599
    73  H    0.047573
    74  H    0.044190
    75  H    0.057533
    76  H    0.052638
    77  H    0.081619
    78  H    0.055172
    79  H    0.044883
    80  H    0.068939
    81  H    0.055406
    82  H    0.045439
    83  H    0.047687
    84  H    0.078738
    85  H    0.029940
    86  H    0.033019
    87  H    0.054924
    88  H    0.047921
    89  H    0.056797
    90  H    0.043061
    91  H    0.037807
    92  H    0.032016
    93  H    0.044777
    94  H    0.044013
    95  H    0.078552
    96  H    0.058389
    97  H    0.040725
    98  H    0.067060
    99  H    0.052218
   100  H    0.072450
   101  H    0.077462
   102  H    0.076919
   103  H    0.065215
   104  H    0.020409
   105  H    0.042183
   106  H    0.063250
   107  H    0.028510
   108  H    0.045853
   109  H    0.020837
   110  H    0.025378
   111  H    0.040099
   112  H    0.027739
   113  H    0.023158
   114  H    0.040163
   115  H    0.037602
   116  H    0.041801
   117  H    0.040653
   118  H    0.015370
   119  H    0.009713
   120  H    0.023453
   121  H    0.031550
   122  H    0.036471
   123  H    0.025998
   124  H    0.046611
   125  H    0.034231
   126  H    0.044344
   127  H    0.030060
   128  H    0.032310
   129  H    0.019264
   130  H    0.030193
   131  H    0.032392
   132  H    0.018505
   133  H    0.030708
   134  H    0.038289
   135  H    0.035383
   136  H    0.040770
   137  H    0.044630
   138  H    0.045794
   139  H    0.030358
   140  H    0.033132
 Sum of Mulliken charges =  -0.00000

 Dipole moment (field-independent basis, Debye):
    X=              3.0683    Y=              2.8801    Z=              0.5582  Tot=              4.2451
 Quadrupole moment (field-independent basis, Debye-Ang):
   XX=           -375.6769   YY=           -421.4027   ZZ=           -402.9548
   XY=              7.4736   XZ=             21.7418   YZ=              3.6809

 Normal termination of Gaussian 16 at Fri Apr 29 09:38:03 2022.
