 Gaussian 16, Revision A.03,
 Gaussian 16:  ES64L-G16RevA.03 25-Dec-2016

 --------------------------------
 #p wB97XD/Def2SVP td=(nstates=5)
 --------------------------------

 ----------------------------------------------------
 step_251_chromophore_13 TDDFT with wB97XD functional
 ----------------------------------------------------
 Symbolic Z-matrix:
 Charge =  0 Multiplicity = 1

                         Standard orientation:
 ---------------------------------------------------------------------
 Center     Atomic      Atomic             Coordinates (Angstroms)
 Number     Number       Type             X           Y           Z
 ---------------------------------------------------------------------
      1         12           0       -5.971164    0.419018   -0.212755
      2          6           0       -3.660534   -2.172417    0.021041
      3          6           0       -3.625060    2.623075    0.781909
      4          6           0       -8.391315    2.772135   -0.036152
      5          6           0       -8.414498   -1.955130   -0.745041
      6          7           0       -3.841925    0.199139    0.361137
      7          6           0       -3.069349   -0.918962    0.175309
      8          6           0       -1.647588   -0.617330    0.462229
      9          6           0       -1.573917    0.883346    0.767041
     10          6           0       -3.092530    1.329907    0.624416
     11          6           0       -0.908651    1.341528    2.055606
     12          6           0       -0.677173   -1.097324   -0.760063
     13          6           0        0.387754   -2.175647   -0.451176
     14          6           0        1.771330   -2.090080   -1.047244
     15          8           0        2.021519   -1.437471   -2.112814
     16          8           0        2.731932   -2.673057   -0.261944
     17          7           0       -5.987859    2.436643    0.181132
     18          6           0       -4.901636    3.190300    0.599894
     19          6           0       -5.314290    4.524685    0.842738
     20          6           0       -6.715117    4.600921    0.614983
     21          6           0       -7.085700    3.239510    0.215160
     22          6           0       -4.207868    5.603554    1.165712
     23          6           0       -7.579610    5.839682    0.843006
     24          8           0       -8.812901    5.887167    0.719919
     25          6           0       -6.940895    7.120398    1.158184
     26          7           0       -8.150812    0.432148   -0.119385
     27          6           0       -8.908706    1.508361   -0.161889
     28          6           0      -10.407278    1.131335   -0.145764
     29          6           0      -10.275610   -0.272813   -0.857003
     30          6           0       -8.820402   -0.639178   -0.583140
     31          6           0      -11.186619    0.991861    1.214178
     32          6           0      -10.618206   -0.330758   -2.422473
     33          6           0       -9.830899    0.513510   -3.338677
     34          7           0       -6.127317   -1.721368   -0.312136
     35          6           0       -7.223848   -2.570885   -0.557770
     36          6           0       -6.780448   -3.928513   -0.553746
     37          6           0       -5.431153   -3.850472   -0.271714
     38          6           0       -5.060449   -2.466234   -0.238979
     39          6           0       -7.621610   -5.109606   -0.541271
     40          6           0       -4.260976   -4.594228   -0.241218
     41          8           0       -4.056072   -5.808758   -0.335929
     42          6           0       -3.052621   -3.591204    0.046511
     43          6           0       -2.600978   -3.903241    1.434931
     44          8           0       -3.182483   -3.877580    2.499324
     45          8           0       -1.329398   -4.285800    1.305319
     46          6           0       -0.614287   -4.632960    2.576928
     47          6           0        4.097619   -2.523621   -0.745499
     48          6           0        4.715973   -1.336467   -0.082417
     49          6           0        5.986900   -0.833096   -0.241147
     50          6           0        6.930096   -1.423232   -1.257447
     51          6           0        6.533300    0.267163    0.638621
     52          6           0        7.343193    1.286668   -0.118515
     53          6           0        8.851473    1.248711    0.165833
     54          6           0        9.750533    2.002833   -0.863820
     55          6           0        9.360570    3.483359   -0.968690
     56          6           0        9.848780    1.314232   -2.276144
     57          6           0       11.215346    1.423914   -2.967370
     58          6           0       12.299303    0.509931   -2.414666
     59          6           0       13.353845    1.340043   -1.699496
     60          6           0       14.082710    2.118099   -2.914901
     61          6           0       14.421926    0.491583   -0.938926
     62          6           0       14.483100    0.746301    0.589901
     63          6           0       14.358666   -0.472537    1.579928
     64          6           0       13.583404   -0.121952    2.881770
     65          6           0       14.216030   -0.609306    4.239123
     66          6           0       12.127958   -0.691142    2.690678
     67          1           0       -2.743925    3.259681    0.885522
     68          1           0       -9.108375    3.590614   -0.119618
     69          1           0       -9.188001   -2.688955   -0.980049
     70          1           0       -1.415004   -1.201862    1.351492
     71          1           0       -1.050326    1.382880   -0.047779
     72          1           0       -1.823439    1.404113    2.643789
     73          1           0       -0.315429    2.253355    1.984356
     74          1           0       -0.231758    0.670092    2.583196
     75          1           0       -0.190726   -0.219131   -1.183587
     76          1           0       -1.208300   -1.600981   -1.568128
     77          1           0        0.002620   -3.104370   -0.873177
     78          1           0        0.464810   -2.380968    0.615707
     79          1           0       -4.492602    6.124721    2.079525
     80          1           0       -4.406302    6.249421    0.310300
     81          1           0       -3.194292    5.260889    1.374143
     82          1           0       -6.329692    7.042603    2.056270
     83          1           0       -7.740284    7.758782    1.533662
     84          1           0       -6.437149    7.607914    0.323122
     85          1           0      -10.916693    1.733594   -0.898146
     86          1           0      -11.009661   -0.889018   -0.338359
     87          1           0      -10.637449    0.520462    2.028336
     88          1           0      -12.065050    0.417385    0.917983
     89          1           0      -11.495287    1.970119    1.583687
     90          1           0      -11.646508   -0.048328   -2.649474
     91          1           0      -10.328743   -1.289149   -2.853419
     92          1           0       -8.922289   -0.068104   -3.487983
     93          1           0       -9.515126    1.504921   -3.012458
     94          1           0      -10.220589    0.698519   -4.339144
     95          1           0       -7.900866   -5.211862    0.508054
     96          1           0       -7.142549   -6.030514   -0.872479
     97          1           0       -8.467691   -5.046938   -1.226487
     98          1           0       -2.266448   -3.632855   -0.707421
     99          1           0        0.053102   -3.788071    2.748265
    100          1           0       -0.092954   -5.582438    2.457377
    101          1           0       -1.213887   -4.712145    3.484178
    102          1           0        4.257703   -2.379591   -1.813746
    103          1           0        4.774105   -3.308803   -0.407762
    104          1           0        4.077523   -0.911095    0.692518
    105          1           0        7.929939   -1.548715   -0.841301
    106          1           0        7.047430   -0.785335   -2.134237
    107          1           0        6.569355   -2.398000   -1.585029
    108          1           0        7.069662   -0.297718    1.400787
    109          1           0        5.754947    0.781000    1.204159
    110          1           0        6.937616    2.216411    0.281338
    111          1           0        7.150113    1.443442   -1.179967
    112          1           0        9.176934    0.217907    0.304773
    113          1           0        9.089761    1.722029    1.118746
    114          1           0       10.707289    1.886147   -0.354534
    115          1           0       10.240721    4.019242   -0.614317
    116          1           0        8.527590    3.673908   -0.291746
    117          1           0        9.153383    3.701396   -2.016224
    118          1           0        9.083707    1.795502   -2.885680
    119          1           0        9.462869    0.295188   -2.267126
    120          1           0       11.269261    2.438997   -2.574253
    121          1           0       11.027339    1.500084   -4.038112
    122          1           0       12.672322    0.036331   -3.322138
    123          1           0       11.830833   -0.251437   -1.790209
    124          1           0       12.925523    2.069663   -1.012113
    125          1           0       13.722801    3.127745   -2.716533
    126          1           0       13.890320    1.853755   -3.954273
    127          1           0       15.170327    2.115677   -2.837489
    128          1           0       15.384393    0.509754   -1.450075
    129          1           0       13.982816   -0.495329   -1.083170
    130          1           0       13.782383    1.518672    0.908849
    131          1           0       15.470383    1.175102    0.759649
    132          1           0       15.375921   -0.742412    1.862475
    133          1           0       13.930705   -1.358067    1.110051
    134          1           0       13.466501    0.943652    3.081472
    135          1           0       13.574123   -0.109155    4.963470
    136          1           0       15.210612   -0.164273    4.270947
    137          1           0       14.263270   -1.671993    4.476695
    138          1           0       11.875886   -0.821126    1.638845
    139          1           0       11.341570   -0.109940    3.171537
    140          1           0       12.127589   -1.644811    3.219655
 ---------------------------------------------------------------------

 SCF Done:  E(RwB97XD) =  -3007.82665784     A.U. after   20 cycles

 Excitation energies and oscillator strengths:

 Excited State   1:      Singlet-A      1.6459 eV  753.29 nm  f=0.3659  <S**2>=0.000
     245 -> 248        0.18152
     246 -> 247        0.68366
     245 <- 248        0.11564
 This state for optimization and/or second-order correction.
 Total Energy, E(TD-HF/TD-DFT) =  -3007.76617181
 Copying the excited state density for this state as the 1-particle RhoCI density.

 Excited State   2:      Singlet-A      2.1218 eV  584.34 nm  f=0.1410  <S**2>=0.000
     245 -> 247        0.64927
     246 -> 248       -0.26677

 Excited State   3:      Singlet-A      3.3321 eV  372.09 nm  f=0.0028  <S**2>=0.000
     242 -> 247       -0.37607
     242 -> 249        0.24357
     242 -> 250        0.16530
     243 -> 247        0.45274
     243 -> 249       -0.14250

 Excited State   4:      Singlet-A      3.4773 eV  356.55 nm  f=0.0057  <S**2>=0.000
     242 -> 247        0.46991
     242 -> 249       -0.11035
     243 -> 247        0.47587

 Excited State   5:      Singlet-A      3.5736 eV  346.94 nm  f=0.3260  <S**2>=0.000
     241 -> 247        0.39745
     245 -> 247        0.17640
     246 -> 248        0.52308

 The electronic state is 1-A.
 Alpha  occ. eigenvalues --  -46.95700 -19.31633 -19.30457 -19.24483 -19.24163
 Alpha  occ. eigenvalues --  -19.23713 -19.23369 -14.46624 -14.46451 -14.44334
 Alpha  occ. eigenvalues --  -14.43607 -10.43959 -10.42594 -10.39051 -10.38267
 Alpha  occ. eigenvalues --  -10.35849 -10.35581 -10.35518 -10.35296 -10.34647
 Alpha  occ. eigenvalues --  -10.34330 -10.34132 -10.33850 -10.33143 -10.33040
 Alpha  occ. eigenvalues --  -10.32833 -10.32817 -10.32636 -10.32319 -10.32094
 Alpha  occ. eigenvalues --  -10.32064 -10.31862 -10.31772 -10.31627 -10.31563
 Alpha  occ. eigenvalues --  -10.31554 -10.31476 -10.31219 -10.30616 -10.30555
 Alpha  occ. eigenvalues --  -10.30339 -10.30313 -10.30224 -10.30187 -10.30122
 Alpha  occ. eigenvalues --  -10.29947 -10.29880 -10.29621 -10.29606 -10.29539
 Alpha  occ. eigenvalues --  -10.29454 -10.29149 -10.29041 -10.28982 -10.28971
 Alpha  occ. eigenvalues --  -10.28891 -10.28804 -10.28738 -10.28682 -10.28581
 Alpha  occ. eigenvalues --  -10.28562 -10.28528 -10.28468 -10.28436 -10.28333
 Alpha  occ. eigenvalues --  -10.28156  -3.21564  -1.95154  -1.94662  -1.94549
 Alpha  occ. eigenvalues --   -1.19353  -1.18510  -1.11348  -1.10886  -1.09705
 Alpha  occ. eigenvalues --   -1.08133  -1.07457  -1.06339  -1.05439  -1.04701
 Alpha  occ. eigenvalues --   -0.94272  -0.92635  -0.91763  -0.91217  -0.91103
 Alpha  occ. eigenvalues --   -0.90384  -0.90182  -0.89910  -0.89574  -0.89198
 Alpha  occ. eigenvalues --   -0.88834  -0.88094  -0.86658  -0.86186  -0.85801
 Alpha  occ. eigenvalues --   -0.84854  -0.84396  -0.83628  -0.82993  -0.82615
 Alpha  occ. eigenvalues --   -0.81604  -0.80883  -0.80252  -0.79399  -0.78210
 Alpha  occ. eigenvalues --   -0.78004  -0.77337  -0.77235  -0.76355  -0.76175
 Alpha  occ. eigenvalues --   -0.75700  -0.75396  -0.73717  -0.72997  -0.71333
 Alpha  occ. eigenvalues --   -0.71047  -0.70408  -0.69522  -0.69347  -0.67797
 Alpha  occ. eigenvalues --   -0.67496  -0.67032  -0.66819  -0.66044  -0.65768
 Alpha  occ. eigenvalues --   -0.65490  -0.64707  -0.64143  -0.63350  -0.62450
 Alpha  occ. eigenvalues --   -0.62006  -0.61946  -0.61403  -0.60728  -0.60328
 Alpha  occ. eigenvalues --   -0.59985  -0.59643  -0.58496  -0.57869  -0.57668
 Alpha  occ. eigenvalues --   -0.57563  -0.57054  -0.56873  -0.56734  -0.56612
 Alpha  occ. eigenvalues --   -0.56056  -0.55625  -0.55312  -0.55164  -0.54986
 Alpha  occ. eigenvalues --   -0.54912  -0.54762  -0.54690  -0.54127  -0.53738
 Alpha  occ. eigenvalues --   -0.53631  -0.53433  -0.53162  -0.53114  -0.52489
 Alpha  occ. eigenvalues --   -0.52342  -0.52067  -0.51825  -0.51733  -0.51620
 Alpha  occ. eigenvalues --   -0.51382  -0.51170  -0.51121  -0.51070  -0.50594
 Alpha  occ. eigenvalues --   -0.50355  -0.50278  -0.50180  -0.50054  -0.49872
 Alpha  occ. eigenvalues --   -0.49342  -0.49115  -0.49046  -0.48799  -0.48615
 Alpha  occ. eigenvalues --   -0.48415  -0.48173  -0.48092  -0.47918  -0.47539
 Alpha  occ. eigenvalues --   -0.47202  -0.47102  -0.46816  -0.46730  -0.46458
 Alpha  occ. eigenvalues --   -0.46382  -0.46114  -0.46032  -0.45735  -0.45622
 Alpha  occ. eigenvalues --   -0.45589  -0.45330  -0.45304  -0.45217  -0.44871
 Alpha  occ. eigenvalues --   -0.44604  -0.44369  -0.44269  -0.44101  -0.44026
 Alpha  occ. eigenvalues --   -0.43801  -0.43733  -0.43714  -0.43646  -0.43165
 Alpha  occ. eigenvalues --   -0.43074  -0.42848  -0.42717  -0.42594  -0.42121
 Alpha  occ. eigenvalues --   -0.41773  -0.41373  -0.40967  -0.40761  -0.40314
 Alpha  occ. eigenvalues --   -0.40114  -0.39993  -0.39930  -0.39692  -0.39342
 Alpha  occ. eigenvalues --   -0.39003  -0.38755  -0.38537  -0.38253  -0.38181
 Alpha  occ. eigenvalues --   -0.37730  -0.37555  -0.36569  -0.36523  -0.36407
 Alpha  occ. eigenvalues --   -0.36086  -0.35784  -0.35616  -0.33738  -0.32986
 Alpha  occ. eigenvalues --   -0.32733  -0.32569  -0.32194  -0.30609  -0.25973
 Alpha  occ. eigenvalues --   -0.23287
 Alpha virt. eigenvalues --   -0.07373   0.00251   0.02296   0.04327   0.05336
 Alpha virt. eigenvalues --    0.06542   0.07829   0.08429   0.08638   0.09647
 Alpha virt. eigenvalues --    0.10789   0.10974   0.11188   0.11967   0.12099

 Mulliken charges:
               1
     1  Mg   0.940335
     2  C   -0.017373
     3  C   -0.073917
     4  C   -0.062053
     5  C   -0.107800
     6  N   -0.378507
     7  C    0.017605
     8  C   -0.070065
     9  C   -0.050860
    10  C   -0.018282
    11  C    0.003149
    12  C    0.035881
    13  C   -0.027330
    14  C    0.230479
    15  O   -0.308780
    16  O   -0.346789
    17  N   -0.463625
    18  C    0.198899
    19  C   -0.182526
    20  C   -0.073423
    21  C    0.131386
    22  C    0.083226
    23  C    0.052824
    24  O   -0.247928
    25  C   -0.010132
    26  N   -0.296472
    27  C    0.020290
    28  C   -0.042572
    29  C   -0.112848
    30  C    0.095936
    31  C    0.041890
    32  C    0.013755
    33  C   -0.088747
    34  N   -0.408715
    35  C    0.114701
    36  C   -0.132982
    37  C    0.022192
    38  C    0.108962
    39  C    0.062283
    40  C    0.080634
    41  O   -0.226640
    42  C   -0.094586
    43  C    0.270444
    44  O   -0.243641
    45  O   -0.348859
    46  C    0.120077
    47  C    0.263056
    48  C   -0.186517
    49  C   -0.213126
    50  C    0.034507
    51  C    0.072101
    52  C   -0.042251
    53  C   -0.019573
    54  C   -0.222193
    55  C    0.028839
    56  C   -0.009279
    57  C   -0.027517
    58  C    0.061373
    59  C   -0.237920
    60  C   -0.019119
    61  C    0.060721
    62  C   -0.043569
    63  C    0.023566
    64  C   -0.223325
    65  C   -0.024753
    66  C   -0.027648
    67  H   -0.006343
    68  H    0.014878
    69  H   -0.002266
    70  H    0.047436
    71  H    0.038318
    72  H    0.048233
    73  H    0.043404
    74  H    0.039375
    75  H    0.050767
    76  H    0.044847
    77  H    0.073380
    78  H    0.043153
    79  H    0.037848
    80  H    0.061005
    81  H    0.053082
    82  H    0.039038
    83  H    0.045947
    84  H    0.075745
    85  H    0.019921
    86  H    0.023016
    87  H    0.050040
    88  H    0.040645
    89  H    0.051610
    90  H    0.036101
    91  H    0.028817
    92  H    0.022508
    93  H    0.034954
    94  H    0.039809
    95  H    0.074258
    96  H    0.055895
    97  H    0.036226
    98  H    0.055826
    99  H    0.048056
   100  H    0.069242
   101  H    0.074148
   102  H    0.071522
   103  H    0.059760
   104  H    0.016331
   105  H    0.035042
   106  H    0.056731
   107  H    0.023111
   108  H    0.037726
   109  H    0.015735
   110  H    0.016824
   111  H    0.029654
   112  H    0.014691
   113  H    0.014585
   114  H    0.021162
   115  H    0.032591
   116  H    0.034694
   117  H    0.034845
   118  H    0.005121
   119  H   -0.004114
   120  H    0.003539
   121  H    0.026475
   122  H    0.027694
   123  H    0.015974
   124  H    0.029367
   125  H    0.027572
   126  H    0.038134
   127  H    0.023945
   128  H    0.025866
   129  H    0.005939
   130  H    0.018966
   131  H    0.024967
   132  H    0.010733
   133  H    0.021553
   134  H    0.027379
   135  H    0.028713
   136  H    0.034162
   137  H    0.039417
   138  H    0.037182
   139  H    0.025065
   140  H    0.025552
 Sum of Mulliken charges =  -0.00000

 Dipole moment (field-independent basis, Debye):
    X=              3.0727    Y=              2.8453    Z=              0.5655  Tot=              4.2257
 Quadrupole moment (field-independent basis, Debye-Ang):
   XX=           -376.1407   YY=           -419.6125   ZZ=           -402.6390
   XY=              7.2591   XZ=             21.7595   YZ=              3.8494

 Normal termination of Gaussian 16 at Fri Apr 29 10:07:30 2022.
