 Gaussian 16, Revision A.03,
 Gaussian 16:  ES64L-G16RevA.03 25-Dec-2016

 --------------------
 #p ZINDO=(nstates=5)
 --------------------

 -----------------------------
 step_251_chromophore_13 ZINDO
 -----------------------------
 Symbolic Z-matrix:
 Charge =  0 Multiplicity = 1

                         Standard orientation:
 ---------------------------------------------------------------------
 Center     Atomic      Atomic             Coordinates (Angstroms)
 Number     Number       Type             X           Y           Z
 ---------------------------------------------------------------------
      1         12           0       -5.971164    0.419018   -0.212755
      2          6           0       -3.660534   -2.172417    0.021041
      3          6           0       -3.625060    2.623075    0.781909
      4          6           0       -8.391315    2.772135   -0.036152
      5          6           0       -8.414498   -1.955130   -0.745041
      6          7           0       -3.841925    0.199139    0.361137
      7          6           0       -3.069349   -0.918962    0.175309
      8          6           0       -1.647588   -0.617330    0.462229
      9          6           0       -1.573917    0.883346    0.767041
     10          6           0       -3.092530    1.329907    0.624416
     11          6           0       -0.908651    1.341528    2.055606
     12          6           0       -0.677173   -1.097324   -0.760063
     13          6           0        0.387754   -2.175647   -0.451176
     14          6           0        1.771330   -2.090080   -1.047244
     15          8           0        2.021519   -1.437471   -2.112814
     16          8           0        2.731932   -2.673057   -0.261944
     17          7           0       -5.987859    2.436643    0.181132
     18          6           0       -4.901636    3.190300    0.599894
     19          6           0       -5.314290    4.524685    0.842738
     20          6           0       -6.715117    4.600921    0.614983
     21          6           0       -7.085700    3.239510    0.215160
     22          6           0       -4.207868    5.603554    1.165712
     23          6           0       -7.579610    5.839682    0.843006
     24          8           0       -8.812901    5.887167    0.719919
     25          6           0       -6.940895    7.120398    1.158184
     26          7           0       -8.150812    0.432148   -0.119385
     27          6           0       -8.908706    1.508361   -0.161889
     28          6           0      -10.407278    1.131335   -0.145764
     29          6           0      -10.275610   -0.272813   -0.857003
     30          6           0       -8.820402   -0.639178   -0.583140
     31          6           0      -11.186619    0.991861    1.214178
     32          6           0      -10.618206   -0.330758   -2.422473
     33          6           0       -9.830899    0.513510   -3.338677
     34          7           0       -6.127317   -1.721368   -0.312136
     35          6           0       -7.223848   -2.570885   -0.557770
     36          6           0       -6.780448   -3.928513   -0.553746
     37          6           0       -5.431153   -3.850472   -0.271714
     38          6           0       -5.060449   -2.466234   -0.238979
     39          6           0       -7.621610   -5.109606   -0.541271
     40          6           0       -4.260976   -4.594228   -0.241218
     41          8           0       -4.056072   -5.808758   -0.335929
     42          6           0       -3.052621   -3.591204    0.046511
     43          6           0       -2.600978   -3.903241    1.434931
     44          8           0       -3.182483   -3.877580    2.499324
     45          8           0       -1.329398   -4.285800    1.305319
     46          6           0       -0.614287   -4.632960    2.576928
     47          6           0        4.097619   -2.523621   -0.745499
     48          6           0        4.715973   -1.336467   -0.082417
     49          6           0        5.986900   -0.833096   -0.241147
     50          6           0        6.930096   -1.423232   -1.257447
     51          6           0        6.533300    0.267163    0.638621
     52          6           0        7.343193    1.286668   -0.118515
     53          6           0        8.851473    1.248711    0.165833
     54          6           0        9.750533    2.002833   -0.863820
     55          6           0        9.360570    3.483359   -0.968690
     56          6           0        9.848780    1.314232   -2.276144
     57          6           0       11.215346    1.423914   -2.967370
     58          6           0       12.299303    0.509931   -2.414666
     59          6           0       13.353845    1.340043   -1.699496
     60          6           0       14.082710    2.118099   -2.914901
     61          6           0       14.421926    0.491583   -0.938926
     62          6           0       14.483100    0.746301    0.589901
     63          6           0       14.358666   -0.472537    1.579928
     64          6           0       13.583404   -0.121952    2.881770
     65          6           0       14.216030   -0.609306    4.239123
     66          6           0       12.127958   -0.691142    2.690678
     67          1           0       -2.743925    3.259681    0.885522
     68          1           0       -9.108375    3.590614   -0.119618
     69          1           0       -9.188001   -2.688955   -0.980049
     70          1           0       -1.415004   -1.201862    1.351492
     71          1           0       -1.050326    1.382880   -0.047779
     72          1           0       -1.823439    1.404113    2.643789
     73          1           0       -0.315429    2.253355    1.984356
     74          1           0       -0.231758    0.670092    2.583196
     75          1           0       -0.190726   -0.219131   -1.183587
     76          1           0       -1.208300   -1.600981   -1.568128
     77          1           0        0.002620   -3.104370   -0.873177
     78          1           0        0.464810   -2.380968    0.615707
     79          1           0       -4.492602    6.124721    2.079525
     80          1           0       -4.406302    6.249421    0.310300
     81          1           0       -3.194292    5.260889    1.374143
     82          1           0       -6.329692    7.042603    2.056270
     83          1           0       -7.740284    7.758782    1.533662
     84          1           0       -6.437149    7.607914    0.323122
     85          1           0      -10.916693    1.733594   -0.898146
     86          1           0      -11.009661   -0.889018   -0.338359
     87          1           0      -10.637449    0.520462    2.028336
     88          1           0      -12.065050    0.417385    0.917983
     89          1           0      -11.495287    1.970119    1.583687
     90          1           0      -11.646508   -0.048328   -2.649474
     91          1           0      -10.328743   -1.289149   -2.853419
     92          1           0       -8.922289   -0.068104   -3.487983
     93          1           0       -9.515126    1.504921   -3.012458
     94          1           0      -10.220589    0.698519   -4.339144
     95          1           0       -7.900866   -5.211862    0.508054
     96          1           0       -7.142549   -6.030514   -0.872479
     97          1           0       -8.467691   -5.046938   -1.226487
     98          1           0       -2.266448   -3.632855   -0.707421
     99          1           0        0.053102   -3.788071    2.748265
    100          1           0       -0.092954   -5.582438    2.457377
    101          1           0       -1.213887   -4.712145    3.484178
    102          1           0        4.257703   -2.379591   -1.813746
    103          1           0        4.774105   -3.308803   -0.407762
    104          1           0        4.077523   -0.911095    0.692518
    105          1           0        7.929939   -1.548715   -0.841301
    106          1           0        7.047430   -0.785335   -2.134237
    107          1           0        6.569355   -2.398000   -1.585029
    108          1           0        7.069662   -0.297718    1.400787
    109          1           0        5.754947    0.781000    1.204159
    110          1           0        6.937616    2.216411    0.281338
    111          1           0        7.150113    1.443442   -1.179967
    112          1           0        9.176934    0.217907    0.304773
    113          1           0        9.089761    1.722029    1.118746
    114          1           0       10.707289    1.886147   -0.354534
    115          1           0       10.240721    4.019242   -0.614317
    116          1           0        8.527590    3.673908   -0.291746
    117          1           0        9.153383    3.701396   -2.016224
    118          1           0        9.083707    1.795502   -2.885680
    119          1           0        9.462869    0.295188   -2.267126
    120          1           0       11.269261    2.438997   -2.574253
    121          1           0       11.027339    1.500084   -4.038112
    122          1           0       12.672322    0.036331   -3.322138
    123          1           0       11.830833   -0.251437   -1.790209
    124          1           0       12.925523    2.069663   -1.012113
    125          1           0       13.722801    3.127745   -2.716533
    126          1           0       13.890320    1.853755   -3.954273
    127          1           0       15.170327    2.115677   -2.837489
    128          1           0       15.384393    0.509754   -1.450075
    129          1           0       13.982816   -0.495329   -1.083170
    130          1           0       13.782383    1.518672    0.908849
    131          1           0       15.470383    1.175102    0.759649
    132          1           0       15.375921   -0.742412    1.862475
    133          1           0       13.930705   -1.358067    1.110051
    134          1           0       13.466501    0.943652    3.081472
    135          1           0       13.574123   -0.109155    4.963470
    136          1           0       15.210612   -0.164273    4.270947
    137          1           0       14.263270   -1.671993    4.476695
    138          1           0       11.875886   -0.821126    1.638845
    139          1           0       11.341570   -0.109940    3.171537
    140          1           0       12.127589   -1.644811    3.219655
 ---------------------------------------------------------------------

 SCF Done:  E(RZINDO/S) =  -474.435024673     A.U. after   20 cycles

 Excitation energies and oscillator strengths:

 Excited State   1:      Singlet-A      1.2255 eV 1011.70 nm  f=0.6033  <S**2>=0.000
     175 ->178        -0.19515
     176 ->177         0.66188
 This state for optimization and/or second-order correction.
 Total Energy, E(CIS/TDA) =  -474.389988247
 Copying the excited state density for this state as the 1-particle RhoCI density.

 Excited State   2:      Singlet-A      1.9092 eV  649.39 nm  f=0.0724  <S**2>=0.000
     175 ->177         0.57178
     176 ->178         0.39011

 Excited State   3:      Singlet-A      2.8898 eV  429.04 nm  f=0.0461  <S**2>=0.000
     169 ->177        -0.14427
     169 ->179         0.16361
     170 ->177         0.33018
     170 ->179        -0.34626
     170 ->181         0.20038
     170 ->185        -0.14491
     170 ->187        -0.10267
     173 ->177        -0.11775
     176 ->178         0.15568

 Excited State   4:      Singlet-A      2.9561 eV  419.42 nm  f=0.0295  <S**2>=0.000
     168 ->177         0.18391
     168 ->179         0.20631
     168 ->181         0.27539
     168 ->185         0.14902
     169 ->177         0.19332
     169 ->179         0.21957
     169 ->181         0.28498
     169 ->185         0.15115
     170 ->177         0.10207
     170 ->181         0.13288

 Excited State   5:      Singlet-A      3.0010 eV  413.14 nm  f=0.6899  <S**2>=0.000
     170 ->177        -0.11976
     170 ->179         0.13203
     175 ->177        -0.29488
     176 ->178         0.46599
     176 ->179         0.29433

 The electronic state is 1-A.
 Alpha  occ. eigenvalues --   -1.86163  -1.83310  -1.80172  -1.74233  -1.72814
 Alpha  occ. eigenvalues --   -1.71775  -1.67320  -1.60013  -1.58880  -1.58510
 Alpha  occ. eigenvalues --   -1.55464  -1.51008  -1.48515  -1.47644  -1.47108
 Alpha  occ. eigenvalues --   -1.43828  -1.41527  -1.39858  -1.39383  -1.39096
 Alpha  occ. eigenvalues --   -1.36563  -1.35336  -1.33230  -1.32453  -1.31358
 Alpha  occ. eigenvalues --   -1.27021  -1.25645  -1.21467  -1.19910  -1.18633
 Alpha  occ. eigenvalues --   -1.17413  -1.16224  -1.15339  -1.14828  -1.12642
 Alpha  occ. eigenvalues --   -1.12500  -1.11259  -1.10618  -1.06671  -1.05367
 Alpha  occ. eigenvalues --   -1.03898  -1.02513  -0.99971  -0.97597  -0.97428
 Alpha  occ. eigenvalues --   -0.96712  -0.94435  -0.93839  -0.93367  -0.91936
 Alpha  occ. eigenvalues --   -0.90411  -0.89918  -0.88492  -0.87764  -0.86504
 Alpha  occ. eigenvalues --   -0.84235  -0.83569  -0.83390  -0.82399  -0.80592
 Alpha  occ. eigenvalues --   -0.80184  -0.79012  -0.77357  -0.76932  -0.76544
 Alpha  occ. eigenvalues --   -0.76223  -0.75648  -0.74829  -0.74497  -0.74257
 Alpha  occ. eigenvalues --   -0.74064  -0.72973  -0.72888  -0.71889  -0.71527
 Alpha  occ. eigenvalues --   -0.71072  -0.70566  -0.69057  -0.68409  -0.68247
 Alpha  occ. eigenvalues --   -0.67620  -0.67233  -0.66967  -0.66392  -0.65877
 Alpha  occ. eigenvalues --   -0.65845  -0.65197  -0.65131  -0.64528  -0.64200
 Alpha  occ. eigenvalues --   -0.63202  -0.62655  -0.62412  -0.62243  -0.61667
 Alpha  occ. eigenvalues --   -0.61491  -0.60994  -0.60852  -0.60192  -0.60108
 Alpha  occ. eigenvalues --   -0.59948  -0.59193  -0.58136  -0.58030  -0.57756
 Alpha  occ. eigenvalues --   -0.57393  -0.57289  -0.56796  -0.56586  -0.55949
 Alpha  occ. eigenvalues --   -0.55266  -0.55136  -0.55117  -0.54007  -0.53875
 Alpha  occ. eigenvalues --   -0.53736  -0.53308  -0.53069  -0.53023  -0.52582
 Alpha  occ. eigenvalues --   -0.52214  -0.51951  -0.51833  -0.51431  -0.51132
 Alpha  occ. eigenvalues --   -0.51010  -0.50788  -0.50554  -0.50294  -0.50166
 Alpha  occ. eigenvalues --   -0.50126  -0.49808  -0.49742  -0.49183  -0.48633
 Alpha  occ. eigenvalues --   -0.48577  -0.48440  -0.48348  -0.47979  -0.47694
 Alpha  occ. eigenvalues --   -0.47533  -0.47283  -0.47059  -0.46869  -0.46412
 Alpha  occ. eigenvalues --   -0.46326  -0.45744  -0.45683  -0.45295  -0.44967
 Alpha  occ. eigenvalues --   -0.44563  -0.44421  -0.44240  -0.43849  -0.43703
 Alpha  occ. eigenvalues --   -0.43479  -0.43025  -0.42620  -0.42476  -0.42403
 Alpha  occ. eigenvalues --   -0.41830  -0.41637  -0.41022  -0.39190  -0.38892
 Alpha  occ. eigenvalues --   -0.38277  -0.37201  -0.35396  -0.35063  -0.34853
 Alpha  occ. eigenvalues --   -0.33528  -0.32953  -0.32506  -0.30885  -0.26649
 Alpha  occ. eigenvalues --   -0.21985
 Alpha virt. eigenvalues --   -0.08814  -0.01987  -0.00729   0.00861   0.01225
 Alpha virt. eigenvalues --    0.01773   0.02841   0.03314   0.04909   0.05029
 Alpha virt. eigenvalues --    0.06282   0.07030   0.07388   0.07593   0.08164

 Mulliken charges:
               1
     1  Mg   0.429919
     2  C   -0.075739
     3  C   -0.080333
     4  C   -0.048630
     5  C   -0.037437
     6  N   -0.302259
     7  C    0.145512
     8  C    0.014756
     9  C    0.015350
    10  C    0.114530
    11  C   -0.057122
    12  C   -0.030608
    13  C    0.006337
    14  C    0.470377
    15  O   -0.544052
    16  O   -0.251308
    17  N   -0.322310
    18  C    0.106391
    19  C   -0.004134
    20  C   -0.049549
    21  C    0.135107
    22  C   -0.054891
    23  C    0.334041
    24  O   -0.532098
    25  C   -0.030452
    26  N   -0.245747
    27  C    0.136610
    28  C   -0.002827
    29  C   -0.009654
    30  C    0.130769
    31  C   -0.042046
    32  C   -0.027245
    33  C   -0.053596
    34  N   -0.326552
    35  C    0.083565
    36  C    0.073244
    37  C   -0.049788
    38  C    0.136609
    39  C   -0.031878
    40  C    0.332989
    41  O   -0.539142
    42  C    0.048716
    43  C    0.499407
    44  O   -0.529818
    45  O   -0.270889
    46  C    0.069289
    47  C    0.105871
    48  C   -0.094476
    49  C   -0.020695
    50  C   -0.041941
    51  C   -0.009784
    52  C   -0.028724
    53  C   -0.033742
    54  C   -0.018580
    55  C   -0.057334
    56  C   -0.036574
    57  C   -0.053935
    58  C   -0.016292
    59  C   -0.010728
    60  C   -0.071225
    61  C   -0.042967
    62  C   -0.037977
    63  C   -0.028995
    64  C   -0.015718
    65  C   -0.060691
    66  C   -0.063876
    67  H    0.015846
    68  H    0.035518
    69  H    0.015416
    70  H    0.038212
    71  H    0.025587
    72  H    0.027849
    73  H    0.025426
    74  H    0.020060
    75  H    0.036580
    76  H    0.028540
    77  H    0.046011
    78  H    0.036241
    79  H    0.022311
    80  H    0.037550
    81  H    0.039539
    82  H    0.031251
    83  H    0.029312
    84  H    0.048158
    85  H    0.029697
    86  H    0.025776
    87  H    0.033345
    88  H    0.022489
    89  H    0.023374
    90  H    0.021083
    91  H    0.025011
    92  H    0.008144
    93  H    0.017404
    94  H    0.017828
    95  H    0.045336
    96  H    0.033256
    97  H    0.022537
    98  H    0.054387
    99  H    0.029903
   100  H    0.041204
   101  H    0.055377
   102  H    0.064277
   103  H    0.043929
   104  H    0.024865
   105  H    0.022801
   106  H    0.032568
   107  H    0.018203
   108  H    0.028822
   109  H    0.017571
   110  H    0.005362
   111  H    0.031964
   112  H    0.013672
   113  H    0.010988
   114  H    0.012521
   115  H    0.017071
   116  H    0.026412
   117  H    0.028155
   118  H    0.006851
   119  H    0.007320
   120  H    0.022762
   121  H    0.026034
   122  H    0.021102
   123  H    0.017313
   124  H    0.033638
   125  H    0.011813
   126  H    0.029132
   127  H    0.014903
   128  H    0.030936
   129  H    0.012042
   130  H    0.022827
   131  H    0.011937
   132  H    0.011365
   133  H    0.025990
   134  H    0.022848
   135  H    0.014549
   136  H    0.015608
   137  H    0.029273
   138  H    0.021712
   139  H    0.014268
   140  H    0.016008
 Sum of Mulliken charges =  -0.00000

 Dipole moment (field-independent basis, Debye):
    X=              3.7348    Y=              3.0784    Z=             -0.3821  Tot=              4.8550
 N-N= 4.268358800595D+03 E-N= 0.000000000000D+00  KE=-9.211048368291D+03
 Leave Link  601 at Fri Apr 29 10:20:16 2022, MaxMem=  6710886400 cpu:               0.8 elap:               0.0
 (Enter /sw/apps/gaussian-16.0/g16/l9999.exe)
 1\1\GINC-BP1-COMPUTE148\SP\RZINDO CIS\STO-3G\C55H74Mg1N4O6\OF15641\29-
 Apr-2022\0\\#p ZINDO=(nstates=5)\\step_251_chromophore_13 ZINDO\\0,1\M
 g,0,46.817,25.044,28.063\C,0,47.435,27.224,30.704\C,0,46.222,22.545,30
 .243\C,0,46.683,22.915,25.441\C,0,47.912,27.51,25.916\N,0,46.855,24.93
 2,30.276\C,0,46.927,25.999,31.135\C,0,46.692,25.556,32.529\C,0,46.355,
 24.062,32.46\C,0,46.45,23.768,30.901\C,0,47.14,23.089,33.326\C,0,45.54
 8,26.464,33.259\C,0,45.965,27.28,34.505\C,0,45.045,27.4,35.695\O,0,43.

 Normal termination of Gaussian 16 at Fri Apr 29 10:20:16 2022.
