 Gaussian 16, Revision A.03,
 Gaussian 16:  ES64L-G16RevA.03 25-Dec-2016

 ------------------------------
 #p blyp/Def2SVP td=(nstates=5)
 ------------------------------

 --------------------------------------------------
 step_551_chromophore_16 TDDFT with blyp functional
 --------------------------------------------------
 Symbolic Z-matrix:
 Charge =  0 Multiplicity = 1

                         Standard orientation:
 ---------------------------------------------------------------------
 Center     Atomic      Atomic             Coordinates (Angstroms)
 Number     Number       Type             X           Y           Z
 ---------------------------------------------------------------------
      1         12           0        6.173794    0.582013    0.062315
      2          6           0        4.081190   -2.192693   -0.198596
      3          6           0        3.617299    2.505569   -0.835885
      4          6           0        8.400727    3.047968   -0.143710
      5          6           0        8.923401   -1.650614    0.850646
      6          7           0        4.060475    0.118124   -0.504234
      7          6           0        3.342457   -1.088878   -0.540320
      8          6           0        1.799650   -0.867985   -0.778749
      9          6           0        1.793332    0.690237   -0.961864
     10          6           0        3.225844    1.170121   -0.828335
     11          6           0        1.057976    1.130003   -2.322566
     12          6           0        0.843977   -1.408727    0.357113
     13          6           0       -0.599435   -1.012478    0.146274
     14          6           0       -1.685751   -1.934534    0.707709
     15          8           0       -1.653289   -2.459015    1.835550
     16          8           0       -2.689885   -2.179700   -0.208716
     17          7           0        5.962074    2.606309   -0.268954
     18          6           0        4.840139    3.188561   -0.583566
     19          6           0        5.072810    4.610361   -0.701226
     20          6           0        6.534031    4.780498   -0.511251
     21          6           0        7.027295    3.466050   -0.242745
     22          6           0        4.062562    5.702550   -0.998475
     23          6           0        7.348479    6.089715   -0.566637
     24          8           0        8.556332    6.087287   -0.291500
     25          6           0        6.680628    7.360561   -0.884045
     26          7           0        8.345380    0.686265    0.378977
     27          6           0        9.017866    1.854655    0.224903
     28          6           0       10.469551    1.670281    0.689508
     29          6           0       10.589827    0.151541    0.978060
     30          6           0        9.234797   -0.311775    0.674582
     31          6           0       11.563319    2.111800   -0.409266
     32          6           0       11.065333   -0.044121    2.475730
     33          6           0       10.051715   -0.534432    3.466577
     34          7           0        6.541209   -1.528916    0.125847
     35          6           0        7.696927   -2.283637    0.510533
     36          6           0        7.362782   -3.650303    0.608769
     37          6           0        5.967046   -3.652332    0.394206
     38          6           0        5.507434   -2.343723    0.064910
     39          6           0        8.204093   -4.690415    1.003941
     40          6           0        4.768025   -4.512441    0.390343
     41          8           0        4.642735   -5.677590    0.666241
     42          6           0        3.607096   -3.627159   -0.080271
     43          6           0        3.004814   -4.131154   -1.334837
     44          8           0        3.730333   -4.329451   -2.298331
     45          8           0        1.602237   -4.295016   -1.201324
     46          6           0        0.903406   -4.491838   -2.509343
     47          6           0       -3.920655   -2.852757    0.341470
     48          6           0       -5.080040   -2.180280   -0.324286
     49          6           0       -6.392595   -2.535567   -0.419462
     50          6           0       -6.970924   -3.814476    0.233657
     51          6           0       -7.384537   -1.492390   -0.891490
     52          6           0       -7.519323   -0.189137   -0.054548
     53          6           0       -8.941194    0.293967    0.444054
     54          6           0       -9.610252    1.462097   -0.319035
     55          6           0       -9.041259    2.801773    0.116054
     56          6           0      -11.192395    1.388121   -0.374724
     57          6           0      -11.682518    0.874294   -1.754001
     58          6           0      -13.129600    1.202534   -2.066065
     59          6           0      -14.177900    0.081913   -1.662343
     60          6           0      -14.864685   -0.611812   -2.855569
     61          6           0      -15.174650    0.787586   -0.685900
     62          6           0      -14.865146    0.676478    0.834817
     63          6           0      -14.610185    1.957640    1.596581
     64          6           0      -14.094313    1.536510    3.051114
     65          6           0      -12.627252    1.969713    3.388594
     66          6           0      -15.042000    2.041105    4.124351
     67          1           0        2.753050    3.121520   -1.094565
     68          1           0        9.213149    3.774589   -0.206976
     69          1           0        9.742965   -2.243090    1.262940
     70          1           0        1.632453   -1.510039   -1.644176
     71          1           0        1.187429    1.099735   -0.153472
     72          1           0        0.988090    0.300554   -3.026292
     73          1           0        1.635818    1.907363   -2.820861
     74          1           0        0.139756    1.652216   -2.053808
     75          1           0        1.161881   -0.935050    1.286526
     76          1           0        1.061893   -2.469843    0.481809
     77          1           0       -0.763755   -0.877337   -0.922747
     78          1           0       -0.626054   -0.057376    0.671168
     79          1           0        3.128485    5.236916   -1.310331
     80          1           0        4.257564    6.393564   -1.818607
     81          1           0        4.028305    6.246412   -0.053778
     82          1           0        6.239894    7.039293   -1.827626
     83          1           0        7.330263    8.150497   -1.262475
     84          1           0        5.904512    7.628507   -0.167456
     85          1           0       10.778667    2.172447    1.605612
     86          1           0       11.191459   -0.412197    0.264893
     87          1           0       11.154807    2.153223   -1.419373
     88          1           0       12.425706    1.445940   -0.432759
     89          1           0       11.880392    3.137590   -0.223582
     90          1           0       11.586061    0.853267    2.809895
     91          1           0       11.891666   -0.742534    2.340093
     92          1           0        9.003999   -0.379541    3.207609
     93          1           0       10.189301   -0.014960    4.415326
     94          1           0       10.184474   -1.583099    3.733510
     95          1           0        8.758825   -5.020716    0.125219
     96          1           0        7.645077   -5.484569    1.498562
     97          1           0        8.973081   -4.458489    1.739465
     98          1           0        2.794098   -3.731429    0.638124
     99          1           0        1.226970   -3.796258   -3.283550
    100          1           0       -0.161629   -4.288755   -2.390142
    101          1           0        1.170860   -5.493654   -2.845449
    102          1           0       -4.093333   -2.729774    1.410592
    103          1           0       -3.861317   -3.899896    0.044268
    104          1           0       -4.826141   -1.196218   -0.716516
    105          1           0       -6.200708   -4.295965    0.836991
    106          1           0       -7.278429   -4.417057   -0.620752
    107          1           0       -7.818578   -3.657894    0.899459
    108          1           0       -8.329259   -2.006920   -1.068435
    109          1           0       -7.036990   -1.264541   -1.899293
    110          1           0       -7.066708    0.602343   -0.652114
    111          1           0       -6.924926   -0.305604    0.852131
    112          1           0       -8.939549    0.506601    1.513556
    113          1           0       -9.619931   -0.551784    0.332494
    114          1           0       -9.247651    1.503591   -1.346405
    115          1           0       -8.460560    2.614836    1.018807
    116          1           0       -9.755495    3.595506    0.334597
    117          1           0       -8.421431    3.306108   -0.625623
    118          1           0      -11.592548    2.361895   -0.089614
    119          1           0      -11.553353    0.672721    0.363791
    120          1           0      -11.600186   -0.212473   -1.734585
    121          1           0      -10.941841    1.210083   -2.479131
    122          1           0      -13.293974    1.486856   -3.105521
    123          1           0      -13.357094    2.173342   -1.627068
    124          1           0      -13.660422   -0.616293   -1.004231
    125          1           0      -15.118941   -1.662311   -2.712610
    126          1           0      -14.136403   -0.710687   -3.660590
    127          1           0      -15.638719   -0.019899   -3.342259
    128          1           0      -16.158968    0.352094   -0.852727
    129          1           0      -15.225237    1.850792   -0.920748
    130          1           0      -14.020716   -0.003268    0.956953
    131          1           0      -15.708550    0.101988    1.218336
    132          1           0      -15.592682    2.424958    1.673965
    133          1           0      -13.865652    2.653061    1.208336
    134          1           0      -14.120825    0.448183    3.094205
    135          1           0      -12.128336    2.256476    2.462548
    136          1           0      -12.128619    1.138081    3.885047
    137          1           0      -12.607562    2.733287    4.166137
    138          1           0      -15.865356    1.331943    4.213725
    139          1           0      -15.332048    3.064740    3.887110
    140          1           0      -14.492983    2.026385    5.065555
 ---------------------------------------------------------------------

 SCF Done:  E(RB-LYP) =  -3007.36104084     A.U. after   21 cycles

 Excitation energies and oscillator strengths:

 Excited State   1:      Singlet-A      1.7411 eV  712.09 nm  f=0.0255  <S**2>=0.000
     244 -> 247        0.66902
     246 -> 247        0.21028
 This state for optimization and/or second-order correction.
 Total Energy, E(TD-HF/TD-DFT) =  -3007.29705515
 Copying the excited state density for this state as the 1-particle RhoCI density.

 Excited State   2:      Singlet-A      1.7696 eV  700.64 nm  f=0.0694  <S**2>=0.000
     243 -> 247        0.55375
     244 -> 247       -0.17001
     245 -> 247        0.14784
     246 -> 247        0.36855

 Excited State   3:      Singlet-A      1.8152 eV  683.04 nm  f=0.1853  <S**2>=0.000
     243 -> 247       -0.40864
     244 -> 247       -0.13408
     245 -> 248        0.14199
     246 -> 247        0.54588
     246 <- 247       -0.12293

 Excited State   4:      Singlet-A      1.9909 eV  622.74 nm  f=0.1384  <S**2>=0.000
     243 -> 247       -0.14014
     245 -> 247        0.64323
     246 -> 248       -0.19877
     245 <- 247       -0.10476

 Excited State   5:      Singlet-A      2.2394 eV  553.64 nm  f=0.0000  <S**2>=0.000
     241 -> 247        0.70705

 The electronic state is 1-A.
 Alpha  occ. eigenvalues --  -46.27639 -18.82796 -18.82711 -18.77076 -18.76855
 Alpha  occ. eigenvalues --  -18.75101 -18.74921 -14.03173 -14.02717 -14.01073
 Alpha  occ. eigenvalues --  -14.00255 -10.04680 -10.03838  -9.99852  -9.98663
 Alpha  occ. eigenvalues --   -9.98576  -9.98214  -9.96778  -9.96643  -9.96056
 Alpha  occ. eigenvalues --   -9.96028  -9.95769  -9.95384  -9.95307  -9.95053
 Alpha  occ. eigenvalues --   -9.94975  -9.94415  -9.94279  -9.94042  -9.93795
 Alpha  occ. eigenvalues --   -9.93730  -9.93318  -9.93314  -9.93199  -9.93171
 Alpha  occ. eigenvalues --   -9.92920  -9.92907  -9.92872  -9.92745  -9.92700
 Alpha  occ. eigenvalues --   -9.92583  -9.92508  -9.92484  -9.92309  -9.92255
 Alpha  occ. eigenvalues --   -9.92220  -9.92197  -9.92103  -9.92048  -9.91913
 Alpha  occ. eigenvalues --   -9.91842  -9.91823  -9.91691  -9.91579  -9.91499
 Alpha  occ. eigenvalues --   -9.91389  -9.91228  -9.91203  -9.91202  -9.90949
 Alpha  occ. eigenvalues --   -9.90920  -9.90859  -9.90664  -9.90531  -9.90448
 Alpha  occ. eigenvalues --   -9.90432  -2.92081  -1.72525  -1.71958  -1.71787
 Alpha  occ. eigenvalues --   -0.97037  -0.96350  -0.91504  -0.90442  -0.89991
 Alpha  occ. eigenvalues --   -0.88944  -0.87018  -0.85997  -0.85264  -0.84352
 Alpha  occ. eigenvalues --   -0.74851  -0.73525  -0.73149  -0.72823  -0.72770
 Alpha  occ. eigenvalues --   -0.71875  -0.71366  -0.71010  -0.70720  -0.70509
 Alpha  occ. eigenvalues --   -0.70055  -0.69158  -0.68043  -0.67269  -0.66895
 Alpha  occ. eigenvalues --   -0.66626  -0.66319  -0.65551  -0.65271  -0.64574
 Alpha  occ. eigenvalues --   -0.64438  -0.62766  -0.62472  -0.61702  -0.60845
 Alpha  occ. eigenvalues --   -0.60735  -0.59899  -0.59852  -0.59816  -0.59067
 Alpha  occ. eigenvalues --   -0.58488  -0.58015  -0.56736  -0.55682  -0.55266
 Alpha  occ. eigenvalues --   -0.54116  -0.53586  -0.52741  -0.52598  -0.51629
 Alpha  occ. eigenvalues --   -0.51038  -0.50803  -0.50674  -0.50321  -0.49995
 Alpha  occ. eigenvalues --   -0.49578  -0.49504  -0.48459  -0.47981  -0.46693
 Alpha  occ. eigenvalues --   -0.46463  -0.45968  -0.45647  -0.44991  -0.44091
 Alpha  occ. eigenvalues --   -0.43986  -0.43560  -0.43130  -0.42768  -0.42414
 Alpha  occ. eigenvalues --   -0.42011  -0.41758  -0.41496  -0.41277  -0.40874
 Alpha  occ. eigenvalues --   -0.40802  -0.40633  -0.40431  -0.40338  -0.40000
 Alpha  occ. eigenvalues --   -0.39935  -0.39907  -0.39495  -0.39442  -0.39299
 Alpha  occ. eigenvalues --   -0.39108  -0.38797  -0.38776  -0.38522  -0.38320
 Alpha  occ. eigenvalues --   -0.38137  -0.37976  -0.37838  -0.37611  -0.37432
 Alpha  occ. eigenvalues --   -0.37097  -0.36970  -0.36718  -0.36513  -0.36467
 Alpha  occ. eigenvalues --   -0.36385  -0.36230  -0.36043  -0.35855  -0.35632
 Alpha  occ. eigenvalues --   -0.35511  -0.35224  -0.35189  -0.35079  -0.34946
 Alpha  occ. eigenvalues --   -0.34527  -0.34244  -0.34204  -0.34086  -0.33907
 Alpha  occ. eigenvalues --   -0.33807  -0.33783  -0.33536  -0.33519  -0.33187
 Alpha  occ. eigenvalues --   -0.33037  -0.32811  -0.32722  -0.32324  -0.32274
 Alpha  occ. eigenvalues --   -0.32215  -0.32150  -0.31740  -0.31708  -0.31603
 Alpha  occ. eigenvalues --   -0.31165  -0.31012  -0.30798  -0.30732  -0.30579
 Alpha  occ. eigenvalues --   -0.30531  -0.30141  -0.30074  -0.29730  -0.29563
 Alpha  occ. eigenvalues --   -0.29533  -0.29449  -0.29350  -0.29287  -0.28999
 Alpha  occ. eigenvalues --   -0.28711  -0.28563  -0.28514  -0.28188  -0.27521
 Alpha  occ. eigenvalues --   -0.27332  -0.26900  -0.26885  -0.26745  -0.26618
 Alpha  occ. eigenvalues --   -0.26293  -0.26079  -0.26016  -0.25708  -0.25495
 Alpha  occ. eigenvalues --   -0.25399  -0.25293  -0.24833  -0.23800  -0.23512
 Alpha  occ. eigenvalues --   -0.23033  -0.22475  -0.21932  -0.21318  -0.20283
 Alpha  occ. eigenvalues --   -0.19956  -0.19836  -0.18241  -0.18040  -0.16994
 Alpha  occ. eigenvalues --   -0.15945
 Alpha virt. eigenvalues --   -0.11726  -0.06480  -0.05451  -0.04137  -0.03512
 Alpha virt. eigenvalues --   -0.03015  -0.02679  -0.02264  -0.01021  -0.00074
 Alpha virt. eigenvalues --    0.01110   0.01369   0.01888   0.02356   0.02450

 Mulliken charges:
               1
     1  Mg   0.670229
     2  C    0.055650
     3  C   -0.077528
     4  C   -0.012139
     5  C   -0.086671
     6  N   -0.256723
     7  C   -0.120967
     8  C    0.067453
     9  C   -0.009286
    10  C    0.051776
    11  C    0.116965
    12  C    0.081755
    13  C    0.141801
    14  C    0.096506
    15  O   -0.207882
    16  O   -0.285059
    17  N   -0.259088
    18  C    0.154641
    19  C   -0.154581
    20  C    0.004042
    21  C    0.109974
    22  C    0.160132
    23  C   -0.075298
    24  O   -0.175932
    25  C    0.171538
    26  N   -0.203203
    27  C    0.010319
    28  C    0.026452
    29  C    0.057116
    30  C   -0.038913
    31  C    0.081003
    32  C    0.079160
    33  C    0.088867
    34  N   -0.248670
    35  C    0.136817
    36  C   -0.132435
    37  C    0.050395
    38  C    0.068784
    39  C    0.170534
    40  C   -0.041514
    41  O   -0.104637
    42  C    0.053648
    43  C    0.106604
    44  O   -0.172452
    45  O   -0.302898
    46  C    0.218433
    47  C    0.330652
    48  C   -0.125985
    49  C   -0.177473
    50  C    0.126887
    51  C    0.144770
    52  C    0.098312
    53  C    0.100754
    54  C   -0.072589
    55  C    0.100080
    56  C    0.070185
    57  C    0.069319
    58  C    0.130949
    59  C   -0.064069
    60  C    0.131120
    61  C    0.118738
    62  C    0.016290
    63  C    0.137112
    64  C   -0.129890
    65  C    0.108840
    66  C    0.115197
    67  H   -0.077880
    68  H   -0.048390
    69  H   -0.065773
    70  H   -0.022479
    71  H   -0.013593
    72  H    0.001313
    73  H   -0.015866
    74  H   -0.006310
    75  H   -0.026842
    76  H    0.009900
    77  H   -0.008504
    78  H    0.008328
    79  H   -0.017855
    80  H    0.001833
    81  H    0.013230
    82  H   -0.008062
    83  H   -0.011976
    84  H    0.021297
    85  H   -0.008783
    86  H   -0.025057
    87  H   -0.007545
    88  H   -0.005620
    89  H    0.003112
    90  H   -0.020543
    91  H   -0.029739
    92  H    0.017355
    93  H   -0.019470
    94  H   -0.011461
    95  H    0.003292
    96  H    0.007593
    97  H   -0.019494
    98  H   -0.011623
    99  H    0.010044
   100  H    0.022891
   101  H    0.025799
   102  H    0.028462
   103  H    0.013834
   104  H   -0.034593
   105  H   -0.014149
   106  H    0.006682
   107  H    0.002946
   108  H   -0.044648
   109  H   -0.022280
   110  H   -0.026530
   111  H   -0.026223
   112  H   -0.025572
   113  H   -0.042358
   114  H   -0.039982
   115  H   -0.025193
   116  H   -0.026439
   117  H   -0.019735
   118  H   -0.019479
   119  H   -0.022289
   120  H   -0.030423
   121  H   -0.039130
   122  H   -0.052353
   123  H   -0.046551
   124  H   -0.040159
   125  H   -0.014081
   126  H   -0.034973
   127  H   -0.010693
   128  H   -0.052687
   129  H   -0.038295
   130  H   -0.029676
   131  H   -0.030395
   132  H   -0.032045
   133  H   -0.027730
   134  H   -0.034427
   135  H   -0.009188
   136  H   -0.019299
   137  H   -0.023366
   138  H   -0.018039
   139  H   -0.008104
   140  H   -0.027880
 Sum of Mulliken charges =  -0.00000

 Dipole moment (field-independent basis, Debye):
    X=             -3.5344    Y=              3.7819    Z=             -0.8933  Tot=              5.2528
 Quadrupole moment (field-independent basis, Debye-Ang):
   XX=           -380.6984   YY=           -433.7223   ZZ=           -406.0923
   XY=              7.0423   XZ=             19.0616   YZ=             -0.4961

 Normal termination of Gaussian 16 at Sat Apr 30 03:57:21 2022.
