 Gaussian 16, Revision A.03,
 Gaussian 16:  ES64L-G16RevA.03 25-Dec-2016

 -----------------------------------
 #p cam-b3lyp/Def2SVP td=(nstates=5)
 -----------------------------------

 -------------------------------------------------------
 step_551_chromophore_16 TDDFT with cam-b3lyp functional
 -------------------------------------------------------
 Symbolic Z-matrix:
 Charge =  0 Multiplicity = 1

                         Standard orientation:
 ---------------------------------------------------------------------
 Center     Atomic      Atomic             Coordinates (Angstroms)
 Number     Number       Type             X           Y           Z
 ---------------------------------------------------------------------
      1         12           0        6.173794    0.582013    0.062315
      2          6           0        4.081190   -2.192693   -0.198596
      3          6           0        3.617299    2.505569   -0.835885
      4          6           0        8.400727    3.047968   -0.143710
      5          6           0        8.923401   -1.650614    0.850646
      6          7           0        4.060475    0.118124   -0.504234
      7          6           0        3.342457   -1.088878   -0.540320
      8          6           0        1.799650   -0.867985   -0.778749
      9          6           0        1.793332    0.690237   -0.961864
     10          6           0        3.225844    1.170121   -0.828335
     11          6           0        1.057976    1.130003   -2.322566
     12          6           0        0.843977   -1.408727    0.357113
     13          6           0       -0.599435   -1.012478    0.146274
     14          6           0       -1.685751   -1.934534    0.707709
     15          8           0       -1.653289   -2.459015    1.835550
     16          8           0       -2.689885   -2.179700   -0.208716
     17          7           0        5.962074    2.606309   -0.268954
     18          6           0        4.840139    3.188561   -0.583566
     19          6           0        5.072810    4.610361   -0.701226
     20          6           0        6.534031    4.780498   -0.511251
     21          6           0        7.027295    3.466050   -0.242745
     22          6           0        4.062562    5.702550   -0.998475
     23          6           0        7.348479    6.089715   -0.566637
     24          8           0        8.556332    6.087287   -0.291500
     25          6           0        6.680628    7.360561   -0.884045
     26          7           0        8.345380    0.686265    0.378977
     27          6           0        9.017866    1.854655    0.224903
     28          6           0       10.469551    1.670281    0.689508
     29          6           0       10.589827    0.151541    0.978060
     30          6           0        9.234797   -0.311775    0.674582
     31          6           0       11.563319    2.111800   -0.409266
     32          6           0       11.065333   -0.044121    2.475730
     33          6           0       10.051715   -0.534432    3.466577
     34          7           0        6.541209   -1.528916    0.125847
     35          6           0        7.696927   -2.283637    0.510533
     36          6           0        7.362782   -3.650303    0.608769
     37          6           0        5.967046   -3.652332    0.394206
     38          6           0        5.507434   -2.343723    0.064910
     39          6           0        8.204093   -4.690415    1.003941
     40          6           0        4.768025   -4.512441    0.390343
     41          8           0        4.642735   -5.677590    0.666241
     42          6           0        3.607096   -3.627159   -0.080271
     43          6           0        3.004814   -4.131154   -1.334837
     44          8           0        3.730333   -4.329451   -2.298331
     45          8           0        1.602237   -4.295016   -1.201324
     46          6           0        0.903406   -4.491838   -2.509343
     47          6           0       -3.920655   -2.852757    0.341470
     48          6           0       -5.080040   -2.180280   -0.324286
     49          6           0       -6.392595   -2.535567   -0.419462
     50          6           0       -6.970924   -3.814476    0.233657
     51          6           0       -7.384537   -1.492390   -0.891490
     52          6           0       -7.519323   -0.189137   -0.054548
     53          6           0       -8.941194    0.293967    0.444054
     54          6           0       -9.610252    1.462097   -0.319035
     55          6           0       -9.041259    2.801773    0.116054
     56          6           0      -11.192395    1.388121   -0.374724
     57          6           0      -11.682518    0.874294   -1.754001
     58          6           0      -13.129600    1.202534   -2.066065
     59          6           0      -14.177900    0.081913   -1.662343
     60          6           0      -14.864685   -0.611812   -2.855569
     61          6           0      -15.174650    0.787586   -0.685900
     62          6           0      -14.865146    0.676478    0.834817
     63          6           0      -14.610185    1.957640    1.596581
     64          6           0      -14.094313    1.536510    3.051114
     65          6           0      -12.627252    1.969713    3.388594
     66          6           0      -15.042000    2.041105    4.124351
     67          1           0        2.753050    3.121520   -1.094565
     68          1           0        9.213149    3.774589   -0.206976
     69          1           0        9.742965   -2.243090    1.262940
     70          1           0        1.632453   -1.510039   -1.644176
     71          1           0        1.187429    1.099735   -0.153472
     72          1           0        0.988090    0.300554   -3.026292
     73          1           0        1.635818    1.907363   -2.820861
     74          1           0        0.139756    1.652216   -2.053808
     75          1           0        1.161881   -0.935050    1.286526
     76          1           0        1.061893   -2.469843    0.481809
     77          1           0       -0.763755   -0.877337   -0.922747
     78          1           0       -0.626054   -0.057376    0.671168
     79          1           0        3.128485    5.236916   -1.310331
     80          1           0        4.257564    6.393564   -1.818607
     81          1           0        4.028305    6.246412   -0.053778
     82          1           0        6.239894    7.039293   -1.827626
     83          1           0        7.330263    8.150497   -1.262475
     84          1           0        5.904512    7.628507   -0.167456
     85          1           0       10.778667    2.172447    1.605612
     86          1           0       11.191459   -0.412197    0.264893
     87          1           0       11.154807    2.153223   -1.419373
     88          1           0       12.425706    1.445940   -0.432759
     89          1           0       11.880392    3.137590   -0.223582
     90          1           0       11.586061    0.853267    2.809895
     91          1           0       11.891666   -0.742534    2.340093
     92          1           0        9.003999   -0.379541    3.207609
     93          1           0       10.189301   -0.014960    4.415326
     94          1           0       10.184474   -1.583099    3.733510
     95          1           0        8.758825   -5.020716    0.125219
     96          1           0        7.645077   -5.484569    1.498562
     97          1           0        8.973081   -4.458489    1.739465
     98          1           0        2.794098   -3.731429    0.638124
     99          1           0        1.226970   -3.796258   -3.283550
    100          1           0       -0.161629   -4.288755   -2.390142
    101          1           0        1.170860   -5.493654   -2.845449
    102          1           0       -4.093333   -2.729774    1.410592
    103          1           0       -3.861317   -3.899896    0.044268
    104          1           0       -4.826141   -1.196218   -0.716516
    105          1           0       -6.200708   -4.295965    0.836991
    106          1           0       -7.278429   -4.417057   -0.620752
    107          1           0       -7.818578   -3.657894    0.899459
    108          1           0       -8.329259   -2.006920   -1.068435
    109          1           0       -7.036990   -1.264541   -1.899293
    110          1           0       -7.066708    0.602343   -0.652114
    111          1           0       -6.924926   -0.305604    0.852131
    112          1           0       -8.939549    0.506601    1.513556
    113          1           0       -9.619931   -0.551784    0.332494
    114          1           0       -9.247651    1.503591   -1.346405
    115          1           0       -8.460560    2.614836    1.018807
    116          1           0       -9.755495    3.595506    0.334597
    117          1           0       -8.421431    3.306108   -0.625623
    118          1           0      -11.592548    2.361895   -0.089614
    119          1           0      -11.553353    0.672721    0.363791
    120          1           0      -11.600186   -0.212473   -1.734585
    121          1           0      -10.941841    1.210083   -2.479131
    122          1           0      -13.293974    1.486856   -3.105521
    123          1           0      -13.357094    2.173342   -1.627068
    124          1           0      -13.660422   -0.616293   -1.004231
    125          1           0      -15.118941   -1.662311   -2.712610
    126          1           0      -14.136403   -0.710687   -3.660590
    127          1           0      -15.638719   -0.019899   -3.342259
    128          1           0      -16.158968    0.352094   -0.852727
    129          1           0      -15.225237    1.850792   -0.920748
    130          1           0      -14.020716   -0.003268    0.956953
    131          1           0      -15.708550    0.101988    1.218336
    132          1           0      -15.592682    2.424958    1.673965
    133          1           0      -13.865652    2.653061    1.208336
    134          1           0      -14.120825    0.448183    3.094205
    135          1           0      -12.128336    2.256476    2.462548
    136          1           0      -12.128619    1.138081    3.885047
    137          1           0      -12.607562    2.733287    4.166137
    138          1           0      -15.865356    1.331943    4.213725
    139          1           0      -15.332048    3.064740    3.887110
    140          1           0      -14.492983    2.026385    5.065555
 ---------------------------------------------------------------------

 SCF Done:  E(RCAM-B3LYP) =  -3007.14945293     A.U. after   19 cycles

 Excitation energies and oscillator strengths:

 Excited State   1:      Singlet-A      1.6776 eV  739.06 nm  f=0.3682  <S**2>=0.000
     245 -> 248        0.16828
     246 -> 247        0.68785
     245 <- 248        0.10559
 This state for optimization and/or second-order correction.
 Total Energy, E(TD-HF/TD-DFT) =  -3007.08780259
 Copying the excited state density for this state as the 1-particle RhoCI density.

 Excited State   2:      Singlet-A      2.1516 eV  576.25 nm  f=0.1900  <S**2>=0.000
     245 -> 247        0.66288
     246 -> 248       -0.23309

 Excited State   3:      Singlet-A      3.1391 eV  394.97 nm  f=0.0101  <S**2>=0.000
     243 -> 247       -0.10097
     244 -> 247        0.68477

 Excited State   4:      Singlet-A      3.3260 eV  372.77 nm  f=0.0038  <S**2>=0.000
     243 -> 247        0.67030
     246 -> 248        0.10648

 Excited State   5:      Singlet-A      3.4092 eV  363.68 nm  f=0.0004  <S**2>=0.000
     241 -> 247        0.62786
     241 -> 249       -0.18846
     241 -> 251       -0.18679

 The electronic state is 1-A.
 Alpha  occ. eigenvalues --  -46.89241 -19.25703 -19.25685 -19.20171 -19.19832
 Alpha  occ. eigenvalues --  -19.18380 -19.18039 -14.41894 -14.41825 -14.39522
 Alpha  occ. eigenvalues --  -14.38660 -10.40058 -10.39308 -10.35113 -10.33773
 Alpha  occ. eigenvalues --  -10.32748 -10.32279 -10.31335 -10.31155 -10.30524
 Alpha  occ. eigenvalues --  -10.30419 -10.30091 -10.29715 -10.29440 -10.29180
 Alpha  occ. eigenvalues --  -10.29095 -10.28761 -10.28650 -10.28264 -10.27837
 Alpha  occ. eigenvalues --  -10.27782 -10.27334 -10.27252 -10.27234 -10.27201
 Alpha  occ. eigenvalues --  -10.27001 -10.26866 -10.26830 -10.26810 -10.26789
 Alpha  occ. eigenvalues --  -10.26772 -10.26636 -10.26516 -10.26420 -10.26171
 Alpha  occ. eigenvalues --  -10.26026 -10.26014 -10.25929 -10.25831 -10.25788
 Alpha  occ. eigenvalues --  -10.25649 -10.25553 -10.25328 -10.25263 -10.25125
 Alpha  occ. eigenvalues --  -10.25118 -10.24894 -10.24844 -10.24817 -10.24613
 Alpha  occ. eigenvalues --  -10.24590 -10.24496 -10.24481 -10.24255 -10.24108
 Alpha  occ. eigenvalues --  -10.24105  -3.17581  -1.92505  -1.92024  -1.91879
 Alpha  occ. eigenvalues --   -1.15431  -1.14860  -1.09882  -1.08880  -1.07913
 Alpha  occ. eigenvalues --   -1.06771  -1.04721  -1.03750  -1.02891  -1.01852
 Alpha  occ. eigenvalues --   -0.91930  -0.90383  -0.89961  -0.89584  -0.89566
 Alpha  occ. eigenvalues --   -0.88568  -0.87992  -0.87610  -0.87297  -0.87091
 Alpha  occ. eigenvalues --   -0.86797  -0.85485  -0.84269  -0.83455  -0.83015
 Alpha  occ. eigenvalues --   -0.82695  -0.82578  -0.81523  -0.81181  -0.80342
 Alpha  occ. eigenvalues --   -0.80208  -0.78458  -0.78122  -0.77255  -0.76243
 Alpha  occ. eigenvalues --   -0.76151  -0.75213  -0.75163  -0.75153  -0.74328
 Alpha  occ. eigenvalues --   -0.73553  -0.73023  -0.71630  -0.70472  -0.69927
 Alpha  occ. eigenvalues --   -0.68698  -0.68149  -0.67204  -0.67066  -0.65759
 Alpha  occ. eigenvalues --   -0.65155  -0.64905  -0.64851  -0.64235  -0.64073
 Alpha  occ. eigenvalues --   -0.63526  -0.63258  -0.62384  -0.61687  -0.60396
 Alpha  occ. eigenvalues --   -0.60075  -0.59449  -0.59060  -0.58350  -0.57686
 Alpha  occ. eigenvalues --   -0.57356  -0.56849  -0.56218  -0.56065  -0.55478
 Alpha  occ. eigenvalues --   -0.55069  -0.54872  -0.54374  -0.54153  -0.53863
 Alpha  occ. eigenvalues --   -0.53532  -0.53443  -0.53337  -0.52942  -0.52851
 Alpha  occ. eigenvalues --   -0.52624  -0.52496  -0.52144  -0.51940  -0.51809
 Alpha  occ. eigenvalues --   -0.51627  -0.51519  -0.51226  -0.51019  -0.50869
 Alpha  occ. eigenvalues --   -0.50433  -0.50399  -0.50238  -0.50126  -0.49750
 Alpha  occ. eigenvalues --   -0.49599  -0.49404  -0.48999  -0.48782  -0.48678
 Alpha  occ. eigenvalues --   -0.48573  -0.48458  -0.48354  -0.48278  -0.48010
 Alpha  occ. eigenvalues --   -0.47533  -0.47393  -0.47083  -0.47043  -0.46959
 Alpha  occ. eigenvalues --   -0.46373  -0.46144  -0.46090  -0.45874  -0.45742
 Alpha  occ. eigenvalues --   -0.45566  -0.45507  -0.45369  -0.45207  -0.44988
 Alpha  occ. eigenvalues --   -0.44716  -0.44544  -0.44493  -0.44209  -0.44082
 Alpha  occ. eigenvalues --   -0.43734  -0.43689  -0.43620  -0.43565  -0.43358
 Alpha  occ. eigenvalues --   -0.42743  -0.42590  -0.42457  -0.42120  -0.42079
 Alpha  occ. eigenvalues --   -0.41783  -0.41406  -0.41335  -0.41066  -0.40880
 Alpha  occ. eigenvalues --   -0.40854  -0.40653  -0.40582  -0.40422  -0.40316
 Alpha  occ. eigenvalues --   -0.39825  -0.39594  -0.39552  -0.39131  -0.38401
 Alpha  occ. eigenvalues --   -0.38163  -0.37851  -0.37713  -0.37574  -0.37393
 Alpha  occ. eigenvalues --   -0.37346  -0.37128  -0.37061  -0.36959  -0.36584
 Alpha  occ. eigenvalues --   -0.36401  -0.35914  -0.35316  -0.34261  -0.34240
 Alpha  occ. eigenvalues --   -0.34210  -0.33991  -0.32808  -0.31041  -0.30632
 Alpha  occ. eigenvalues --   -0.30050  -0.29630  -0.29585  -0.28970  -0.23646
 Alpha  occ. eigenvalues --   -0.21409
 Alpha virt. eigenvalues --   -0.09076  -0.01108   0.01067   0.02622   0.02958
 Alpha virt. eigenvalues --    0.04338   0.04887   0.05214   0.05543   0.06314
 Alpha virt. eigenvalues --    0.07951   0.08195   0.08456   0.08512   0.08544

 Mulliken charges:
               1
     1  Mg   0.801999
     2  C    0.020871
     3  C   -0.094501
     4  C   -0.026523
     5  C   -0.088276
     6  N   -0.329657
     7  C   -0.076473
     8  C    0.031492
     9  C   -0.072509
    10  C    0.077192
    11  C    0.058476
    12  C    0.035706
    13  C    0.066809
    14  C    0.182336
    15  O   -0.249348
    16  O   -0.351086
    17  N   -0.352713
    18  C    0.166496
    19  C   -0.162875
    20  C   -0.060099
    21  C    0.133183
    22  C    0.104933
    23  C    0.006925
    24  O   -0.216646
    25  C    0.083197
    26  N   -0.268561
    27  C    0.027708
    28  C   -0.031521
    29  C   -0.002845
    30  C   -0.020499
    31  C    0.027213
    32  C    0.024523
    33  C    0.020220
    34  N   -0.336657
    35  C    0.141134
    36  C   -0.125947
    37  C   -0.030921
    38  C    0.113491
    39  C    0.106594
    40  C    0.063815
    41  O   -0.144913
    42  C   -0.028602
    43  C    0.196696
    44  O   -0.208357
    45  O   -0.368698
    46  C    0.176838
    47  C    0.297540
    48  C   -0.147251
    49  C   -0.197874
    50  C    0.067400
    51  C    0.086725
    52  C    0.039152
    53  C    0.051198
    54  C   -0.128860
    55  C    0.042206
    56  C    0.024651
    57  C    0.018808
    58  C    0.073067
    59  C   -0.121245
    60  C    0.069335
    61  C    0.065158
    62  C   -0.033297
    63  C    0.079935
    64  C   -0.185347
    65  C    0.052444
    66  C    0.055366
    67  H   -0.045915
    68  H   -0.007863
    69  H   -0.027842
    70  H    0.007781
    71  H    0.020305
    72  H    0.026028
    73  H    0.010835
    74  H    0.017813
    75  H    0.005284
    76  H    0.038033
    77  H    0.024869
    78  H    0.038407
    79  H    0.009489
    80  H    0.028546
    81  H    0.038106
    82  H    0.017764
    83  H    0.024791
    84  H    0.049088
    85  H    0.025337
    86  H    0.011133
    87  H    0.017824
    88  H    0.018273
    89  H    0.026120
    90  H    0.008161
    91  H    0.000152
    92  H    0.040716
    93  H    0.007374
    94  H    0.012300
    95  H    0.031710
    96  H    0.036202
    97  H    0.006852
    98  H    0.032839
    99  H    0.032093
   100  H    0.045924
   101  H    0.050795
   102  H    0.058414
   103  H    0.040305
   104  H   -0.000287
   105  H    0.008923
   106  H    0.030099
   107  H    0.026727
   108  H   -0.014307
   109  H    0.008734
   110  H    0.000412
   111  H    0.004669
   112  H    0.002468
   113  H   -0.014910
   114  H   -0.008230
   115  H   -0.001043
   116  H   -0.001316
   117  H    0.004337
   118  H    0.002956
   119  H    0.000030
   120  H   -0.004807
   121  H   -0.009046
   122  H   -0.020099
   123  H   -0.017664
   124  H   -0.008853
   125  H    0.011559
   126  H   -0.009441
   127  H    0.013171
   128  H   -0.020514
   129  H   -0.009910
   130  H   -0.005707
   131  H   -0.001319
   132  H   -0.002375
   133  H   -0.002061
   134  H   -0.002502
   135  H    0.008826
   136  H    0.004816
   137  H    0.002080
   138  H    0.006230
   139  H    0.014734
   140  H   -0.003161
 Sum of Mulliken charges =  -0.00000

 Dipole moment (field-independent basis, Debye):
    X=             -3.5605    Y=              4.3819    Z=             -0.9915  Tot=              5.7324
 Quadrupole moment (field-independent basis, Debye-Ang):
   XX=           -377.4630   YY=           -430.6332   ZZ=           -405.9359
   XY=              9.4257   XZ=             19.6527   YZ=             -1.4378

 Normal termination of Gaussian 16 at Sat Apr 30 02:33:36 2022.
