 Gaussian 16, Revision A.03,
 Gaussian 16:  ES64L-G16RevA.03 25-Dec-2016

 ---------------------------------
 #p PBE1PBE/Def2SVP td=(nstates=5)
 ---------------------------------

 -----------------------------------------------------
 step_551_chromophore_16 TDDFT with PBE1PBE functional
 -----------------------------------------------------
 Symbolic Z-matrix:
 Charge =  0 Multiplicity = 1

                         Standard orientation:
 ---------------------------------------------------------------------
 Center     Atomic      Atomic             Coordinates (Angstroms)
 Number     Number       Type             X           Y           Z
 ---------------------------------------------------------------------
      1         12           0        6.173794    0.582013    0.062315
      2          6           0        4.081190   -2.192693   -0.198596
      3          6           0        3.617299    2.505569   -0.835885
      4          6           0        8.400727    3.047968   -0.143710
      5          6           0        8.923401   -1.650614    0.850646
      6          7           0        4.060475    0.118124   -0.504234
      7          6           0        3.342457   -1.088878   -0.540320
      8          6           0        1.799650   -0.867985   -0.778749
      9          6           0        1.793332    0.690237   -0.961864
     10          6           0        3.225844    1.170121   -0.828335
     11          6           0        1.057976    1.130003   -2.322566
     12          6           0        0.843977   -1.408727    0.357113
     13          6           0       -0.599435   -1.012478    0.146274
     14          6           0       -1.685751   -1.934534    0.707709
     15          8           0       -1.653289   -2.459015    1.835550
     16          8           0       -2.689885   -2.179700   -0.208716
     17          7           0        5.962074    2.606309   -0.268954
     18          6           0        4.840139    3.188561   -0.583566
     19          6           0        5.072810    4.610361   -0.701226
     20          6           0        6.534031    4.780498   -0.511251
     21          6           0        7.027295    3.466050   -0.242745
     22          6           0        4.062562    5.702550   -0.998475
     23          6           0        7.348479    6.089715   -0.566637
     24          8           0        8.556332    6.087287   -0.291500
     25          6           0        6.680628    7.360561   -0.884045
     26          7           0        8.345380    0.686265    0.378977
     27          6           0        9.017866    1.854655    0.224903
     28          6           0       10.469551    1.670281    0.689508
     29          6           0       10.589827    0.151541    0.978060
     30          6           0        9.234797   -0.311775    0.674582
     31          6           0       11.563319    2.111800   -0.409266
     32          6           0       11.065333   -0.044121    2.475730
     33          6           0       10.051715   -0.534432    3.466577
     34          7           0        6.541209   -1.528916    0.125847
     35          6           0        7.696927   -2.283637    0.510533
     36          6           0        7.362782   -3.650303    0.608769
     37          6           0        5.967046   -3.652332    0.394206
     38          6           0        5.507434   -2.343723    0.064910
     39          6           0        8.204093   -4.690415    1.003941
     40          6           0        4.768025   -4.512441    0.390343
     41          8           0        4.642735   -5.677590    0.666241
     42          6           0        3.607096   -3.627159   -0.080271
     43          6           0        3.004814   -4.131154   -1.334837
     44          8           0        3.730333   -4.329451   -2.298331
     45          8           0        1.602237   -4.295016   -1.201324
     46          6           0        0.903406   -4.491838   -2.509343
     47          6           0       -3.920655   -2.852757    0.341470
     48          6           0       -5.080040   -2.180280   -0.324286
     49          6           0       -6.392595   -2.535567   -0.419462
     50          6           0       -6.970924   -3.814476    0.233657
     51          6           0       -7.384537   -1.492390   -0.891490
     52          6           0       -7.519323   -0.189137   -0.054548
     53          6           0       -8.941194    0.293967    0.444054
     54          6           0       -9.610252    1.462097   -0.319035
     55          6           0       -9.041259    2.801773    0.116054
     56          6           0      -11.192395    1.388121   -0.374724
     57          6           0      -11.682518    0.874294   -1.754001
     58          6           0      -13.129600    1.202534   -2.066065
     59          6           0      -14.177900    0.081913   -1.662343
     60          6           0      -14.864685   -0.611812   -2.855569
     61          6           0      -15.174650    0.787586   -0.685900
     62          6           0      -14.865146    0.676478    0.834817
     63          6           0      -14.610185    1.957640    1.596581
     64          6           0      -14.094313    1.536510    3.051114
     65          6           0      -12.627252    1.969713    3.388594
     66          6           0      -15.042000    2.041105    4.124351
     67          1           0        2.753050    3.121520   -1.094565
     68          1           0        9.213149    3.774589   -0.206976
     69          1           0        9.742965   -2.243090    1.262940
     70          1           0        1.632453   -1.510039   -1.644176
     71          1           0        1.187429    1.099735   -0.153472
     72          1           0        0.988090    0.300554   -3.026292
     73          1           0        1.635818    1.907363   -2.820861
     74          1           0        0.139756    1.652216   -2.053808
     75          1           0        1.161881   -0.935050    1.286526
     76          1           0        1.061893   -2.469843    0.481809
     77          1           0       -0.763755   -0.877337   -0.922747
     78          1           0       -0.626054   -0.057376    0.671168
     79          1           0        3.128485    5.236916   -1.310331
     80          1           0        4.257564    6.393564   -1.818607
     81          1           0        4.028305    6.246412   -0.053778
     82          1           0        6.239894    7.039293   -1.827626
     83          1           0        7.330263    8.150497   -1.262475
     84          1           0        5.904512    7.628507   -0.167456
     85          1           0       10.778667    2.172447    1.605612
     86          1           0       11.191459   -0.412197    0.264893
     87          1           0       11.154807    2.153223   -1.419373
     88          1           0       12.425706    1.445940   -0.432759
     89          1           0       11.880392    3.137590   -0.223582
     90          1           0       11.586061    0.853267    2.809895
     91          1           0       11.891666   -0.742534    2.340093
     92          1           0        9.003999   -0.379541    3.207609
     93          1           0       10.189301   -0.014960    4.415326
     94          1           0       10.184474   -1.583099    3.733510
     95          1           0        8.758825   -5.020716    0.125219
     96          1           0        7.645077   -5.484569    1.498562
     97          1           0        8.973081   -4.458489    1.739465
     98          1           0        2.794098   -3.731429    0.638124
     99          1           0        1.226970   -3.796258   -3.283550
    100          1           0       -0.161629   -4.288755   -2.390142
    101          1           0        1.170860   -5.493654   -2.845449
    102          1           0       -4.093333   -2.729774    1.410592
    103          1           0       -3.861317   -3.899896    0.044268
    104          1           0       -4.826141   -1.196218   -0.716516
    105          1           0       -6.200708   -4.295965    0.836991
    106          1           0       -7.278429   -4.417057   -0.620752
    107          1           0       -7.818578   -3.657894    0.899459
    108          1           0       -8.329259   -2.006920   -1.068435
    109          1           0       -7.036990   -1.264541   -1.899293
    110          1           0       -7.066708    0.602343   -0.652114
    111          1           0       -6.924926   -0.305604    0.852131
    112          1           0       -8.939549    0.506601    1.513556
    113          1           0       -9.619931   -0.551784    0.332494
    114          1           0       -9.247651    1.503591   -1.346405
    115          1           0       -8.460560    2.614836    1.018807
    116          1           0       -9.755495    3.595506    0.334597
    117          1           0       -8.421431    3.306108   -0.625623
    118          1           0      -11.592548    2.361895   -0.089614
    119          1           0      -11.553353    0.672721    0.363791
    120          1           0      -11.600186   -0.212473   -1.734585
    121          1           0      -10.941841    1.210083   -2.479131
    122          1           0      -13.293974    1.486856   -3.105521
    123          1           0      -13.357094    2.173342   -1.627068
    124          1           0      -13.660422   -0.616293   -1.004231
    125          1           0      -15.118941   -1.662311   -2.712610
    126          1           0      -14.136403   -0.710687   -3.660590
    127          1           0      -15.638719   -0.019899   -3.342259
    128          1           0      -16.158968    0.352094   -0.852727
    129          1           0      -15.225237    1.850792   -0.920748
    130          1           0      -14.020716   -0.003268    0.956953
    131          1           0      -15.708550    0.101988    1.218336
    132          1           0      -15.592682    2.424958    1.673965
    133          1           0      -13.865652    2.653061    1.208336
    134          1           0      -14.120825    0.448183    3.094205
    135          1           0      -12.128336    2.256476    2.462548
    136          1           0      -12.128619    1.138081    3.885047
    137          1           0      -12.607562    2.733287    4.166137
    138          1           0      -15.865356    1.331943    4.213725
    139          1           0      -15.332048    3.064740    3.887110
    140          1           0      -14.492983    2.026385    5.065555
 ---------------------------------------------------------------------

 SCF Done:  E(RPBE1PBE) =  -3005.33886654     A.U. after   16 cycles

 Excitation energies and oscillator strengths:

 Excited State   1:      Singlet-A      1.8405 eV  673.65 nm  f=0.3470  <S**2>=0.000
     245 -> 248       -0.15990
     246 -> 247        0.69498
     246 <- 247       -0.11175
 This state for optimization and/or second-order correction.
 Total Energy, E(TD-HF/TD-DFT) =  -3005.27123008
 Copying the excited state density for this state as the 1-particle RhoCI density.

 Excited State   2:      Singlet-A      2.1723 eV  570.76 nm  f=0.1795  <S**2>=0.000
     245 -> 247        0.66858
     246 -> 248        0.21539

 Excited State   3:      Singlet-A      2.7630 eV  448.73 nm  f=0.0043  <S**2>=0.000
     242 -> 247        0.22667
     244 -> 247        0.64919

 Excited State   4:      Singlet-A      2.8638 eV  432.94 nm  f=0.0054  <S**2>=0.000
     242 -> 247        0.65355
     244 -> 247       -0.23801

 Excited State   5:      Singlet-A      2.9511 eV  420.13 nm  f=0.0063  <S**2>=0.000
     240 -> 247        0.28439
     241 -> 247        0.61863

 The electronic state is 1-A.
 Alpha  occ. eigenvalues --  -46.92620 -19.26434 -19.26367 -19.20391 -19.20167
 Alpha  occ. eigenvalues --  -19.18573 -19.18288 -14.41581 -14.41187 -14.39131
 Alpha  occ. eigenvalues --  -14.38330 -10.37148 -10.36354 -10.32223 -10.30950
 Alpha  occ. eigenvalues --  -10.30181 -10.29491 -10.29108 -10.28849 -10.28209
 Alpha  occ. eigenvalues --  -10.28115 -10.27712 -10.27448 -10.27294 -10.26954
 Alpha  occ. eigenvalues --  -10.26924 -10.26443 -10.26396 -10.25781 -10.25771
 Alpha  occ. eigenvalues --  -10.25603 -10.25029 -10.24908 -10.24888 -10.24687
 Alpha  occ. eigenvalues --  -10.24616 -10.24582 -10.24510 -10.24459 -10.24448
 Alpha  occ. eigenvalues --  -10.24341 -10.24287 -10.24043 -10.23807 -10.23734
 Alpha  occ. eigenvalues --  -10.23590 -10.23485 -10.23436 -10.23399 -10.23364
 Alpha  occ. eigenvalues --  -10.23286 -10.23135 -10.23015 -10.22686 -10.22671
 Alpha  occ. eigenvalues --  -10.22517 -10.22447 -10.22371 -10.22299 -10.22209
 Alpha  occ. eigenvalues --  -10.22167 -10.22141 -10.21874 -10.21681 -10.21650
 Alpha  occ. eigenvalues --  -10.21479  -3.14548  -1.87412  -1.86910  -1.86767
 Alpha  occ. eigenvalues --   -1.10276  -1.09589  -1.04673  -1.03567  -1.02741
 Alpha  occ. eigenvalues --   -1.01668  -0.99403  -0.98328  -0.97542  -0.96517
 Alpha  occ. eigenvalues --   -0.86297  -0.84546  -0.84137  -0.83867  -0.83672
 Alpha  occ. eigenvalues --   -0.82680  -0.82343  -0.81946  -0.81422  -0.81388
 Alpha  occ. eigenvalues --   -0.80995  -0.79766  -0.78480  -0.77707  -0.77271
 Alpha  occ. eigenvalues --   -0.76913  -0.76756  -0.75795  -0.75376  -0.74651
 Alpha  occ. eigenvalues --   -0.74420  -0.72812  -0.72410  -0.71555  -0.70541
 Alpha  occ. eigenvalues --   -0.70353  -0.69484  -0.69354  -0.69243  -0.68498
 Alpha  occ. eigenvalues --   -0.68026  -0.67378  -0.66011  -0.64845  -0.64243
 Alpha  occ. eigenvalues --   -0.63001  -0.62518  -0.61636  -0.61315  -0.60237
 Alpha  occ. eigenvalues --   -0.59626  -0.59495  -0.59049  -0.58821  -0.58163
 Alpha  occ. eigenvalues --   -0.57823  -0.57681  -0.56593  -0.56259  -0.54920
 Alpha  occ. eigenvalues --   -0.54519  -0.54058  -0.53565  -0.52987  -0.52118
 Alpha  occ. eigenvalues --   -0.51854  -0.51371  -0.50842  -0.50629  -0.50002
 Alpha  occ. eigenvalues --   -0.49550  -0.49491  -0.48872  -0.48673  -0.48357
 Alpha  occ. eigenvalues --   -0.47944  -0.47868  -0.47701  -0.47503  -0.47382
 Alpha  occ. eigenvalues --   -0.47204  -0.47040  -0.46675  -0.46572  -0.46275
 Alpha  occ. eigenvalues --   -0.46141  -0.46092  -0.45781  -0.45566  -0.45447
 Alpha  occ. eigenvalues --   -0.45028  -0.44894  -0.44834  -0.44684  -0.44339
 Alpha  occ. eigenvalues --   -0.44135  -0.44036  -0.43637  -0.43364  -0.43282
 Alpha  occ. eigenvalues --   -0.43178  -0.43074  -0.42970  -0.42927  -0.42691
 Alpha  occ. eigenvalues --   -0.42169  -0.41978  -0.41770  -0.41719  -0.41580
 Alpha  occ. eigenvalues --   -0.41054  -0.40908  -0.40836  -0.40585  -0.40424
 Alpha  occ. eigenvalues --   -0.40291  -0.40156  -0.40101  -0.39798  -0.39735
 Alpha  occ. eigenvalues --   -0.39502  -0.39309  -0.39256  -0.39002  -0.38866
 Alpha  occ. eigenvalues --   -0.38505  -0.38371  -0.38351  -0.38313  -0.38115
 Alpha  occ. eigenvalues --   -0.37613  -0.37453  -0.37273  -0.36968  -0.36897
 Alpha  occ. eigenvalues --   -0.36548  -0.36315  -0.36257  -0.35885  -0.35719
 Alpha  occ. eigenvalues --   -0.35681  -0.35499  -0.35385  -0.35246  -0.35137
 Alpha  occ. eigenvalues --   -0.34703  -0.34610  -0.34344  -0.33896  -0.33161
 Alpha  occ. eigenvalues --   -0.32947  -0.32803  -0.32517  -0.32388  -0.32361
 Alpha  occ. eigenvalues --   -0.32188  -0.32101  -0.32060  -0.31901  -0.31498
 Alpha  occ. eigenvalues --   -0.31451  -0.30842  -0.30258  -0.29321  -0.29156
 Alpha  occ. eigenvalues --   -0.29148  -0.28918  -0.28369  -0.26629  -0.25451
 Alpha  occ. eigenvalues --   -0.25161  -0.25011  -0.24940  -0.24571  -0.20636
 Alpha  occ. eigenvalues --   -0.18982
 Alpha virt. eigenvalues --   -0.11435  -0.04701  -0.03167  -0.01551  -0.00394
 Alpha virt. eigenvalues --   -0.00239   0.00172   0.00709   0.01563   0.02750
 Alpha virt. eigenvalues --    0.04060   0.04219   0.04732   0.05245   0.05319

 Mulliken charges:
               1
     1  Mg   0.947212
     2  C   -0.003013
     3  C   -0.084325
     4  C   -0.024848
     5  C   -0.078469
     6  N   -0.425067
     7  C   -0.001816
     8  C   -0.034776
     9  C   -0.155377
    10  C    0.118094
    11  C    0.001012
    12  C   -0.015570
    13  C   -0.017383
    14  C    0.254250
    15  O   -0.281669
    16  O   -0.381352
    17  N   -0.479549
    18  C    0.193223
    19  C   -0.189408
    20  C   -0.106828
    21  C    0.167481
    22  C    0.044092
    23  C    0.056763
    24  O   -0.253555
    25  C    0.007813
    26  N   -0.373477
    27  C    0.069079
    28  C   -0.116774
    29  C   -0.073794
    30  C    0.020762
    31  C   -0.027694
    32  C   -0.034037
    33  C   -0.056559
    34  N   -0.461637
    35  C    0.164006
    36  C   -0.154698
    37  C   -0.089617
    38  C    0.179903
    39  C    0.054051
    40  C    0.172180
    41  O   -0.193476
    42  C   -0.141398
    43  C    0.288722
    44  O   -0.241057
    45  O   -0.400207
    46  C    0.120745
    47  C    0.255154
    48  C   -0.157247
    49  C   -0.242002
    50  C    0.003275
    51  C    0.025655
    52  C   -0.024418
    53  C   -0.006204
    54  C   -0.211251
    55  C   -0.012182
    56  C   -0.032237
    57  C   -0.049554
    58  C    0.024526
    59  C   -0.209663
    60  C    0.006972
    61  C    0.011204
    62  C   -0.094586
    63  C    0.020566
    64  C   -0.270790
    65  C   -0.014031
    66  C   -0.009917
    67  H   -0.010918
    68  H    0.024609
    69  H    0.002734
    70  H    0.050115
    71  H    0.058135
    72  H    0.052659
    73  H    0.038254
    74  H    0.044466
    75  H    0.039043
    76  H    0.073281
    77  H    0.058239
    78  H    0.070466
    79  H    0.037694
    80  H    0.054625
    81  H    0.067008
    82  H    0.045735
    83  H    0.052346
    84  H    0.075295
    85  H    0.061237
    86  H    0.047556
    87  H    0.045603
    88  H    0.045486
    89  H    0.052980
    90  H    0.039380
    91  H    0.033036
    92  H    0.071123
    93  H    0.036721
    94  H    0.039986
    95  H    0.060219
    96  H    0.063021
    97  H    0.033678
    98  H    0.071413
    99  H    0.052743
   100  H    0.066905
   101  H    0.073055
   102  H    0.084069
   103  H    0.066565
   104  H    0.030122
   105  H    0.036344
   106  H    0.058503
   107  H    0.053698
   108  H    0.017686
   109  H    0.041966
   110  H    0.032213
   111  H    0.037696
   112  H    0.034090
   113  H    0.019356
   114  H    0.029665
   115  H    0.026393
   116  H    0.025134
   117  H    0.030940
   118  H    0.034280
   119  H    0.035031
   120  H    0.028815
   121  H    0.023684
   122  H    0.012579
   123  H    0.013870
   124  H    0.028987
   125  H    0.039485
   126  H    0.019496
   127  H    0.040072
   128  H    0.013301
   129  H    0.023434
   130  H    0.026403
   131  H    0.031794
   132  H    0.031168
   133  H    0.030198
   134  H    0.034693
   135  H    0.039865
   136  H    0.032676
   137  H    0.029508
   138  H    0.034915
   139  H    0.042470
   140  H    0.025679
 Sum of Mulliken charges =  -0.00000

 Dipole moment (field-independent basis, Debye):
    X=             -3.6002    Y=              4.3329    Z=             -0.9444  Tot=              5.7120
 Quadrupole moment (field-independent basis, Debye-Ang):
   XX=           -372.0354   YY=           -428.0969   ZZ=           -403.3689
   XY=              8.6183   XZ=             20.5125   YZ=             -1.8828

 Normal termination of Gaussian 16 at Sat Apr 30 02:59:51 2022.
