 Gaussian 16, Revision A.03,
 Gaussian 16:  ES64L-G16RevA.03 25-Dec-2016

 --------------------------------
 #p wB97XD/Def2SVP td=(nstates=5)
 --------------------------------

 ----------------------------------------------------
 step_551_chromophore_16 TDDFT with wB97XD functional
 ----------------------------------------------------
 Symbolic Z-matrix:
 Charge =  0 Multiplicity = 1

                         Standard orientation:
 ---------------------------------------------------------------------
 Center     Atomic      Atomic             Coordinates (Angstroms)
 Number     Number       Type             X           Y           Z
 ---------------------------------------------------------------------
      1         12           0        6.173794    0.582013    0.062315
      2          6           0        4.081190   -2.192693   -0.198596
      3          6           0        3.617299    2.505569   -0.835885
      4          6           0        8.400727    3.047968   -0.143710
      5          6           0        8.923401   -1.650614    0.850646
      6          7           0        4.060475    0.118124   -0.504234
      7          6           0        3.342457   -1.088878   -0.540320
      8          6           0        1.799650   -0.867985   -0.778749
      9          6           0        1.793332    0.690237   -0.961864
     10          6           0        3.225844    1.170121   -0.828335
     11          6           0        1.057976    1.130003   -2.322566
     12          6           0        0.843977   -1.408727    0.357113
     13          6           0       -0.599435   -1.012478    0.146274
     14          6           0       -1.685751   -1.934534    0.707709
     15          8           0       -1.653289   -2.459015    1.835550
     16          8           0       -2.689885   -2.179700   -0.208716
     17          7           0        5.962074    2.606309   -0.268954
     18          6           0        4.840139    3.188561   -0.583566
     19          6           0        5.072810    4.610361   -0.701226
     20          6           0        6.534031    4.780498   -0.511251
     21          6           0        7.027295    3.466050   -0.242745
     22          6           0        4.062562    5.702550   -0.998475
     23          6           0        7.348479    6.089715   -0.566637
     24          8           0        8.556332    6.087287   -0.291500
     25          6           0        6.680628    7.360561   -0.884045
     26          7           0        8.345380    0.686265    0.378977
     27          6           0        9.017866    1.854655    0.224903
     28          6           0       10.469551    1.670281    0.689508
     29          6           0       10.589827    0.151541    0.978060
     30          6           0        9.234797   -0.311775    0.674582
     31          6           0       11.563319    2.111800   -0.409266
     32          6           0       11.065333   -0.044121    2.475730
     33          6           0       10.051715   -0.534432    3.466577
     34          7           0        6.541209   -1.528916    0.125847
     35          6           0        7.696927   -2.283637    0.510533
     36          6           0        7.362782   -3.650303    0.608769
     37          6           0        5.967046   -3.652332    0.394206
     38          6           0        5.507434   -2.343723    0.064910
     39          6           0        8.204093   -4.690415    1.003941
     40          6           0        4.768025   -4.512441    0.390343
     41          8           0        4.642735   -5.677590    0.666241
     42          6           0        3.607096   -3.627159   -0.080271
     43          6           0        3.004814   -4.131154   -1.334837
     44          8           0        3.730333   -4.329451   -2.298331
     45          8           0        1.602237   -4.295016   -1.201324
     46          6           0        0.903406   -4.491838   -2.509343
     47          6           0       -3.920655   -2.852757    0.341470
     48          6           0       -5.080040   -2.180280   -0.324286
     49          6           0       -6.392595   -2.535567   -0.419462
     50          6           0       -6.970924   -3.814476    0.233657
     51          6           0       -7.384537   -1.492390   -0.891490
     52          6           0       -7.519323   -0.189137   -0.054548
     53          6           0       -8.941194    0.293967    0.444054
     54          6           0       -9.610252    1.462097   -0.319035
     55          6           0       -9.041259    2.801773    0.116054
     56          6           0      -11.192395    1.388121   -0.374724
     57          6           0      -11.682518    0.874294   -1.754001
     58          6           0      -13.129600    1.202534   -2.066065
     59          6           0      -14.177900    0.081913   -1.662343
     60          6           0      -14.864685   -0.611812   -2.855569
     61          6           0      -15.174650    0.787586   -0.685900
     62          6           0      -14.865146    0.676478    0.834817
     63          6           0      -14.610185    1.957640    1.596581
     64          6           0      -14.094313    1.536510    3.051114
     65          6           0      -12.627252    1.969713    3.388594
     66          6           0      -15.042000    2.041105    4.124351
     67          1           0        2.753050    3.121520   -1.094565
     68          1           0        9.213149    3.774589   -0.206976
     69          1           0        9.742965   -2.243090    1.262940
     70          1           0        1.632453   -1.510039   -1.644176
     71          1           0        1.187429    1.099735   -0.153472
     72          1           0        0.988090    0.300554   -3.026292
     73          1           0        1.635818    1.907363   -2.820861
     74          1           0        0.139756    1.652216   -2.053808
     75          1           0        1.161881   -0.935050    1.286526
     76          1           0        1.061893   -2.469843    0.481809
     77          1           0       -0.763755   -0.877337   -0.922747
     78          1           0       -0.626054   -0.057376    0.671168
     79          1           0        3.128485    5.236916   -1.310331
     80          1           0        4.257564    6.393564   -1.818607
     81          1           0        4.028305    6.246412   -0.053778
     82          1           0        6.239894    7.039293   -1.827626
     83          1           0        7.330263    8.150497   -1.262475
     84          1           0        5.904512    7.628507   -0.167456
     85          1           0       10.778667    2.172447    1.605612
     86          1           0       11.191459   -0.412197    0.264893
     87          1           0       11.154807    2.153223   -1.419373
     88          1           0       12.425706    1.445940   -0.432759
     89          1           0       11.880392    3.137590   -0.223582
     90          1           0       11.586061    0.853267    2.809895
     91          1           0       11.891666   -0.742534    2.340093
     92          1           0        9.003999   -0.379541    3.207609
     93          1           0       10.189301   -0.014960    4.415326
     94          1           0       10.184474   -1.583099    3.733510
     95          1           0        8.758825   -5.020716    0.125219
     96          1           0        7.645077   -5.484569    1.498562
     97          1           0        8.973081   -4.458489    1.739465
     98          1           0        2.794098   -3.731429    0.638124
     99          1           0        1.226970   -3.796258   -3.283550
    100          1           0       -0.161629   -4.288755   -2.390142
    101          1           0        1.170860   -5.493654   -2.845449
    102          1           0       -4.093333   -2.729774    1.410592
    103          1           0       -3.861317   -3.899896    0.044268
    104          1           0       -4.826141   -1.196218   -0.716516
    105          1           0       -6.200708   -4.295965    0.836991
    106          1           0       -7.278429   -4.417057   -0.620752
    107          1           0       -7.818578   -3.657894    0.899459
    108          1           0       -8.329259   -2.006920   -1.068435
    109          1           0       -7.036990   -1.264541   -1.899293
    110          1           0       -7.066708    0.602343   -0.652114
    111          1           0       -6.924926   -0.305604    0.852131
    112          1           0       -8.939549    0.506601    1.513556
    113          1           0       -9.619931   -0.551784    0.332494
    114          1           0       -9.247651    1.503591   -1.346405
    115          1           0       -8.460560    2.614836    1.018807
    116          1           0       -9.755495    3.595506    0.334597
    117          1           0       -8.421431    3.306108   -0.625623
    118          1           0      -11.592548    2.361895   -0.089614
    119          1           0      -11.553353    0.672721    0.363791
    120          1           0      -11.600186   -0.212473   -1.734585
    121          1           0      -10.941841    1.210083   -2.479131
    122          1           0      -13.293974    1.486856   -3.105521
    123          1           0      -13.357094    2.173342   -1.627068
    124          1           0      -13.660422   -0.616293   -1.004231
    125          1           0      -15.118941   -1.662311   -2.712610
    126          1           0      -14.136403   -0.710687   -3.660590
    127          1           0      -15.638719   -0.019899   -3.342259
    128          1           0      -16.158968    0.352094   -0.852727
    129          1           0      -15.225237    1.850792   -0.920748
    130          1           0      -14.020716   -0.003268    0.956953
    131          1           0      -15.708550    0.101988    1.218336
    132          1           0      -15.592682    2.424958    1.673965
    133          1           0      -13.865652    2.653061    1.208336
    134          1           0      -14.120825    0.448183    3.094205
    135          1           0      -12.128336    2.256476    2.462548
    136          1           0      -12.128619    1.138081    3.885047
    137          1           0      -12.607562    2.733287    4.166137
    138          1           0      -15.865356    1.331943    4.213725
    139          1           0      -15.332048    3.064740    3.887110
    140          1           0      -14.492983    2.026385    5.065555
 ---------------------------------------------------------------------

 SCF Done:  E(RwB97XD) =  -3007.84893776     A.U. after   19 cycles

 Excitation energies and oscillator strengths:

 Excited State   1:      Singlet-A      1.6186 eV  765.99 nm  f=0.3677  <S**2>=0.000
     245 -> 248        0.17431
     246 -> 247        0.68565
     245 <- 248        0.11502
 This state for optimization and/or second-order correction.
 Total Energy, E(TD-HF/TD-DFT) =  -3007.78945501
 Copying the excited state density for this state as the 1-particle RhoCI density.

 Excited State   2:      Singlet-A      2.0985 eV  590.83 nm  f=0.1853  <S**2>=0.000
     245 -> 247        0.66069
     246 -> 248       -0.23666

 Excited State   3:      Singlet-A      3.1648 eV  391.75 nm  f=0.0100  <S**2>=0.000
     242 -> 247       -0.11268
     244 -> 247        0.67675

 Excited State   4:      Singlet-A      3.3669 eV  368.24 nm  f=0.0023  <S**2>=0.000
     242 -> 247        0.66259
     244 -> 247        0.10796
     246 -> 248        0.12212

 Excited State   5:      Singlet-A      3.4495 eV  359.42 nm  f=0.0002  <S**2>=0.000
     241 -> 247        0.61582
     241 -> 249       -0.20189
     241 -> 250        0.20043

 The electronic state is 1-A.
 Alpha  occ. eigenvalues --  -46.95577 -19.30960 -19.30922 -19.25092 -19.24823
 Alpha  occ. eigenvalues --  -19.23426 -19.23074 -14.46490 -14.46463 -14.44107
 Alpha  occ. eigenvalues --  -14.43252 -10.43915 -10.43160 -10.39088 -10.37777
 Alpha  occ. eigenvalues --  -10.36663 -10.36010 -10.35389 -10.35188 -10.34554
 Alpha  occ. eigenvalues --  -10.34478 -10.34122 -10.33690 -10.33526 -10.33207
 Alpha  occ. eigenvalues --  -10.33151 -10.32826 -10.32765 -10.32202 -10.31940
 Alpha  occ. eigenvalues --  -10.31848 -10.31352 -10.31337 -10.31246 -10.31186
 Alpha  occ. eigenvalues --  -10.30943 -10.30895 -10.30889 -10.30845 -10.30830
 Alpha  occ. eigenvalues --  -10.30802 -10.30620 -10.30584 -10.30248 -10.30039
 Alpha  occ. eigenvalues --  -10.30010 -10.29977 -10.29866 -10.29780 -10.29672
 Alpha  occ. eigenvalues --  -10.29648 -10.29507 -10.29279 -10.29096 -10.29073
 Alpha  occ. eigenvalues --  -10.28968 -10.28820 -10.28757 -10.28648 -10.28549
 Alpha  occ. eigenvalues --  -10.28528 -10.28525 -10.28299 -10.28076 -10.28033
 Alpha  occ. eigenvalues --  -10.27915  -3.21379  -1.94989  -1.94486  -1.94344
 Alpha  occ. eigenvalues --   -1.17644  -1.16996  -1.12112  -1.11101  -1.10101
 Alpha  occ. eigenvalues --   -1.09003  -1.06769  -1.05771  -1.04903  -1.03867
 Alpha  occ. eigenvalues --   -0.93889  -0.92210  -0.91786  -0.91473  -0.91345
 Alpha  occ. eigenvalues --   -0.90344  -0.89931  -0.89557  -0.89072  -0.89013
 Alpha  occ. eigenvalues --   -0.88735  -0.87390  -0.86135  -0.85347  -0.84910
 Alpha  occ. eigenvalues --   -0.84571  -0.84497  -0.83434  -0.83036  -0.82270
 Alpha  occ. eigenvalues --   -0.82079  -0.80416  -0.80048  -0.79183  -0.78153
 Alpha  occ. eigenvalues --   -0.78026  -0.77089  -0.77028  -0.76947  -0.76163
 Alpha  occ. eigenvalues --   -0.75541  -0.74968  -0.73584  -0.72426  -0.71835
 Alpha  occ. eigenvalues --   -0.70607  -0.70099  -0.69206  -0.68953  -0.67734
 Alpha  occ. eigenvalues --   -0.67121  -0.66919  -0.66696  -0.66247  -0.65860
 Alpha  occ. eigenvalues --   -0.65362  -0.65244  -0.64224  -0.63672  -0.62402
 Alpha  occ. eigenvalues --   -0.62007  -0.61444  -0.61010  -0.60344  -0.59613
 Alpha  occ. eigenvalues --   -0.59303  -0.58798  -0.58195  -0.58048  -0.57417
 Alpha  occ. eigenvalues --   -0.56976  -0.56865  -0.56272  -0.56075  -0.55771
 Alpha  occ. eigenvalues --   -0.55394  -0.55351  -0.55250  -0.54841  -0.54769
 Alpha  occ. eigenvalues --   -0.54541  -0.54407  -0.54055  -0.53875  -0.53672
 Alpha  occ. eigenvalues --   -0.53521  -0.53457  -0.53127  -0.52977  -0.52775
 Alpha  occ. eigenvalues --   -0.52333  -0.52277  -0.52142  -0.52033  -0.51704
 Alpha  occ. eigenvalues --   -0.51491  -0.51337  -0.50958  -0.50673  -0.50607
 Alpha  occ. eigenvalues --   -0.50530  -0.50345  -0.50275  -0.50191  -0.49936
 Alpha  occ. eigenvalues --   -0.49479  -0.49257  -0.48980  -0.48952  -0.48846
 Alpha  occ. eigenvalues --   -0.48287  -0.48072  -0.48002  -0.47774  -0.47631
 Alpha  occ. eigenvalues --   -0.47476  -0.47369  -0.47293  -0.47051  -0.46922
 Alpha  occ. eigenvalues --   -0.46664  -0.46463  -0.46413  -0.46159  -0.46026
 Alpha  occ. eigenvalues --   -0.45642  -0.45546  -0.45541  -0.45458  -0.45286
 Alpha  occ. eigenvalues --   -0.44708  -0.44545  -0.44407  -0.44071  -0.43989
 Alpha  occ. eigenvalues --   -0.43651  -0.43369  -0.43269  -0.43004  -0.42808
 Alpha  occ. eigenvalues --   -0.42751  -0.42532  -0.42481  -0.42313  -0.42204
 Alpha  occ. eigenvalues --   -0.41723  -0.41514  -0.41410  -0.40981  -0.40242
 Alpha  occ. eigenvalues --   -0.39996  -0.39775  -0.39565  -0.39447  -0.39355
 Alpha  occ. eigenvalues --   -0.39242  -0.39078  -0.38994  -0.38926  -0.38512
 Alpha  occ. eigenvalues --   -0.38459  -0.37764  -0.37149  -0.36229  -0.36205
 Alpha  occ. eigenvalues --   -0.36052  -0.35956  -0.35063  -0.33226  -0.32610
 Alpha  occ. eigenvalues --   -0.32024  -0.31783  -0.31680  -0.31129  -0.25554
 Alpha  occ. eigenvalues --   -0.23222
 Alpha virt. eigenvalues --   -0.07437   0.00807   0.03124   0.04963   0.05716
 Alpha virt. eigenvalues --    0.06598   0.07029   0.07422   0.08052   0.09080
 Alpha virt. eigenvalues --    0.10601   0.11042   0.11511   0.11968   0.12003

 Mulliken charges:
               1
     1  Mg   0.938811
     2  C   -0.000306
     3  C   -0.105017
     4  C   -0.035709
     5  C   -0.093964
     6  N   -0.397973
     7  C   -0.035257
     8  C   -0.007106
     9  C   -0.128081
    10  C    0.106530
    11  C    0.011368
    12  C   -0.000351
    13  C    0.003003
    14  C    0.243230
    15  O   -0.279322
    16  O   -0.380994
    17  N   -0.442208
    18  C    0.185674
    19  C   -0.182333
    20  C   -0.099902
    21  C    0.156195
    22  C    0.058275
    23  C    0.052896
    24  O   -0.247860
    25  C    0.021919
    26  N   -0.338101
    27  C    0.050670
    28  C   -0.088155
    29  C   -0.053305
    30  C    0.008472
    31  C   -0.017623
    32  C   -0.021782
    33  C   -0.037197
    34  N   -0.424837
    35  C    0.154521
    36  C   -0.140386
    37  C   -0.083090
    38  C    0.157969
    39  C    0.059325
    40  C    0.148718
    41  O   -0.183639
    42  C   -0.098740
    43  C    0.263542
    44  O   -0.236787
    45  O   -0.398630
    46  C    0.134510
    47  C    0.266585
    48  C   -0.165446
    49  C   -0.227658
    50  C    0.017000
    51  C    0.041815
    52  C   -0.008949
    53  C    0.012289
    54  C   -0.181788
    55  C   -0.002821
    56  C   -0.009572
    57  C   -0.024872
    58  C    0.035509
    59  C   -0.178745
    60  C    0.018547
    61  C    0.026675
    62  C   -0.072958
    63  C    0.034555
    64  C   -0.242916
    65  C    0.005149
    66  C    0.004447
    67  H   -0.022364
    68  H    0.019772
    69  H   -0.003640
    70  H    0.032474
    71  H    0.045848
    72  H    0.047974
    73  H    0.032032
    74  H    0.039448
    75  H    0.031583
    76  H    0.059364
    77  H    0.050293
    78  H    0.063948
    79  H    0.033293
    80  H    0.049993
    81  H    0.060408
    82  H    0.035928
    83  H    0.051873
    84  H    0.070936
    85  H    0.051200
    86  H    0.037672
    87  H    0.039443
    88  H    0.039953
    89  H    0.047581
    90  H    0.031691
    91  H    0.026134
    92  H    0.060376
    93  H    0.031896
    94  H    0.034039
    95  H    0.056027
    96  H    0.060366
    97  H    0.028398
    98  H    0.063744
    99  H    0.048529
   100  H    0.064623
   101  H    0.069826
   102  H    0.079890
   103  H    0.062439
   104  H    0.025748
   105  H    0.030733
   106  H    0.052507
   107  H    0.048664
   108  H    0.009787
   109  H    0.034331
   110  H    0.024027
   111  H    0.028886
   112  H    0.026274
   113  H    0.007566
   114  H    0.014690
   115  H    0.019192
   116  H    0.019826
   117  H    0.026011
   118  H    0.019732
   119  H    0.018683
   120  H    0.017650
   121  H    0.015561
   122  H    0.005724
   123  H    0.002413
   124  H    0.014125
   125  H    0.034996
   126  H    0.012026
   127  H    0.034647
   128  H    0.005798
   129  H    0.012472
   130  H    0.011654
   131  H    0.024074
   132  H    0.022636
   133  H    0.018950
   134  H    0.022462
   135  H    0.027145
   136  H    0.027002
   137  H    0.023475
   138  H    0.029137
   139  H    0.035797
   140  H    0.018781
 Sum of Mulliken charges =  -0.00000

 Dipole moment (field-independent basis, Debye):
    X=             -3.5876    Y=              4.4983    Z=             -0.9539  Tot=              5.8323
 Quadrupole moment (field-independent basis, Debye-Ang):
   XX=           -371.5796   YY=           -426.5629   ZZ=           -402.9750
   XY=              9.7602   XZ=             20.4013   YZ=             -1.9178

 Normal termination of Gaussian 16 at Sat Apr 30 03:37:41 2022.
