 Gaussian 16, Revision A.03,
 Gaussian 16:  ES64L-G16RevA.03 25-Dec-2016

 --------------------
 #p ZINDO=(nstates=5)
 --------------------

 -----------------------------
 step_551_chromophore_16 ZINDO
 -----------------------------
 Symbolic Z-matrix:
 Charge =  0 Multiplicity = 1

                         Standard orientation:
 ---------------------------------------------------------------------
 Center     Atomic      Atomic             Coordinates (Angstroms)
 Number     Number       Type             X           Y           Z
 ---------------------------------------------------------------------
      1         12           0        6.173794    0.582013    0.062315
      2          6           0        4.081190   -2.192693   -0.198596
      3          6           0        3.617299    2.505569   -0.835885
      4          6           0        8.400727    3.047968   -0.143710
      5          6           0        8.923401   -1.650614    0.850646
      6          7           0        4.060475    0.118124   -0.504234
      7          6           0        3.342457   -1.088878   -0.540320
      8          6           0        1.799650   -0.867985   -0.778749
      9          6           0        1.793332    0.690237   -0.961864
     10          6           0        3.225844    1.170121   -0.828335
     11          6           0        1.057976    1.130003   -2.322566
     12          6           0        0.843977   -1.408727    0.357113
     13          6           0       -0.599435   -1.012478    0.146274
     14          6           0       -1.685751   -1.934534    0.707709
     15          8           0       -1.653289   -2.459015    1.835550
     16          8           0       -2.689885   -2.179700   -0.208716
     17          7           0        5.962074    2.606309   -0.268954
     18          6           0        4.840139    3.188561   -0.583566
     19          6           0        5.072810    4.610361   -0.701226
     20          6           0        6.534031    4.780498   -0.511251
     21          6           0        7.027295    3.466050   -0.242745
     22          6           0        4.062562    5.702550   -0.998475
     23          6           0        7.348479    6.089715   -0.566637
     24          8           0        8.556332    6.087287   -0.291500
     25          6           0        6.680628    7.360561   -0.884045
     26          7           0        8.345380    0.686265    0.378977
     27          6           0        9.017866    1.854655    0.224903
     28          6           0       10.469551    1.670281    0.689508
     29          6           0       10.589827    0.151541    0.978060
     30          6           0        9.234797   -0.311775    0.674582
     31          6           0       11.563319    2.111800   -0.409266
     32          6           0       11.065333   -0.044121    2.475730
     33          6           0       10.051715   -0.534432    3.466577
     34          7           0        6.541209   -1.528916    0.125847
     35          6           0        7.696927   -2.283637    0.510533
     36          6           0        7.362782   -3.650303    0.608769
     37          6           0        5.967046   -3.652332    0.394206
     38          6           0        5.507434   -2.343723    0.064910
     39          6           0        8.204093   -4.690415    1.003941
     40          6           0        4.768025   -4.512441    0.390343
     41          8           0        4.642735   -5.677590    0.666241
     42          6           0        3.607096   -3.627159   -0.080271
     43          6           0        3.004814   -4.131154   -1.334837
     44          8           0        3.730333   -4.329451   -2.298331
     45          8           0        1.602237   -4.295016   -1.201324
     46          6           0        0.903406   -4.491838   -2.509343
     47          6           0       -3.920655   -2.852757    0.341470
     48          6           0       -5.080040   -2.180280   -0.324286
     49          6           0       -6.392595   -2.535567   -0.419462
     50          6           0       -6.970924   -3.814476    0.233657
     51          6           0       -7.384537   -1.492390   -0.891490
     52          6           0       -7.519323   -0.189137   -0.054548
     53          6           0       -8.941194    0.293967    0.444054
     54          6           0       -9.610252    1.462097   -0.319035
     55          6           0       -9.041259    2.801773    0.116054
     56          6           0      -11.192395    1.388121   -0.374724
     57          6           0      -11.682518    0.874294   -1.754001
     58          6           0      -13.129600    1.202534   -2.066065
     59          6           0      -14.177900    0.081913   -1.662343
     60          6           0      -14.864685   -0.611812   -2.855569
     61          6           0      -15.174650    0.787586   -0.685900
     62          6           0      -14.865146    0.676478    0.834817
     63          6           0      -14.610185    1.957640    1.596581
     64          6           0      -14.094313    1.536510    3.051114
     65          6           0      -12.627252    1.969713    3.388594
     66          6           0      -15.042000    2.041105    4.124351
     67          1           0        2.753050    3.121520   -1.094565
     68          1           0        9.213149    3.774589   -0.206976
     69          1           0        9.742965   -2.243090    1.262940
     70          1           0        1.632453   -1.510039   -1.644176
     71          1           0        1.187429    1.099735   -0.153472
     72          1           0        0.988090    0.300554   -3.026292
     73          1           0        1.635818    1.907363   -2.820861
     74          1           0        0.139756    1.652216   -2.053808
     75          1           0        1.161881   -0.935050    1.286526
     76          1           0        1.061893   -2.469843    0.481809
     77          1           0       -0.763755   -0.877337   -0.922747
     78          1           0       -0.626054   -0.057376    0.671168
     79          1           0        3.128485    5.236916   -1.310331
     80          1           0        4.257564    6.393564   -1.818607
     81          1           0        4.028305    6.246412   -0.053778
     82          1           0        6.239894    7.039293   -1.827626
     83          1           0        7.330263    8.150497   -1.262475
     84          1           0        5.904512    7.628507   -0.167456
     85          1           0       10.778667    2.172447    1.605612
     86          1           0       11.191459   -0.412197    0.264893
     87          1           0       11.154807    2.153223   -1.419373
     88          1           0       12.425706    1.445940   -0.432759
     89          1           0       11.880392    3.137590   -0.223582
     90          1           0       11.586061    0.853267    2.809895
     91          1           0       11.891666   -0.742534    2.340093
     92          1           0        9.003999   -0.379541    3.207609
     93          1           0       10.189301   -0.014960    4.415326
     94          1           0       10.184474   -1.583099    3.733510
     95          1           0        8.758825   -5.020716    0.125219
     96          1           0        7.645077   -5.484569    1.498562
     97          1           0        8.973081   -4.458489    1.739465
     98          1           0        2.794098   -3.731429    0.638124
     99          1           0        1.226970   -3.796258   -3.283550
    100          1           0       -0.161629   -4.288755   -2.390142
    101          1           0        1.170860   -5.493654   -2.845449
    102          1           0       -4.093333   -2.729774    1.410592
    103          1           0       -3.861317   -3.899896    0.044268
    104          1           0       -4.826141   -1.196218   -0.716516
    105          1           0       -6.200708   -4.295965    0.836991
    106          1           0       -7.278429   -4.417057   -0.620752
    107          1           0       -7.818578   -3.657894    0.899459
    108          1           0       -8.329259   -2.006920   -1.068435
    109          1           0       -7.036990   -1.264541   -1.899293
    110          1           0       -7.066708    0.602343   -0.652114
    111          1           0       -6.924926   -0.305604    0.852131
    112          1           0       -8.939549    0.506601    1.513556
    113          1           0       -9.619931   -0.551784    0.332494
    114          1           0       -9.247651    1.503591   -1.346405
    115          1           0       -8.460560    2.614836    1.018807
    116          1           0       -9.755495    3.595506    0.334597
    117          1           0       -8.421431    3.306108   -0.625623
    118          1           0      -11.592548    2.361895   -0.089614
    119          1           0      -11.553353    0.672721    0.363791
    120          1           0      -11.600186   -0.212473   -1.734585
    121          1           0      -10.941841    1.210083   -2.479131
    122          1           0      -13.293974    1.486856   -3.105521
    123          1           0      -13.357094    2.173342   -1.627068
    124          1           0      -13.660422   -0.616293   -1.004231
    125          1           0      -15.118941   -1.662311   -2.712610
    126          1           0      -14.136403   -0.710687   -3.660590
    127          1           0      -15.638719   -0.019899   -3.342259
    128          1           0      -16.158968    0.352094   -0.852727
    129          1           0      -15.225237    1.850792   -0.920748
    130          1           0      -14.020716   -0.003268    0.956953
    131          1           0      -15.708550    0.101988    1.218336
    132          1           0      -15.592682    2.424958    1.673965
    133          1           0      -13.865652    2.653061    1.208336
    134          1           0      -14.120825    0.448183    3.094205
    135          1           0      -12.128336    2.256476    2.462548
    136          1           0      -12.128619    1.138081    3.885047
    137          1           0      -12.607562    2.733287    4.166137
    138          1           0      -15.865356    1.331943    4.213725
    139          1           0      -15.332048    3.064740    3.887110
    140          1           0      -14.492983    2.026385    5.065555
 ---------------------------------------------------------------------

 SCF Done:  E(RZINDO/S) =  -474.190033984     A.U. after   19 cycles

 Excitation energies and oscillator strengths:

 Excited State   1:      Singlet-A      1.2142 eV 1021.12 nm  f=0.6169  <S**2>=0.000
     175 ->178        -0.18340
     176 ->177         0.66447
 This state for optimization and/or second-order correction.
 Total Energy, E(CIS/TDA) =  -474.145413010
 Copying the excited state density for this state as the 1-particle RhoCI density.

 Excited State   2:      Singlet-A      1.9194 eV  645.94 nm  f=0.1359  <S**2>=0.000
     175 ->177         0.59743
     176 ->178         0.34979

 Excited State   3:      Singlet-A      2.9879 eV  414.95 nm  f=0.0118  <S**2>=0.000
     168 ->177         0.12486
     168 ->179         0.13936
     168 ->181         0.14084
     168 ->186         0.10009
     169 ->179         0.22567
     169 ->186         0.12916
     170 ->177        -0.22346
     170 ->179         0.12143
     170 ->181        -0.20637
     170 ->183        -0.10625
     170 ->187         0.10427
     171 ->177        -0.10278
     172 ->177         0.32280
     174 ->177         0.17742
     176 ->179         0.10248

 Excited State   4:      Singlet-A      3.0054 eV  412.53 nm  f=0.0206  <S**2>=0.000
     168 ->177         0.16917
     168 ->178        -0.12113
     168 ->179         0.24723
     168 ->181         0.22403
     168 ->186         0.16164
     169 ->177         0.21910
     169 ->181         0.22139
     170 ->179        -0.22247
     170 ->186        -0.13547
     172 ->177        -0.17192
     176 ->178        -0.11461

 Excited State   5:      Singlet-A      3.0621 eV  404.90 nm  f=0.0024  <S**2>=0.000
     169 ->179        -0.12252
     170 ->177         0.23709
     170 ->179        -0.13268
     170 ->181         0.12578
     171 ->177        -0.21517
     172 ->177         0.37449
     174 ->177         0.35984

 The electronic state is 1-A.
 Alpha  occ. eigenvalues --   -1.83741  -1.82158  -1.79875  -1.71848  -1.70134
 Alpha  occ. eigenvalues --   -1.69802  -1.64883  -1.59340  -1.58463  -1.58073
 Alpha  occ. eigenvalues --   -1.54632  -1.51931  -1.49530  -1.48665  -1.47449
 Alpha  occ. eigenvalues --   -1.44658  -1.43416  -1.39649  -1.38543  -1.37939
 Alpha  occ. eigenvalues --   -1.36727  -1.34962  -1.32448  -1.31471  -1.28686
 Alpha  occ. eigenvalues --   -1.28029  -1.24620  -1.22347  -1.21166  -1.18496
 Alpha  occ. eigenvalues --   -1.17158  -1.15476  -1.14726  -1.14512  -1.13771
 Alpha  occ. eigenvalues --   -1.12917  -1.11832  -1.09801  -1.04738  -1.04363
 Alpha  occ. eigenvalues --   -1.01829  -1.01234  -0.99663  -0.99045  -0.98012
 Alpha  occ. eigenvalues --   -0.96370  -0.95116  -0.93679  -0.93150  -0.92352
 Alpha  occ. eigenvalues --   -0.91402  -0.90004  -0.89485  -0.89141  -0.85791
 Alpha  occ. eigenvalues --   -0.84872  -0.83881  -0.83581  -0.82159  -0.80296
 Alpha  occ. eigenvalues --   -0.79503  -0.77846  -0.76867  -0.76581  -0.75996
 Alpha  occ. eigenvalues --   -0.75044  -0.74899  -0.74597  -0.74008  -0.73517
 Alpha  occ. eigenvalues --   -0.73063  -0.72463  -0.72029  -0.71237  -0.71032
 Alpha  occ. eigenvalues --   -0.69945  -0.69315  -0.68999  -0.68401  -0.68212
 Alpha  occ. eigenvalues --   -0.67653  -0.67102  -0.66880  -0.66741  -0.65871
 Alpha  occ. eigenvalues --   -0.65381  -0.65033  -0.64490  -0.63994  -0.63757
 Alpha  occ. eigenvalues --   -0.63404  -0.62927  -0.62689  -0.62337  -0.61690
 Alpha  occ. eigenvalues --   -0.61629  -0.61234  -0.60723  -0.60300  -0.60020
 Alpha  occ. eigenvalues --   -0.59744  -0.59207  -0.59076  -0.58474  -0.58183
 Alpha  occ. eigenvalues --   -0.58083  -0.57732  -0.57351  -0.57149  -0.56840
 Alpha  occ. eigenvalues --   -0.56477  -0.56001  -0.55616  -0.55338  -0.55137
 Alpha  occ. eigenvalues --   -0.54794  -0.54535  -0.53588  -0.53408  -0.53291
 Alpha  occ. eigenvalues --   -0.52399  -0.52339  -0.52167  -0.51936  -0.51402
 Alpha  occ. eigenvalues --   -0.51320  -0.51112  -0.50480  -0.50006  -0.49890
 Alpha  occ. eigenvalues --   -0.49548  -0.49504  -0.49283  -0.49056  -0.48440
 Alpha  occ. eigenvalues --   -0.48406  -0.48113  -0.47947  -0.47632  -0.47556
 Alpha  occ. eigenvalues --   -0.47329  -0.47173  -0.47025  -0.46739  -0.46466
 Alpha  occ. eigenvalues --   -0.46003  -0.45810  -0.45782  -0.45433  -0.45298
 Alpha  occ. eigenvalues --   -0.44858  -0.44780  -0.44578  -0.44404  -0.44092
 Alpha  occ. eigenvalues --   -0.44050  -0.43952  -0.43199  -0.43018  -0.42181
 Alpha  occ. eigenvalues --   -0.42022  -0.41875  -0.41603  -0.39268  -0.38917
 Alpha  occ. eigenvalues --   -0.37867  -0.36864  -0.35094  -0.34701  -0.34261
 Alpha  occ. eigenvalues --   -0.32652  -0.32396  -0.31859  -0.31736  -0.26415
 Alpha  occ. eigenvalues --   -0.22046
 Alpha virt. eigenvalues --   -0.09012  -0.01446   0.00053   0.01202   0.01694
 Alpha virt. eigenvalues --    0.02384   0.02603   0.03116   0.04000   0.04991
 Alpha virt. eigenvalues --    0.06213   0.06748   0.07435   0.07677   0.08326

 Mulliken charges:
               1
     1  Mg   0.430922
     2  C   -0.043391
     3  C   -0.093995
     4  C   -0.043225
     5  C   -0.049540
     6  N   -0.323424
     7  C    0.117889
     8  C    0.000066
     9  C    0.009840
    10  C    0.131950
    11  C   -0.060942
    12  C   -0.018191
    13  C    0.012513
    14  C    0.464997
    15  O   -0.522637
    16  O   -0.273847
    17  N   -0.297664
    18  C    0.135766
    19  C   -0.027851
    20  C   -0.059331
    21  C    0.121659
    22  C   -0.045275
    23  C    0.334192
    24  O   -0.538947
    25  C   -0.031509
    26  N   -0.263797
    27  C    0.119218
    28  C    0.001245
    29  C   -0.003410
    30  C    0.137798
    31  C   -0.061475
    32  C   -0.022016
    33  C   -0.047288
    34  N   -0.330278
    35  C    0.074844
    36  C    0.070713
    37  C   -0.068565
    38  C    0.145696
    39  C   -0.025804
    40  C    0.338275
    41  O   -0.513985
    42  C    0.053775
    43  C    0.487407
    44  O   -0.513084
    45  O   -0.278629
    46  C    0.071512
    47  C    0.111434
    48  C   -0.082665
    49  C   -0.025319
    50  C   -0.045884
    51  C   -0.016458
    52  C   -0.027993
    53  C   -0.030864
    54  C   -0.016239
    55  C   -0.058929
    56  C   -0.035079
    57  C   -0.031518
    58  C   -0.035545
    59  C   -0.009267
    60  C   -0.055117
    61  C   -0.044852
    62  C   -0.033593
    63  C   -0.031928
    64  C   -0.026179
    65  C   -0.062161
    66  C   -0.055186
    67  H    0.011455
    68  H    0.042625
    69  H    0.031598
    70  H    0.040046
    71  H    0.031148
    72  H    0.032251
    73  H    0.018801
    74  H    0.022754
    75  H    0.021686
    76  H    0.037867
    77  H    0.032510
    78  H    0.048535
    79  H    0.020324
    80  H    0.030300
    81  H    0.035237
    82  H    0.028955
    83  H    0.042898
    84  H    0.051187
    85  H    0.042516
    86  H    0.036367
    87  H    0.022306
    88  H    0.021230
    89  H    0.020981
    90  H    0.025188
    91  H    0.010950
    92  H    0.030200
    93  H    0.009208
    94  H    0.019634
    95  H    0.040363
    96  H    0.033220
    97  H    0.020137
    98  H    0.042516
    99  H    0.037579
   100  H    0.036515
   101  H    0.052027
   102  H    0.068266
   103  H    0.051298
   104  H    0.026564
   105  H    0.021180
   106  H    0.030585
   107  H    0.030145
   108  H    0.016275
   109  H    0.019303
   110  H    0.020576
   111  H    0.019394
   112  H    0.023421
   113  H    0.009068
   114  H    0.017937
   115  H    0.015049
   116  H    0.013878
   117  H    0.014885
   118  H    0.023784
   119  H    0.018072
   120  H    0.014518
   121  H    0.020401
   122  H    0.012122
   123  H    0.015852
   124  H    0.025689
   125  H    0.024974
   126  H    0.004196
   127  H    0.027664
   128  H    0.009628
   129  H    0.017887
   130  H    0.014328
   131  H    0.018042
   132  H    0.020212
   133  H    0.031093
   134  H    0.018200
   135  H    0.024148
   136  H    0.015554
   137  H    0.021734
   138  H    0.017925
   139  H    0.024054
   140  H    0.012155
 Sum of Mulliken charges =  -0.00000

 Dipole moment (field-independent basis, Debye):
    X=             -4.1509    Y=              5.5428    Z=             -0.9729  Tot=              6.9928
 N-N= 4.207831672442D+03 E-N= 0.000000000000D+00  KE=-9.089808423223D+03
 Leave Link  601 at Sat Apr 30 03:57:29 2022, MaxMem=  6710886400 cpu:               0.7 elap:               0.0
 (Enter /sw/apps/gaussian-16.0/g16/l9999.exe)
 1\1\GINC-BP1-COMPUTE147\SP\RZINDO CIS\STO-3G\C55H74Mg1N4O6\OF15641\30-
 Apr-2022\0\\#p ZINDO=(nstates=5)\\step_551_chromophore_16 ZINDO\\0,1\M
 g,0,40.816,41.481,27.315\C,0,39.961,43.884,29.69\C,0,41.385,39.339,29.
 791\C,0,42.085,39.476,24.98\C,0,40.339,43.973,24.721\N,0,40.708,41.681
 ,29.54\C,0,40.313,42.745,30.368\C,0,40.181,42.318,31.88\C,0,40.665,40.
 83,31.765\C,0,41.008,40.574,30.31\C,0,41.847,40.503,32.805\C,0,38.751,
 42.505,32.525\C,0,38.654,41.919,33.915\C,0,37.656,42.549,34.891\O,0,36

 Normal termination of Gaussian 16 at Sat Apr 30 03:57:29 2022.
