 Gaussian 16, Revision A.03,
 Gaussian 16:  ES64L-G16RevA.03 25-Dec-2016

 ------------------------------
 #p blyp/Def2SVP td=(nstates=5)
 ------------------------------

 --------------------------------------------------
 step_101_chromophore_27 TDDFT with blyp functional
 --------------------------------------------------
 Symbolic Z-matrix:
 Charge =  0 Multiplicity = 1

                         Standard orientation:
 ---------------------------------------------------------------------
 Center     Atomic      Atomic             Coordinates (Angstroms)
 Number     Number       Type             X           Y           Z
 ---------------------------------------------------------------------
      1         12           0       -4.702533    0.619216    0.054374
      2          6           0       -3.836957   -2.751645    0.155518
      3          6           0       -1.369196    1.542453    0.404989
      4          6           0       -5.651015    3.911164    0.324748
      5          6           0       -8.060708   -0.237255   -0.098820
      6          7           0       -2.857261   -0.531688    0.172465
      7          6           0       -2.689163   -1.892836    0.089857
      8          6           0       -1.251348   -2.293510   -0.047083
      9          6           0       -0.570329   -0.992757    0.437795
     10          6           0       -1.695798    0.130426    0.346242
     11          6           0        0.298594   -1.128128    1.765332
     12          6           0       -0.680320   -2.740125   -1.399148
     13          6           0        0.448582   -3.790379   -1.247723
     14          6           0        1.945250   -3.461633   -1.055318
     15          8           0        2.419975   -2.958590   -0.036125
     16          8           0        2.657327   -3.741170   -2.212282
     17          7           0       -3.622891    2.459975    0.346961
     18          6           0       -2.247786    2.672327    0.460392
     19          6           0       -1.991193    4.096188    0.568967
     20          6           0       -3.172073    4.785335    0.553337
     21          6           0       -4.213382    3.686123    0.348499
     22          6           0       -0.622176    4.629035    0.641559
     23          6           0       -3.463323    6.227093    0.636797
     24          8           0       -4.570572    6.615791    0.456523
     25          6           0       -2.371383    7.143743    1.118208
     26          7           0       -6.584606    1.659705    0.147176
     27          6           0       -6.702594    2.974496    0.117090
     28          6           0       -8.160604    3.453536    0.126846
     29          6           0       -8.784012    2.184180   -0.475523
     30          6           0       -7.750617    1.111359   -0.140448
     31          6           0       -8.765148    3.935778    1.392775
     32          6           0       -9.345944    2.350392   -1.881309
     33          6           0      -10.739476    2.904405   -1.988902
     34          7           0       -5.821332   -1.133014    0.120687
     35          6           0       -7.180727   -1.329629   -0.004514
     36          6           0       -7.457038   -2.813228    0.058715
     37          6           0       -6.177765   -3.357174    0.110189
     38          6           0       -5.226781   -2.339750    0.141435
     39          6           0       -8.810436   -3.438768    0.335455
     40          6           0       -5.498817   -4.628646    0.259233
     41          8           0       -5.947582   -5.771753    0.407985
     42          6           0       -3.978124   -4.245905    0.235591
     43          6           0       -3.240521   -4.917858    1.406474
     44          8           0       -3.255457   -4.716076    2.546778
     45          8           0       -2.306102   -5.700192    0.800648
     46          6           0       -1.304517   -6.350816    1.689169
     47          6           0        4.138913   -3.662648   -1.990310
     48          6           0        4.573479   -2.237987   -2.036587
     49          6           0        5.805846   -1.834393   -2.421514
     50          6           0        6.928176   -2.885335   -2.549371
     51          6           0        6.216618   -0.387236   -2.725721
     52          6           0        6.684507   -0.167414   -4.140385
     53          6           0        8.165734    0.296247   -4.248688
     54          6           0        8.306940    1.828432   -4.125061
     55          6           0        8.348127    2.522808   -5.494658
     56          6           0        9.358838    2.303013   -3.052930
     57          6           0        8.650098    2.696071   -1.725694
     58          6           0        9.612431    2.582399   -0.503265
     59          6           0        9.380966    1.461660    0.450748
     60          6           0       10.289400    0.272287    0.162411
     61          6           0        9.687817    1.894968    1.887395
     62          6           0        9.101661    1.071388    2.981493
     63          6           0       10.000914    0.083778    3.751479
     64          6           0       10.297571    0.597453    5.138820
     65          6           0       11.578730   -0.117868    5.749143
     66          6           0        9.077109    0.497164    6.102306
     67          1           0       -0.304173    1.764007    0.501056
     68          1           0       -5.977628    4.953302    0.320369
     69          1           0       -9.045371   -0.559163   -0.446124
     70          1           0       -1.087073   -3.024112    0.744978
     71          1           0        0.144312   -0.616378   -0.294674
     72          1           0       -0.127009   -0.419667    2.475028
     73          1           0        1.280637   -0.729740    1.512918
     74          1           0        0.338714   -2.096465    2.263849
     75          1           0       -0.325230   -1.898885   -1.993997
     76          1           0       -1.486520   -3.136093   -2.015534
     77          1           0        0.211021   -4.581834   -1.959124
     78          1           0        0.168903   -4.331451   -0.343542
     79          1           0       -0.529232    5.340110    1.462916
     80          1           0       -0.347334    5.133235   -0.284140
     81          1           0        0.105861    3.827509    0.768192
     82          1           0       -2.059606    6.787800    2.100299
     83          1           0       -2.633484    8.198862    1.193080
     84          1           0       -1.594965    7.155201    0.353052
     85          1           0       -8.155557    4.289082   -0.572895
     86          1           0       -9.629239    1.801389    0.097271
     87          1           0       -8.088444    4.100276    2.231153
     88          1           0       -9.475491    3.206300    1.781766
     89          1           0       -9.269684    4.870082    1.141988
     90          1           0       -9.326334    1.314408   -2.218824
     91          1           0       -8.619644    2.891196   -2.487614
     92          1           0      -10.983324    3.678729   -2.716383
     93          1           0      -11.078284    3.466660   -1.118922
     94          1           0      -11.439573    2.091734   -2.182283
     95          1           0       -9.189185   -4.256003   -0.277874
     96          1           0       -9.503823   -2.638404    0.080529
     97          1           0       -8.871696   -3.718867    1.387000
     98          1           0       -3.615636   -4.767963   -0.649801
     99          1           0       -1.759312   -6.889681    2.519579
    100          1           0       -0.552767   -5.686160    2.114665
    101          1           0       -0.795811   -7.000442    0.976534
    102          1           0        4.410575   -4.207601   -2.894319
    103          1           0        4.532846   -4.264850   -1.171948
    104          1           0        3.746587   -1.529012   -2.010162
    105          1           0        6.803938   -3.664315   -1.796202
    106          1           0        7.839741   -2.314177   -2.378417
    107          1           0        6.869358   -3.364447   -3.526824
    108          1           0        7.077747   -0.301787   -2.061849
    109          1           0        5.341020    0.211106   -2.472807
    110          1           0        6.147277    0.619888   -4.670120
    111          1           0        6.454127   -1.063252   -4.717202
    112          1           0        8.560601    0.040845   -5.232354
    113          1           0        8.690936   -0.358780   -3.553288
    114          1           0        7.390546    2.208987   -3.673878
    115          1           0        9.259280    3.064776   -5.744945
    116          1           0        7.582538    3.285856   -5.351233
    117          1           0        8.103896    1.902166   -6.356064
    118          1           0        9.890612    3.208475   -3.345787
    119          1           0        9.991517    1.446544   -2.821086
    120          1           0        7.833941    1.984806   -1.595302
    121          1           0        8.206003    3.683347   -1.852845
    122          1           0        9.421351    3.535231   -0.011826
    123          1           0       10.612822    2.587784   -0.935795
    124          1           0        8.343191    1.130458    0.479696
    125          1           0       11.054671    0.030620    0.899939
    126          1           0       10.777152    0.328104   -0.809939
    127          1           0        9.643709   -0.600517    0.064810
    128          1           0        9.413523    2.931206    2.084724
    129          1           0       10.754527    1.709531    2.013130
    130          1           0        8.226085    0.479031    2.716461
    131          1           0        8.775385    1.748558    3.770624
    132          1           0       10.949216   -0.102259    3.249199
    133          1           0        9.625834   -0.935261    3.841958
    134          1           0       10.545185    1.657930    5.081455
    135          1           0       11.380442   -0.548714    6.729821
    136          1           0       12.319750    0.658518    5.936391
    137          1           0       12.131422   -0.755891    5.059671
    138          1           0        8.153355    0.215993    5.597902
    139          1           0        8.872450    1.461475    6.566161
    140          1           0        9.218960   -0.135152    6.979803
 ---------------------------------------------------------------------

 SCF Done:  E(RB-LYP) =  -3007.35924912     A.U. after   22 cycles

 Excitation energies and oscillator strengths:

 Excited State   1:      Singlet-A      1.7797 eV  696.67 nm  f=0.2820  <S**2>=0.000
     245 -> 248        0.20064
     246 -> 247        0.68785
     246 <- 247       -0.14768
 This state for optimization and/or second-order correction.
 Total Energy, E(TD-HF/TD-DFT) =  -3007.29384705
 Copying the excited state density for this state as the 1-particle RhoCI density.

 Excited State   2:      Singlet-A      1.9541 eV  634.50 nm  f=0.0023  <S**2>=0.000
     244 -> 247        0.69372
     245 -> 247        0.12468

 Excited State   3:      Singlet-A      1.9832 eV  625.16 nm  f=0.0748  <S**2>=0.000
     244 -> 247       -0.13340
     245 -> 247        0.63150
     246 -> 248       -0.26508

 Excited State   4:      Singlet-A      2.1421 eV  578.80 nm  f=0.0014  <S**2>=0.000
     243 -> 247        0.70383

 Excited State   5:      Singlet-A      2.4372 eV  508.71 nm  f=0.0001  <S**2>=0.000
     242 -> 247        0.70635

 The electronic state is 1-A.
 Alpha  occ. eigenvalues --  -46.27575 -18.82825 -18.81379 -18.77828 -18.76835
 Alpha  occ. eigenvalues --  -18.75696 -18.75345 -14.03526 -14.02762 -14.01476
 Alpha  occ. eigenvalues --  -14.00588 -10.05063 -10.03129  -9.99714  -9.98994
 Alpha  occ. eigenvalues --   -9.98456  -9.97622  -9.97132  -9.96884  -9.96241
 Alpha  occ. eigenvalues --   -9.95902  -9.95733  -9.95711  -9.95427  -9.94227
 Alpha  occ. eigenvalues --   -9.94029  -9.93973  -9.93752  -9.93744  -9.93623
 Alpha  occ. eigenvalues --   -9.93537  -9.93501  -9.93259  -9.93216  -9.92965
 Alpha  occ. eigenvalues --   -9.92821  -9.92716  -9.92700  -9.92685  -9.92528
 Alpha  occ. eigenvalues --   -9.92422  -9.92233  -9.92204  -9.92187  -9.92172
 Alpha  occ. eigenvalues --   -9.92142  -9.91965  -9.91838  -9.91826  -9.91788
 Alpha  occ. eigenvalues --   -9.91720  -9.91692  -9.91615  -9.91549  -9.91362
 Alpha  occ. eigenvalues --   -9.91354  -9.91173  -9.91116  -9.90802  -9.90683
 Alpha  occ. eigenvalues --   -9.90678  -9.90642  -9.90556  -9.90524  -9.90519
 Alpha  occ. eigenvalues --   -9.90280  -2.92071  -1.72514  -1.71916  -1.71808
 Alpha  occ. eigenvalues --   -0.99177  -0.97570  -0.93866  -0.91022  -0.90114
 Alpha  occ. eigenvalues --   -0.90027  -0.88047  -0.86129  -0.85314  -0.84770
 Alpha  occ. eigenvalues --   -0.74966  -0.74240  -0.73844  -0.73008  -0.72966
 Alpha  occ. eigenvalues --   -0.72259  -0.71955  -0.71273  -0.71004  -0.69961
 Alpha  occ. eigenvalues --   -0.69129  -0.69071  -0.67946  -0.67875  -0.67015
 Alpha  occ. eigenvalues --   -0.66578  -0.66091  -0.65268  -0.64917  -0.64365
 Alpha  occ. eigenvalues --   -0.64186  -0.62609  -0.62044  -0.61944  -0.60884
 Alpha  occ. eigenvalues --   -0.60366  -0.60208  -0.59975  -0.59810  -0.59333
 Alpha  occ. eigenvalues --   -0.58500  -0.57237  -0.56205  -0.56106  -0.55134
 Alpha  occ. eigenvalues --   -0.54279  -0.53972  -0.52826  -0.52708  -0.51742
 Alpha  occ. eigenvalues --   -0.51384  -0.50903  -0.50361  -0.50165  -0.49793
 Alpha  occ. eigenvalues --   -0.49407  -0.49258  -0.48938  -0.48098  -0.46730
 Alpha  occ. eigenvalues --   -0.46380  -0.45890  -0.45410  -0.45152  -0.44625
 Alpha  occ. eigenvalues --   -0.44317  -0.43809  -0.42804  -0.42747  -0.42219
 Alpha  occ. eigenvalues --   -0.41897  -0.41861  -0.41514  -0.41389  -0.41329
 Alpha  occ. eigenvalues --   -0.41013  -0.40881  -0.40846  -0.40273  -0.40205
 Alpha  occ. eigenvalues --   -0.39999  -0.39973  -0.39761  -0.39590  -0.39361
 Alpha  occ. eigenvalues --   -0.39237  -0.38948  -0.38470  -0.38419  -0.38118
 Alpha  occ. eigenvalues --   -0.38053  -0.37766  -0.37564  -0.37503  -0.37274
 Alpha  occ. eigenvalues --   -0.37046  -0.36961  -0.36918  -0.36671  -0.36333
 Alpha  occ. eigenvalues --   -0.36216  -0.36182  -0.35860  -0.35784  -0.35583
 Alpha  occ. eigenvalues --   -0.35463  -0.35186  -0.35078  -0.35005  -0.34730
 Alpha  occ. eigenvalues --   -0.34616  -0.34585  -0.34411  -0.34117  -0.33863
 Alpha  occ. eigenvalues --   -0.33710  -0.33532  -0.33406  -0.33333  -0.33082
 Alpha  occ. eigenvalues --   -0.32877  -0.32695  -0.32565  -0.32554  -0.32364
 Alpha  occ. eigenvalues --   -0.32280  -0.32171  -0.31920  -0.31729  -0.31614
 Alpha  occ. eigenvalues --   -0.31371  -0.31160  -0.31108  -0.30927  -0.30881
 Alpha  occ. eigenvalues --   -0.30648  -0.30442  -0.30332  -0.30179  -0.29958
 Alpha  occ. eigenvalues --   -0.29682  -0.29334  -0.29001  -0.28986  -0.28621
 Alpha  occ. eigenvalues --   -0.28291  -0.28082  -0.27878  -0.27792  -0.27679
 Alpha  occ. eigenvalues --   -0.27329  -0.27159  -0.27066  -0.26935  -0.26275
 Alpha  occ. eigenvalues --   -0.26249  -0.26193  -0.25979  -0.25701  -0.25497
 Alpha  occ. eigenvalues --   -0.25435  -0.25323  -0.24710  -0.24014  -0.23773
 Alpha  occ. eigenvalues --   -0.23491  -0.22726  -0.22433  -0.21853  -0.20762
 Alpha  occ. eigenvalues --   -0.20363  -0.20197  -0.19005  -0.18330  -0.16967
 Alpha  occ. eigenvalues --   -0.15469
 Alpha virt. eigenvalues --   -0.11241  -0.06783  -0.06029  -0.04311  -0.04185
 Alpha virt. eigenvalues --   -0.02181  -0.01787  -0.01156  -0.00974   0.00241
 Alpha virt. eigenvalues --    0.01330   0.01527   0.01615   0.02616   0.02820

 Mulliken charges:
               1
     1  Mg   0.686720
     2  C    0.085391
     3  C   -0.064432
     4  C   -0.039823
     5  C   -0.080832
     6  N   -0.211965
     7  C   -0.094442
     8  C    0.050861
     9  C   -0.073138
    10  C    0.057924
    11  C    0.140989
    12  C    0.162391
    13  C    0.145135
    14  C    0.101592
    15  O   -0.193896
    16  O   -0.284256
    17  N   -0.268380
    18  C    0.112570
    19  C   -0.113580
    20  C    0.027113
    21  C    0.066278
    22  C    0.175256
    23  C   -0.094467
    24  O   -0.120635
    25  C    0.125371
    26  N   -0.158327
    27  C   -0.005654
    28  C    0.008221
    29  C   -0.005196
    30  C    0.029751
    31  C    0.172795
    32  C    0.158233
    33  C    0.074511
    34  N   -0.261288
    35  C    0.063278
    36  C   -0.166936
    37  C    0.094501
    38  C    0.033658
    39  C    0.167434
    40  C   -0.031153
    41  O   -0.141547
    42  C    0.008578
    43  C    0.076608
    44  O   -0.102887
    45  O   -0.290596
    46  C    0.204274
    47  C    0.311407
    48  C   -0.076384
    49  C   -0.221428
    50  C    0.140204
    51  C    0.184141
    52  C    0.055963
    53  C    0.104893
    54  C   -0.079986
    55  C    0.113404
    56  C    0.102835
    57  C    0.006609
    58  C    0.152129
    59  C   -0.049880
    60  C    0.105003
    61  C    0.118830
    62  C    0.093485
    63  C    0.080693
    64  C   -0.101003
    65  C    0.103256
    66  C    0.101771
    67  H   -0.063141
    68  H   -0.039249
    69  H   -0.046424
    70  H   -0.017628
    71  H   -0.028099
    72  H   -0.025357
    73  H   -0.002698
    74  H    0.006419
    75  H   -0.019371
    76  H   -0.029909
    77  H   -0.022494
    78  H   -0.024167
    79  H   -0.002343
    80  H    0.004629
    81  H   -0.022514
    82  H    0.026590
    83  H   -0.018670
    84  H    0.000066
    85  H   -0.034337
    86  H   -0.042226
    87  H   -0.010904
    88  H   -0.017553
    89  H   -0.004283
    90  H   -0.038499
    91  H   -0.028797
    92  H   -0.017175
    93  H   -0.017971
    94  H   -0.005531
    95  H    0.001467
    96  H   -0.033663
    97  H    0.024823
    98  H   -0.002950
    99  H    0.026585
   100  H    0.016233
   101  H    0.012642
   102  H   -0.009435
   103  H    0.012380
   104  H   -0.034929
   105  H   -0.006405
   106  H   -0.004716
   107  H    0.008830
   108  H   -0.001983
   109  H   -0.032979
   110  H   -0.033149
   111  H   -0.032845
   112  H   -0.040504
   113  H   -0.038045
   114  H   -0.029127
   115  H   -0.015743
   116  H   -0.020620
   117  H   -0.014116
   118  H   -0.030729
   119  H   -0.028962
   120  H   -0.030525
   121  H   -0.028581
   122  H   -0.050530
   123  H   -0.031240
   124  H   -0.036178
   125  H   -0.007841
   126  H   -0.024366
   127  H   -0.024230
   128  H   -0.039271
   129  H   -0.039819
   130  H   -0.038783
   131  H   -0.038277
   132  H   -0.043950
   133  H   -0.040225
   134  H   -0.031977
   135  H   -0.015106
   136  H   -0.029956
   137  H   -0.016558
   138  H   -0.011942
   139  H   -0.025367
   140  H   -0.017654
 Sum of Mulliken charges =  -0.00000

 Dipole moment (field-independent basis, Debye):
    X=              4.1427    Y=              2.9271    Z=             -3.2448  Tot=              6.0215
 Quadrupole moment (field-independent basis, Debye-Ang):
   XX=           -388.5866   YY=           -421.9054   ZZ=           -406.4672
   XY=            -24.6565   XZ=              5.6625   YZ=              8.6370

 Normal termination of Gaussian 16 at Wed Apr 27 01:48:56 2022.
