 Gaussian 16, Revision A.03,
 Gaussian 16:  ES64L-G16RevA.03 25-Dec-2016

 -----------------------------------
 #p cam-b3lyp/Def2SVP td=(nstates=5)
 -----------------------------------

 -------------------------------------------------------
 step_101_chromophore_27 TDDFT with cam-b3lyp functional
 -------------------------------------------------------
 Symbolic Z-matrix:
 Charge =  0 Multiplicity = 1

                         Standard orientation:
 ---------------------------------------------------------------------
 Center     Atomic      Atomic             Coordinates (Angstroms)
 Number     Number       Type             X           Y           Z
 ---------------------------------------------------------------------
      1         12           0       -4.702533    0.619216    0.054374
      2          6           0       -3.836957   -2.751645    0.155518
      3          6           0       -1.369196    1.542453    0.404989
      4          6           0       -5.651015    3.911164    0.324748
      5          6           0       -8.060708   -0.237255   -0.098820
      6          7           0       -2.857261   -0.531688    0.172465
      7          6           0       -2.689163   -1.892836    0.089857
      8          6           0       -1.251348   -2.293510   -0.047083
      9          6           0       -0.570329   -0.992757    0.437795
     10          6           0       -1.695798    0.130426    0.346242
     11          6           0        0.298594   -1.128128    1.765332
     12          6           0       -0.680320   -2.740125   -1.399148
     13          6           0        0.448582   -3.790379   -1.247723
     14          6           0        1.945250   -3.461633   -1.055318
     15          8           0        2.419975   -2.958590   -0.036125
     16          8           0        2.657327   -3.741170   -2.212282
     17          7           0       -3.622891    2.459975    0.346961
     18          6           0       -2.247786    2.672327    0.460392
     19          6           0       -1.991193    4.096188    0.568967
     20          6           0       -3.172073    4.785335    0.553337
     21          6           0       -4.213382    3.686123    0.348499
     22          6           0       -0.622176    4.629035    0.641559
     23          6           0       -3.463323    6.227093    0.636797
     24          8           0       -4.570572    6.615791    0.456523
     25          6           0       -2.371383    7.143743    1.118208
     26          7           0       -6.584606    1.659705    0.147176
     27          6           0       -6.702594    2.974496    0.117090
     28          6           0       -8.160604    3.453536    0.126846
     29          6           0       -8.784012    2.184180   -0.475523
     30          6           0       -7.750617    1.111359   -0.140448
     31          6           0       -8.765148    3.935778    1.392775
     32          6           0       -9.345944    2.350392   -1.881309
     33          6           0      -10.739476    2.904405   -1.988902
     34          7           0       -5.821332   -1.133014    0.120687
     35          6           0       -7.180727   -1.329629   -0.004514
     36          6           0       -7.457038   -2.813228    0.058715
     37          6           0       -6.177765   -3.357174    0.110189
     38          6           0       -5.226781   -2.339750    0.141435
     39          6           0       -8.810436   -3.438768    0.335455
     40          6           0       -5.498817   -4.628646    0.259233
     41          8           0       -5.947582   -5.771753    0.407985
     42          6           0       -3.978124   -4.245905    0.235591
     43          6           0       -3.240521   -4.917858    1.406474
     44          8           0       -3.255457   -4.716076    2.546778
     45          8           0       -2.306102   -5.700192    0.800648
     46          6           0       -1.304517   -6.350816    1.689169
     47          6           0        4.138913   -3.662648   -1.990310
     48          6           0        4.573479   -2.237987   -2.036587
     49          6           0        5.805846   -1.834393   -2.421514
     50          6           0        6.928176   -2.885335   -2.549371
     51          6           0        6.216618   -0.387236   -2.725721
     52          6           0        6.684507   -0.167414   -4.140385
     53          6           0        8.165734    0.296247   -4.248688
     54          6           0        8.306940    1.828432   -4.125061
     55          6           0        8.348127    2.522808   -5.494658
     56          6           0        9.358838    2.303013   -3.052930
     57          6           0        8.650098    2.696071   -1.725694
     58          6           0        9.612431    2.582399   -0.503265
     59          6           0        9.380966    1.461660    0.450748
     60          6           0       10.289400    0.272287    0.162411
     61          6           0        9.687817    1.894968    1.887395
     62          6           0        9.101661    1.071388    2.981493
     63          6           0       10.000914    0.083778    3.751479
     64          6           0       10.297571    0.597453    5.138820
     65          6           0       11.578730   -0.117868    5.749143
     66          6           0        9.077109    0.497164    6.102306
     67          1           0       -0.304173    1.764007    0.501056
     68          1           0       -5.977628    4.953302    0.320369
     69          1           0       -9.045371   -0.559163   -0.446124
     70          1           0       -1.087073   -3.024112    0.744978
     71          1           0        0.144312   -0.616378   -0.294674
     72          1           0       -0.127009   -0.419667    2.475028
     73          1           0        1.280637   -0.729740    1.512918
     74          1           0        0.338714   -2.096465    2.263849
     75          1           0       -0.325230   -1.898885   -1.993997
     76          1           0       -1.486520   -3.136093   -2.015534
     77          1           0        0.211021   -4.581834   -1.959124
     78          1           0        0.168903   -4.331451   -0.343542
     79          1           0       -0.529232    5.340110    1.462916
     80          1           0       -0.347334    5.133235   -0.284140
     81          1           0        0.105861    3.827509    0.768192
     82          1           0       -2.059606    6.787800    2.100299
     83          1           0       -2.633484    8.198862    1.193080
     84          1           0       -1.594965    7.155201    0.353052
     85          1           0       -8.155557    4.289082   -0.572895
     86          1           0       -9.629239    1.801389    0.097271
     87          1           0       -8.088444    4.100276    2.231153
     88          1           0       -9.475491    3.206300    1.781766
     89          1           0       -9.269684    4.870082    1.141988
     90          1           0       -9.326334    1.314408   -2.218824
     91          1           0       -8.619644    2.891196   -2.487614
     92          1           0      -10.983324    3.678729   -2.716383
     93          1           0      -11.078284    3.466660   -1.118922
     94          1           0      -11.439573    2.091734   -2.182283
     95          1           0       -9.189185   -4.256003   -0.277874
     96          1           0       -9.503823   -2.638404    0.080529
     97          1           0       -8.871696   -3.718867    1.387000
     98          1           0       -3.615636   -4.767963   -0.649801
     99          1           0       -1.759312   -6.889681    2.519579
    100          1           0       -0.552767   -5.686160    2.114665
    101          1           0       -0.795811   -7.000442    0.976534
    102          1           0        4.410575   -4.207601   -2.894319
    103          1           0        4.532846   -4.264850   -1.171948
    104          1           0        3.746587   -1.529012   -2.010162
    105          1           0        6.803938   -3.664315   -1.796202
    106          1           0        7.839741   -2.314177   -2.378417
    107          1           0        6.869358   -3.364447   -3.526824
    108          1           0        7.077747   -0.301787   -2.061849
    109          1           0        5.341020    0.211106   -2.472807
    110          1           0        6.147277    0.619888   -4.670120
    111          1           0        6.454127   -1.063252   -4.717202
    112          1           0        8.560601    0.040845   -5.232354
    113          1           0        8.690936   -0.358780   -3.553288
    114          1           0        7.390546    2.208987   -3.673878
    115          1           0        9.259280    3.064776   -5.744945
    116          1           0        7.582538    3.285856   -5.351233
    117          1           0        8.103896    1.902166   -6.356064
    118          1           0        9.890612    3.208475   -3.345787
    119          1           0        9.991517    1.446544   -2.821086
    120          1           0        7.833941    1.984806   -1.595302
    121          1           0        8.206003    3.683347   -1.852845
    122          1           0        9.421351    3.535231   -0.011826
    123          1           0       10.612822    2.587784   -0.935795
    124          1           0        8.343191    1.130458    0.479696
    125          1           0       11.054671    0.030620    0.899939
    126          1           0       10.777152    0.328104   -0.809939
    127          1           0        9.643709   -0.600517    0.064810
    128          1           0        9.413523    2.931206    2.084724
    129          1           0       10.754527    1.709531    2.013130
    130          1           0        8.226085    0.479031    2.716461
    131          1           0        8.775385    1.748558    3.770624
    132          1           0       10.949216   -0.102259    3.249199
    133          1           0        9.625834   -0.935261    3.841958
    134          1           0       10.545185    1.657930    5.081455
    135          1           0       11.380442   -0.548714    6.729821
    136          1           0       12.319750    0.658518    5.936391
    137          1           0       12.131422   -0.755891    5.059671
    138          1           0        8.153355    0.215993    5.597902
    139          1           0        8.872450    1.461475    6.566161
    140          1           0        9.218960   -0.135152    6.979803
 ---------------------------------------------------------------------

 SCF Done:  E(RCAM-B3LYP) =  -3007.16204313     A.U. after   18 cycles

 Excitation energies and oscillator strengths:

 Excited State   1:      Singlet-A      1.7074 eV  726.16 nm  f=0.3662  <S**2>=0.000
     245 -> 248        0.18557
     246 -> 247        0.68434
     245 <- 248        0.10818
 This state for optimization and/or second-order correction.
 Total Energy, E(TD-HF/TD-DFT) =  -3007.09929732
 Copying the excited state density for this state as the 1-particle RhoCI density.

 Excited State   2:      Singlet-A      2.2088 eV  561.33 nm  f=0.0845  <S**2>=0.000
     245 -> 247        0.62671
     246 -> 248       -0.31923

 Excited State   3:      Singlet-A      3.4379 eV  360.64 nm  f=0.7073  <S**2>=0.000
     239 -> 247        0.11036
     242 -> 247        0.12023
     245 -> 247        0.30485
     246 -> 248        0.61533
     245 <- 247       -0.11317

 Excited State   4:      Singlet-A      3.5391 eV  350.33 nm  f=0.0027  <S**2>=0.000
     241 -> 247        0.24711
     241 -> 249       -0.18466
     241 -> 250        0.13801
     242 -> 247       -0.17722
     244 -> 247        0.56380

 Excited State   5:      Singlet-A      3.6024 eV  344.17 nm  f=0.0042  <S**2>=0.000
     241 -> 247        0.49533
     241 -> 249       -0.26468
     241 -> 250        0.18237
     242 -> 247        0.15785
     244 -> 247       -0.29789

 The electronic state is 1-A.
 Alpha  occ. eigenvalues --  -46.89124 -19.25686 -19.24199 -19.20832 -19.19810
 Alpha  occ. eigenvalues --  -19.19268 -19.18366 -14.42455 -14.41462 -14.40144
 Alpha  occ. eigenvalues --  -14.38850 -10.40416 -10.38298 -10.35112 -10.34184
 Alpha  occ. eigenvalues --  -10.32538 -10.31927 -10.31642 -10.31188 -10.31102
 Alpha  occ. eigenvalues --  -10.30702 -10.30308 -10.29809 -10.29326 -10.28614
 Alpha  occ. eigenvalues --  -10.28341 -10.28171 -10.28096 -10.27812 -10.27701
 Alpha  occ. eigenvalues --  -10.27617 -10.27484 -10.27409 -10.27340 -10.27156
 Alpha  occ. eigenvalues --  -10.27008 -10.26996 -10.26550 -10.26493 -10.26428
 Alpha  occ. eigenvalues --  -10.26412 -10.26167 -10.26065 -10.26031 -10.25930
 Alpha  occ. eigenvalues --  -10.25890 -10.25710 -10.25693 -10.25680 -10.25515
 Alpha  occ. eigenvalues --  -10.25404 -10.25336 -10.25204 -10.25189 -10.25102
 Alpha  occ. eigenvalues --  -10.25083 -10.24837 -10.24793 -10.24416 -10.24341
 Alpha  occ. eigenvalues --  -10.24303 -10.24283 -10.24218 -10.24169 -10.24143
 Alpha  occ. eigenvalues --  -10.24078  -3.17520  -1.92443  -1.91943  -1.91843
 Alpha  occ. eigenvalues --   -1.17757  -1.15995  -1.12701  -1.08870  -1.08240
 Alpha  occ. eigenvalues --   -1.07941  -1.05750  -1.03834  -1.02838  -1.02425
 Alpha  occ. eigenvalues --   -0.91953  -0.91174  -0.90726  -0.89759  -0.89593
 Alpha  occ. eigenvalues --   -0.89082  -0.88996  -0.87908  -0.87607  -0.86553
 Alpha  occ. eigenvalues --   -0.85458  -0.85371  -0.84218  -0.83966  -0.83219
 Alpha  occ. eigenvalues --   -0.82756  -0.82325  -0.81212  -0.80777  -0.80168
 Alpha  occ. eigenvalues --   -0.79916  -0.78585  -0.77534  -0.77447  -0.76301
 Alpha  occ. eigenvalues --   -0.75712  -0.75592  -0.75348  -0.75076  -0.74628
 Alpha  occ. eigenvalues --   -0.73556  -0.72168  -0.71091  -0.70947  -0.69677
 Alpha  occ. eigenvalues --   -0.68926  -0.68786  -0.67261  -0.67110  -0.65752
 Alpha  occ. eigenvalues --   -0.65503  -0.65152  -0.64400  -0.64246  -0.63755
 Alpha  occ. eigenvalues --   -0.63342  -0.63033  -0.62878  -0.61781  -0.60308
 Alpha  occ. eigenvalues --   -0.60178  -0.59507  -0.59018  -0.58562  -0.58071
 Alpha  occ. eigenvalues --   -0.57762  -0.57257  -0.56048  -0.55744  -0.55458
 Alpha  occ. eigenvalues --   -0.55112  -0.54947  -0.54450  -0.54218  -0.54118
 Alpha  occ. eigenvalues --   -0.54053  -0.53802  -0.53649  -0.53527  -0.53030
 Alpha  occ. eigenvalues --   -0.52833  -0.52519  -0.52337  -0.52235  -0.52035
 Alpha  occ. eigenvalues --   -0.51759  -0.51594  -0.51208  -0.50839  -0.50723
 Alpha  occ. eigenvalues --   -0.50703  -0.50331  -0.50148  -0.49777  -0.49519
 Alpha  occ. eigenvalues --   -0.49332  -0.49254  -0.49052  -0.48996  -0.48850
 Alpha  occ. eigenvalues --   -0.48609  -0.48239  -0.48056  -0.47776  -0.47683
 Alpha  occ. eigenvalues --   -0.47488  -0.47334  -0.46938  -0.46887  -0.46812
 Alpha  occ. eigenvalues --   -0.46451  -0.46373  -0.46305  -0.45999  -0.45759
 Alpha  occ. eigenvalues --   -0.45603  -0.45475  -0.45411  -0.45098  -0.44704
 Alpha  occ. eigenvalues --   -0.44501  -0.44381  -0.44300  -0.44157  -0.44097
 Alpha  occ. eigenvalues --   -0.44013  -0.43869  -0.43554  -0.43460  -0.43413
 Alpha  occ. eigenvalues --   -0.43203  -0.42724  -0.42663  -0.42301  -0.42288
 Alpha  occ. eigenvalues --   -0.42031  -0.41989  -0.41701  -0.41504  -0.41417
 Alpha  occ. eigenvalues --   -0.40845  -0.40813  -0.40069  -0.40065  -0.39633
 Alpha  occ. eigenvalues --   -0.39309  -0.39148  -0.38859  -0.38775  -0.38696
 Alpha  occ. eigenvalues --   -0.38192  -0.38156  -0.37942  -0.37873  -0.37405
 Alpha  occ. eigenvalues --   -0.37071  -0.37039  -0.36946  -0.36735  -0.36688
 Alpha  occ. eigenvalues --   -0.36212  -0.35958  -0.35480  -0.34765  -0.34418
 Alpha  occ. eigenvalues --   -0.34412  -0.34350  -0.32726  -0.31706  -0.31580
 Alpha  occ. eigenvalues --   -0.30270  -0.29979  -0.29888  -0.29476  -0.23736
 Alpha  occ. eigenvalues --   -0.20705
 Alpha virt. eigenvalues --   -0.08251  -0.01710   0.00480   0.02654   0.02963
 Alpha virt. eigenvalues --    0.03576   0.05490   0.05664   0.06555   0.07133
 Alpha virt. eigenvalues --    0.07788   0.08307   0.08617   0.08840   0.09399

 Mulliken charges:
               1
     1  Mg   0.819311
     2  C    0.054893
     3  C   -0.078073
     4  C   -0.061037
     5  C   -0.082214
     6  N   -0.285152
     7  C   -0.051394
     8  C    0.002705
     9  C   -0.121422
    10  C    0.079408
    11  C    0.084725
    12  C    0.107831
    13  C    0.074623
    14  C    0.179071
    15  O   -0.234770
    16  O   -0.347145
    17  N   -0.353894
    18  C    0.122466
    19  C   -0.119884
    20  C   -0.037979
    21  C    0.099262
    22  C    0.115481
    23  C   -0.013120
    24  O   -0.160809
    25  C    0.040149
    26  N   -0.232681
    27  C    0.018978
    28  C   -0.050046
    29  C   -0.064070
    30  C    0.046211
    31  C    0.109912
    32  C    0.101854
    33  C    0.009804
    34  N   -0.348396
    35  C    0.062473
    36  C   -0.164570
    37  C    0.016439
    38  C    0.064499
    39  C    0.121728
    40  C    0.069212
    41  O   -0.182237
    42  C   -0.062812
    43  C    0.162493
    44  O   -0.140383
    45  O   -0.354841
    46  C    0.166397
    47  C    0.270128
    48  C   -0.091175
    49  C   -0.232689
    50  C    0.076897
    51  C    0.122788
    52  C   -0.002903
    53  C    0.053498
    54  C   -0.138668
    55  C    0.054980
    56  C    0.055145
    57  C   -0.037175
    58  C    0.088719
    59  C   -0.106281
    60  C    0.047814
    61  C    0.065259
    62  C    0.033649
    63  C    0.027439
    64  C   -0.158657
    65  C    0.043682
    66  C    0.039478
    67  H   -0.028240
    68  H    0.000689
    69  H   -0.015828
    70  H    0.014409
    71  H    0.004531
    72  H    0.000448
    73  H    0.021247
    74  H    0.030427
    75  H    0.010569
    76  H    0.004044
    77  H    0.015167
    78  H    0.005272
    79  H    0.025589
    80  H    0.033698
    81  H    0.007530
    82  H    0.053334
    83  H    0.019239
    84  H    0.028517
    85  H    0.001539
    86  H   -0.005340
    87  H    0.016607
    88  H    0.008639
    89  H    0.019558
    90  H   -0.008293
    91  H   -0.001148
    92  H    0.008659
    93  H    0.004626
    94  H    0.018283
    95  H    0.027031
    96  H   -0.011886
    97  H    0.048417
    98  H    0.040099
    99  H    0.051138
   100  H    0.035383
   101  H    0.035803
   102  H    0.022013
   103  H    0.040751
   104  H   -0.002514
   105  H    0.018382
   106  H    0.016533
   107  H    0.033062
   108  H    0.020429
   109  H   -0.001106
   110  H   -0.004194
   111  H   -0.001317
   112  H   -0.008898
   113  H   -0.013564
   114  H    0.002072
   115  H    0.009184
   116  H    0.002841
   117  H    0.010336
   118  H   -0.001641
   119  H   -0.003903
   120  H   -0.006678
   121  H   -0.000316
   122  H   -0.017932
   123  H   -0.001633
   124  H   -0.004445
   125  H    0.014887
   126  H   -0.000974
   127  H   -0.001108
   128  H   -0.008628
   129  H   -0.011672
   130  H   -0.008962
   131  H   -0.008082
   132  H   -0.017567
   133  H   -0.009373
   134  H   -0.000524
   135  H    0.008796
   136  H   -0.005155
   137  H    0.007903
   138  H    0.011590
   139  H   -0.000547
   140  H    0.007278
 Sum of Mulliken charges =  -0.00000

 Dipole moment (field-independent basis, Debye):
    X=              4.8417    Y=              3.8609    Z=             -3.2383  Tot=              6.9882
 Quadrupole moment (field-independent basis, Debye-Ang):
   XX=           -392.0450   YY=           -416.0390   ZZ=           -406.7436
   XY=            -27.9394   XZ=              6.4076   YZ=              9.5831

 Normal termination of Gaussian 16 at Wed Apr 27 00:45:10 2022.
