 Gaussian 16, Revision A.03,
 Gaussian 16:  ES64L-G16RevA.03 25-Dec-2016

 ---------------------------------
 #p PBE1PBE/Def2SVP td=(nstates=5)
 ---------------------------------

 -----------------------------------------------------
 step_101_chromophore_27 TDDFT with PBE1PBE functional
 -----------------------------------------------------
 Symbolic Z-matrix:
 Charge =  0 Multiplicity = 1

                         Standard orientation:
 ---------------------------------------------------------------------
 Center     Atomic      Atomic             Coordinates (Angstroms)
 Number     Number       Type             X           Y           Z
 ---------------------------------------------------------------------
      1         12           0       -4.702533    0.619216    0.054374
      2          6           0       -3.836957   -2.751645    0.155518
      3          6           0       -1.369196    1.542453    0.404989
      4          6           0       -5.651015    3.911164    0.324748
      5          6           0       -8.060708   -0.237255   -0.098820
      6          7           0       -2.857261   -0.531688    0.172465
      7          6           0       -2.689163   -1.892836    0.089857
      8          6           0       -1.251348   -2.293510   -0.047083
      9          6           0       -0.570329   -0.992757    0.437795
     10          6           0       -1.695798    0.130426    0.346242
     11          6           0        0.298594   -1.128128    1.765332
     12          6           0       -0.680320   -2.740125   -1.399148
     13          6           0        0.448582   -3.790379   -1.247723
     14          6           0        1.945250   -3.461633   -1.055318
     15          8           0        2.419975   -2.958590   -0.036125
     16          8           0        2.657327   -3.741170   -2.212282
     17          7           0       -3.622891    2.459975    0.346961
     18          6           0       -2.247786    2.672327    0.460392
     19          6           0       -1.991193    4.096188    0.568967
     20          6           0       -3.172073    4.785335    0.553337
     21          6           0       -4.213382    3.686123    0.348499
     22          6           0       -0.622176    4.629035    0.641559
     23          6           0       -3.463323    6.227093    0.636797
     24          8           0       -4.570572    6.615791    0.456523
     25          6           0       -2.371383    7.143743    1.118208
     26          7           0       -6.584606    1.659705    0.147176
     27          6           0       -6.702594    2.974496    0.117090
     28          6           0       -8.160604    3.453536    0.126846
     29          6           0       -8.784012    2.184180   -0.475523
     30          6           0       -7.750617    1.111359   -0.140448
     31          6           0       -8.765148    3.935778    1.392775
     32          6           0       -9.345944    2.350392   -1.881309
     33          6           0      -10.739476    2.904405   -1.988902
     34          7           0       -5.821332   -1.133014    0.120687
     35          6           0       -7.180727   -1.329629   -0.004514
     36          6           0       -7.457038   -2.813228    0.058715
     37          6           0       -6.177765   -3.357174    0.110189
     38          6           0       -5.226781   -2.339750    0.141435
     39          6           0       -8.810436   -3.438768    0.335455
     40          6           0       -5.498817   -4.628646    0.259233
     41          8           0       -5.947582   -5.771753    0.407985
     42          6           0       -3.978124   -4.245905    0.235591
     43          6           0       -3.240521   -4.917858    1.406474
     44          8           0       -3.255457   -4.716076    2.546778
     45          8           0       -2.306102   -5.700192    0.800648
     46          6           0       -1.304517   -6.350816    1.689169
     47          6           0        4.138913   -3.662648   -1.990310
     48          6           0        4.573479   -2.237987   -2.036587
     49          6           0        5.805846   -1.834393   -2.421514
     50          6           0        6.928176   -2.885335   -2.549371
     51          6           0        6.216618   -0.387236   -2.725721
     52          6           0        6.684507   -0.167414   -4.140385
     53          6           0        8.165734    0.296247   -4.248688
     54          6           0        8.306940    1.828432   -4.125061
     55          6           0        8.348127    2.522808   -5.494658
     56          6           0        9.358838    2.303013   -3.052930
     57          6           0        8.650098    2.696071   -1.725694
     58          6           0        9.612431    2.582399   -0.503265
     59          6           0        9.380966    1.461660    0.450748
     60          6           0       10.289400    0.272287    0.162411
     61          6           0        9.687817    1.894968    1.887395
     62          6           0        9.101661    1.071388    2.981493
     63          6           0       10.000914    0.083778    3.751479
     64          6           0       10.297571    0.597453    5.138820
     65          6           0       11.578730   -0.117868    5.749143
     66          6           0        9.077109    0.497164    6.102306
     67          1           0       -0.304173    1.764007    0.501056
     68          1           0       -5.977628    4.953302    0.320369
     69          1           0       -9.045371   -0.559163   -0.446124
     70          1           0       -1.087073   -3.024112    0.744978
     71          1           0        0.144312   -0.616378   -0.294674
     72          1           0       -0.127009   -0.419667    2.475028
     73          1           0        1.280637   -0.729740    1.512918
     74          1           0        0.338714   -2.096465    2.263849
     75          1           0       -0.325230   -1.898885   -1.993997
     76          1           0       -1.486520   -3.136093   -2.015534
     77          1           0        0.211021   -4.581834   -1.959124
     78          1           0        0.168903   -4.331451   -0.343542
     79          1           0       -0.529232    5.340110    1.462916
     80          1           0       -0.347334    5.133235   -0.284140
     81          1           0        0.105861    3.827509    0.768192
     82          1           0       -2.059606    6.787800    2.100299
     83          1           0       -2.633484    8.198862    1.193080
     84          1           0       -1.594965    7.155201    0.353052
     85          1           0       -8.155557    4.289082   -0.572895
     86          1           0       -9.629239    1.801389    0.097271
     87          1           0       -8.088444    4.100276    2.231153
     88          1           0       -9.475491    3.206300    1.781766
     89          1           0       -9.269684    4.870082    1.141988
     90          1           0       -9.326334    1.314408   -2.218824
     91          1           0       -8.619644    2.891196   -2.487614
     92          1           0      -10.983324    3.678729   -2.716383
     93          1           0      -11.078284    3.466660   -1.118922
     94          1           0      -11.439573    2.091734   -2.182283
     95          1           0       -9.189185   -4.256003   -0.277874
     96          1           0       -9.503823   -2.638404    0.080529
     97          1           0       -8.871696   -3.718867    1.387000
     98          1           0       -3.615636   -4.767963   -0.649801
     99          1           0       -1.759312   -6.889681    2.519579
    100          1           0       -0.552767   -5.686160    2.114665
    101          1           0       -0.795811   -7.000442    0.976534
    102          1           0        4.410575   -4.207601   -2.894319
    103          1           0        4.532846   -4.264850   -1.171948
    104          1           0        3.746587   -1.529012   -2.010162
    105          1           0        6.803938   -3.664315   -1.796202
    106          1           0        7.839741   -2.314177   -2.378417
    107          1           0        6.869358   -3.364447   -3.526824
    108          1           0        7.077747   -0.301787   -2.061849
    109          1           0        5.341020    0.211106   -2.472807
    110          1           0        6.147277    0.619888   -4.670120
    111          1           0        6.454127   -1.063252   -4.717202
    112          1           0        8.560601    0.040845   -5.232354
    113          1           0        8.690936   -0.358780   -3.553288
    114          1           0        7.390546    2.208987   -3.673878
    115          1           0        9.259280    3.064776   -5.744945
    116          1           0        7.582538    3.285856   -5.351233
    117          1           0        8.103896    1.902166   -6.356064
    118          1           0        9.890612    3.208475   -3.345787
    119          1           0        9.991517    1.446544   -2.821086
    120          1           0        7.833941    1.984806   -1.595302
    121          1           0        8.206003    3.683347   -1.852845
    122          1           0        9.421351    3.535231   -0.011826
    123          1           0       10.612822    2.587784   -0.935795
    124          1           0        8.343191    1.130458    0.479696
    125          1           0       11.054671    0.030620    0.899939
    126          1           0       10.777152    0.328104   -0.809939
    127          1           0        9.643709   -0.600517    0.064810
    128          1           0        9.413523    2.931206    2.084724
    129          1           0       10.754527    1.709531    2.013130
    130          1           0        8.226085    0.479031    2.716461
    131          1           0        8.775385    1.748558    3.770624
    132          1           0       10.949216   -0.102259    3.249199
    133          1           0        9.625834   -0.935261    3.841958
    134          1           0       10.545185    1.657930    5.081455
    135          1           0       11.380442   -0.548714    6.729821
    136          1           0       12.319750    0.658518    5.936391
    137          1           0       12.131422   -0.755891    5.059671
    138          1           0        8.153355    0.215993    5.597902
    139          1           0        8.872450    1.461475    6.566161
    140          1           0        9.218960   -0.135152    6.979803
 ---------------------------------------------------------------------

 SCF Done:  E(RPBE1PBE) =  -3005.35155320     A.U. after   16 cycles

 Excitation energies and oscillator strengths:

 Excited State   1:      Singlet-A      1.8399 eV  673.87 nm  f=0.3528  <S**2>=0.000
     245 -> 248        0.18058
     246 -> 247        0.69127
     246 <- 247       -0.10470
 This state for optimization and/or second-order correction.
 Total Energy, E(TD-HF/TD-DFT) =  -3005.28393916
 Copying the excited state density for this state as the 1-particle RhoCI density.

 Excited State   2:      Singlet-A      2.2068 eV  561.83 nm  f=0.0896  <S**2>=0.000
     245 -> 247        0.64269
     246 -> 248       -0.28920

 Excited State   3:      Singlet-A      3.0372 eV  408.22 nm  f=0.0001  <S**2>=0.000
     242 -> 247        0.29394
     242 -> 249        0.10907
     244 -> 247        0.59913
     244 -> 249        0.13973

 Excited State   4:      Singlet-A      3.1867 eV  389.07 nm  f=0.0101  <S**2>=0.000
     240 -> 247       -0.10400
     242 -> 247        0.60545
     244 -> 247       -0.30121
     246 -> 248       -0.12584

 Excited State   5:      Singlet-A      3.2412 eV  382.52 nm  f=0.0646  <S**2>=0.000
     240 -> 247        0.57252
     240 -> 249       -0.14254
     241 -> 247       -0.21838
     245 -> 247       -0.10083
     246 -> 248       -0.26232

 The electronic state is 1-A.
 Alpha  occ. eigenvalues --  -46.92528 -19.26434 -19.24947 -19.21116 -19.20047
 Alpha  occ. eigenvalues --  -19.19249 -19.18758 -14.41942 -14.40977 -14.39703
 Alpha  occ. eigenvalues --  -14.38625 -10.37479 -10.35366 -10.32003 -10.31474
 Alpha  occ. eigenvalues --  -10.29956 -10.29513 -10.29089 -10.28921 -10.28589
 Alpha  occ. eigenvalues --  -10.28123 -10.27888 -10.27690 -10.27358 -10.26191
 Alpha  occ. eigenvalues --  -10.26117 -10.25937 -10.25667 -10.25628 -10.25465
 Alpha  occ. eigenvalues --  -10.25251 -10.25242 -10.25194 -10.25141 -10.24831
 Alpha  occ. eigenvalues --  -10.24426 -10.24328 -10.24309 -10.24224 -10.23822
 Alpha  occ. eigenvalues --  -10.23800 -10.23724 -10.23698 -10.23638 -10.23615
 Alpha  occ. eigenvalues --  -10.23586 -10.23374 -10.23290 -10.23234 -10.23050
 Alpha  occ. eigenvalues --  -10.22972 -10.22859 -10.22785 -10.22639 -10.22630
 Alpha  occ. eigenvalues --  -10.22545 -10.22372 -10.22180 -10.21991 -10.21885
 Alpha  occ. eigenvalues --  -10.21802 -10.21745 -10.21690 -10.21688 -10.21687
 Alpha  occ. eigenvalues --  -10.21670  -3.14510  -1.87373  -1.86850  -1.86755
 Alpha  occ. eigenvalues --   -1.12607  -1.10814  -1.07251  -1.03799  -1.03114
 Alpha  occ. eigenvalues --   -1.02827  -1.00438  -0.98453  -0.97550  -0.97053
 Alpha  occ. eigenvalues --   -0.86420  -0.85262  -0.84832  -0.84003  -0.83907
 Alpha  occ. eigenvalues --   -0.83154  -0.83109  -0.82017  -0.81955  -0.80868
 Alpha  occ. eigenvalues --   -0.79901  -0.79572  -0.78426  -0.78286  -0.77416
 Alpha  occ. eigenvalues --   -0.76928  -0.76489  -0.75481  -0.74990  -0.74507
 Alpha  occ. eigenvalues --   -0.74132  -0.72738  -0.71844  -0.71794  -0.70432
 Alpha  occ. eigenvalues --   -0.70091  -0.69679  -0.69468  -0.69418  -0.68795
 Alpha  occ. eigenvalues --   -0.67887  -0.66636  -0.65544  -0.65256  -0.64069
 Alpha  occ. eigenvalues --   -0.63210  -0.63125  -0.61773  -0.61341  -0.60227
 Alpha  occ. eigenvalues --   -0.59940  -0.59341  -0.58975  -0.58368  -0.58346
 Alpha  occ. eigenvalues --   -0.57654  -0.57442  -0.57024  -0.56413  -0.54655
 Alpha  occ. eigenvalues --   -0.54585  -0.54077  -0.53590  -0.53139  -0.52652
 Alpha  occ. eigenvalues --   -0.52275  -0.51814  -0.50590  -0.50211  -0.50059
 Alpha  occ. eigenvalues --   -0.49677  -0.49519  -0.48825  -0.48733  -0.48503
 Alpha  occ. eigenvalues --   -0.48473  -0.48201  -0.48142  -0.47954  -0.47562
 Alpha  occ. eigenvalues --   -0.47437  -0.47018  -0.46872  -0.46792  -0.46511
 Alpha  occ. eigenvalues --   -0.46457  -0.46155  -0.45777  -0.45354  -0.45252
 Alpha  occ. eigenvalues --   -0.45060  -0.44997  -0.44758  -0.44365  -0.44114
 Alpha  occ. eigenvalues --   -0.43948  -0.43852  -0.43709  -0.43608  -0.43411
 Alpha  occ. eigenvalues --   -0.43164  -0.42810  -0.42750  -0.42442  -0.42381
 Alpha  occ. eigenvalues --   -0.42211  -0.42017  -0.41518  -0.41481  -0.41393
 Alpha  occ. eigenvalues --   -0.41256  -0.41112  -0.40970  -0.40657  -0.40381
 Alpha  occ. eigenvalues --   -0.40332  -0.40148  -0.40110  -0.39811  -0.39322
 Alpha  occ. eigenvalues --   -0.39300  -0.39262  -0.39190  -0.38921  -0.38784
 Alpha  occ. eigenvalues --   -0.38705  -0.38527  -0.38259  -0.38234  -0.38095
 Alpha  occ. eigenvalues --   -0.37879  -0.37606  -0.37453  -0.37127  -0.37041
 Alpha  occ. eigenvalues --   -0.36899  -0.36877  -0.36577  -0.36344  -0.36291
 Alpha  occ. eigenvalues --   -0.35696  -0.35602  -0.34924  -0.34817  -0.34425
 Alpha  occ. eigenvalues --   -0.34153  -0.34105  -0.33781  -0.33669  -0.33590
 Alpha  occ. eigenvalues --   -0.33157  -0.32963  -0.32776  -0.32666  -0.32427
 Alpha  occ. eigenvalues --   -0.32076  -0.31968  -0.31874  -0.31646  -0.31457
 Alpha  occ. eigenvalues --   -0.31004  -0.30812  -0.30535  -0.29725  -0.29553
 Alpha  occ. eigenvalues --   -0.29376  -0.29373  -0.28308  -0.27112  -0.26159
 Alpha  occ. eigenvalues --   -0.25677  -0.25379  -0.25162  -0.25117  -0.20647
 Alpha  occ. eigenvalues --   -0.18368
 Alpha virt. eigenvalues --   -0.10783  -0.05192  -0.03749  -0.01721  -0.01033
 Alpha virt. eigenvalues --    0.00143   0.01173   0.01588   0.02277   0.03025
 Alpha virt. eigenvalues --    0.04175   0.04405   0.04629   0.05429   0.05730

 Mulliken charges:
               1
     1  Mg   0.966419
     2  C    0.037526
     3  C   -0.072827
     4  C   -0.045620
     5  C   -0.077050
     6  N   -0.395128
     7  C    0.020298
     8  C   -0.069910
     9  C   -0.189609
    10  C    0.116547
    11  C    0.025978
    12  C    0.056936
    13  C   -0.005498
    14  C    0.240236
    15  O   -0.264582
    16  O   -0.373596
    17  N   -0.462815
    18  C    0.144822
    19  C   -0.156783
    20  C   -0.085607
    21  C    0.133807
    22  C    0.059156
    23  C    0.040271
    24  O   -0.202392
    25  C   -0.035678
    26  N   -0.340764
    27  C    0.048343
    28  C   -0.124640
    29  C   -0.143141
    30  C    0.088044
    31  C    0.055354
    32  C    0.035334
    33  C   -0.058540
    34  N   -0.473081
    35  C    0.088381
    36  C   -0.174000
    37  C   -0.037475
    38  C    0.117938
    39  C    0.067105
    40  C    0.163943
    41  O   -0.229032
    42  C   -0.162195
    43  C    0.256443
    44  O   -0.179305
    45  O   -0.386711
    46  C    0.109507
    47  C    0.219843
    48  C   -0.092883
    49  C   -0.269232
    50  C    0.009822
    51  C    0.048479
    52  C   -0.065615
    53  C   -0.005739
    54  C   -0.225232
    55  C   -0.001808
    56  C   -0.001329
    57  C   -0.101186
    58  C    0.030932
    59  C   -0.195532
    60  C   -0.007565
    61  C    0.004717
    62  C   -0.025842
    63  C   -0.027440
    64  C   -0.254488
    65  C   -0.015913
    66  C   -0.018465
    67  H    0.003710
    68  H    0.031914
    69  H    0.014400
    70  H    0.058142
    71  H    0.042051
    72  H    0.029800
    73  H    0.047618
    74  H    0.055081
    75  H    0.043007
    76  H    0.037310
    77  H    0.046755
    78  H    0.043709
    79  H    0.052012
    80  H    0.060682
    81  H    0.035127
    82  H    0.079180
    83  H    0.046616
    84  H    0.055627
    85  H    0.038844
    86  H    0.032830
    87  H    0.044240
    88  H    0.035598
    89  H    0.046142
    90  H    0.026856
    91  H    0.032592
    92  H    0.036612
    93  H    0.032272
    94  H    0.045417
    95  H    0.055039
    96  H    0.017724
    97  H    0.076495
    98  H    0.078684
    99  H    0.073075
   100  H    0.056324
   101  H    0.057884
   102  H    0.049518
   103  H    0.066586
   104  H    0.027207
   105  H    0.046712
   106  H    0.044244
   107  H    0.059924
   108  H    0.055736
   109  H    0.030980
   110  H    0.030086
   111  H    0.031888
   112  H    0.024796
   113  H    0.019796
   114  H    0.041816
   115  H    0.036298
   116  H    0.030252
   117  H    0.036376
   118  H    0.031330
   119  H    0.032263
   120  H    0.031013
   121  H    0.032164
   122  H    0.015758
   123  H    0.030954
   124  H    0.032724
   125  H    0.041156
   126  H    0.026544
   127  H    0.027029
   128  H    0.023156
   129  H    0.023186
   130  H    0.022795
   131  H    0.026466
   132  H    0.015754
   133  H    0.023439
   134  H    0.038063
   135  H    0.035614
   136  H    0.023064
   137  H    0.034070
   138  H    0.038624
   139  H    0.027177
   140  H    0.034139
 Sum of Mulliken charges =  -0.00000

 Dipole moment (field-independent basis, Debye):
    X=              4.4830    Y=              3.4556    Z=             -3.2957  Tot=              6.5498
 Quadrupole moment (field-independent basis, Debye-Ang):
   XX=           -383.7316   YY=           -414.0236   ZZ=           -404.1903
   XY=            -26.8628   XZ=              6.7277   YZ=              9.2523

 Normal termination of Gaussian 16 at Wed Apr 27 01:06:22 2022.
