 Gaussian 16, Revision A.03,
 Gaussian 16:  ES64L-G16RevA.03 25-Dec-2016

 --------------------------------
 #p wB97XD/Def2SVP td=(nstates=5)
 --------------------------------

 ----------------------------------------------------
 step_101_chromophore_27 TDDFT with wB97XD functional
 ----------------------------------------------------
 Symbolic Z-matrix:
 Charge =  0 Multiplicity = 1

                         Standard orientation:
 ---------------------------------------------------------------------
 Center     Atomic      Atomic             Coordinates (Angstroms)
 Number     Number       Type             X           Y           Z
 ---------------------------------------------------------------------
      1         12           0       -4.702533    0.619216    0.054374
      2          6           0       -3.836957   -2.751645    0.155518
      3          6           0       -1.369196    1.542453    0.404989
      4          6           0       -5.651015    3.911164    0.324748
      5          6           0       -8.060708   -0.237255   -0.098820
      6          7           0       -2.857261   -0.531688    0.172465
      7          6           0       -2.689163   -1.892836    0.089857
      8          6           0       -1.251348   -2.293510   -0.047083
      9          6           0       -0.570329   -0.992757    0.437795
     10          6           0       -1.695798    0.130426    0.346242
     11          6           0        0.298594   -1.128128    1.765332
     12          6           0       -0.680320   -2.740125   -1.399148
     13          6           0        0.448582   -3.790379   -1.247723
     14          6           0        1.945250   -3.461633   -1.055318
     15          8           0        2.419975   -2.958590   -0.036125
     16          8           0        2.657327   -3.741170   -2.212282
     17          7           0       -3.622891    2.459975    0.346961
     18          6           0       -2.247786    2.672327    0.460392
     19          6           0       -1.991193    4.096188    0.568967
     20          6           0       -3.172073    4.785335    0.553337
     21          6           0       -4.213382    3.686123    0.348499
     22          6           0       -0.622176    4.629035    0.641559
     23          6           0       -3.463323    6.227093    0.636797
     24          8           0       -4.570572    6.615791    0.456523
     25          6           0       -2.371383    7.143743    1.118208
     26          7           0       -6.584606    1.659705    0.147176
     27          6           0       -6.702594    2.974496    0.117090
     28          6           0       -8.160604    3.453536    0.126846
     29          6           0       -8.784012    2.184180   -0.475523
     30          6           0       -7.750617    1.111359   -0.140448
     31          6           0       -8.765148    3.935778    1.392775
     32          6           0       -9.345944    2.350392   -1.881309
     33          6           0      -10.739476    2.904405   -1.988902
     34          7           0       -5.821332   -1.133014    0.120687
     35          6           0       -7.180727   -1.329629   -0.004514
     36          6           0       -7.457038   -2.813228    0.058715
     37          6           0       -6.177765   -3.357174    0.110189
     38          6           0       -5.226781   -2.339750    0.141435
     39          6           0       -8.810436   -3.438768    0.335455
     40          6           0       -5.498817   -4.628646    0.259233
     41          8           0       -5.947582   -5.771753    0.407985
     42          6           0       -3.978124   -4.245905    0.235591
     43          6           0       -3.240521   -4.917858    1.406474
     44          8           0       -3.255457   -4.716076    2.546778
     45          8           0       -2.306102   -5.700192    0.800648
     46          6           0       -1.304517   -6.350816    1.689169
     47          6           0        4.138913   -3.662648   -1.990310
     48          6           0        4.573479   -2.237987   -2.036587
     49          6           0        5.805846   -1.834393   -2.421514
     50          6           0        6.928176   -2.885335   -2.549371
     51          6           0        6.216618   -0.387236   -2.725721
     52          6           0        6.684507   -0.167414   -4.140385
     53          6           0        8.165734    0.296247   -4.248688
     54          6           0        8.306940    1.828432   -4.125061
     55          6           0        8.348127    2.522808   -5.494658
     56          6           0        9.358838    2.303013   -3.052930
     57          6           0        8.650098    2.696071   -1.725694
     58          6           0        9.612431    2.582399   -0.503265
     59          6           0        9.380966    1.461660    0.450748
     60          6           0       10.289400    0.272287    0.162411
     61          6           0        9.687817    1.894968    1.887395
     62          6           0        9.101661    1.071388    2.981493
     63          6           0       10.000914    0.083778    3.751479
     64          6           0       10.297571    0.597453    5.138820
     65          6           0       11.578730   -0.117868    5.749143
     66          6           0        9.077109    0.497164    6.102306
     67          1           0       -0.304173    1.764007    0.501056
     68          1           0       -5.977628    4.953302    0.320369
     69          1           0       -9.045371   -0.559163   -0.446124
     70          1           0       -1.087073   -3.024112    0.744978
     71          1           0        0.144312   -0.616378   -0.294674
     72          1           0       -0.127009   -0.419667    2.475028
     73          1           0        1.280637   -0.729740    1.512918
     74          1           0        0.338714   -2.096465    2.263849
     75          1           0       -0.325230   -1.898885   -1.993997
     76          1           0       -1.486520   -3.136093   -2.015534
     77          1           0        0.211021   -4.581834   -1.959124
     78          1           0        0.168903   -4.331451   -0.343542
     79          1           0       -0.529232    5.340110    1.462916
     80          1           0       -0.347334    5.133235   -0.284140
     81          1           0        0.105861    3.827509    0.768192
     82          1           0       -2.059606    6.787800    2.100299
     83          1           0       -2.633484    8.198862    1.193080
     84          1           0       -1.594965    7.155201    0.353052
     85          1           0       -8.155557    4.289082   -0.572895
     86          1           0       -9.629239    1.801389    0.097271
     87          1           0       -8.088444    4.100276    2.231153
     88          1           0       -9.475491    3.206300    1.781766
     89          1           0       -9.269684    4.870082    1.141988
     90          1           0       -9.326334    1.314408   -2.218824
     91          1           0       -8.619644    2.891196   -2.487614
     92          1           0      -10.983324    3.678729   -2.716383
     93          1           0      -11.078284    3.466660   -1.118922
     94          1           0      -11.439573    2.091734   -2.182283
     95          1           0       -9.189185   -4.256003   -0.277874
     96          1           0       -9.503823   -2.638404    0.080529
     97          1           0       -8.871696   -3.718867    1.387000
     98          1           0       -3.615636   -4.767963   -0.649801
     99          1           0       -1.759312   -6.889681    2.519579
    100          1           0       -0.552767   -5.686160    2.114665
    101          1           0       -0.795811   -7.000442    0.976534
    102          1           0        4.410575   -4.207601   -2.894319
    103          1           0        4.532846   -4.264850   -1.171948
    104          1           0        3.746587   -1.529012   -2.010162
    105          1           0        6.803938   -3.664315   -1.796202
    106          1           0        7.839741   -2.314177   -2.378417
    107          1           0        6.869358   -3.364447   -3.526824
    108          1           0        7.077747   -0.301787   -2.061849
    109          1           0        5.341020    0.211106   -2.472807
    110          1           0        6.147277    0.619888   -4.670120
    111          1           0        6.454127   -1.063252   -4.717202
    112          1           0        8.560601    0.040845   -5.232354
    113          1           0        8.690936   -0.358780   -3.553288
    114          1           0        7.390546    2.208987   -3.673878
    115          1           0        9.259280    3.064776   -5.744945
    116          1           0        7.582538    3.285856   -5.351233
    117          1           0        8.103896    1.902166   -6.356064
    118          1           0        9.890612    3.208475   -3.345787
    119          1           0        9.991517    1.446544   -2.821086
    120          1           0        7.833941    1.984806   -1.595302
    121          1           0        8.206003    3.683347   -1.852845
    122          1           0        9.421351    3.535231   -0.011826
    123          1           0       10.612822    2.587784   -0.935795
    124          1           0        8.343191    1.130458    0.479696
    125          1           0       11.054671    0.030620    0.899939
    126          1           0       10.777152    0.328104   -0.809939
    127          1           0        9.643709   -0.600517    0.064810
    128          1           0        9.413523    2.931206    2.084724
    129          1           0       10.754527    1.709531    2.013130
    130          1           0        8.226085    0.479031    2.716461
    131          1           0        8.775385    1.748558    3.770624
    132          1           0       10.949216   -0.102259    3.249199
    133          1           0        9.625834   -0.935261    3.841958
    134          1           0       10.545185    1.657930    5.081455
    135          1           0       11.380442   -0.548714    6.729821
    136          1           0       12.319750    0.658518    5.936391
    137          1           0       12.131422   -0.755891    5.059671
    138          1           0        8.153355    0.215993    5.597902
    139          1           0        8.872450    1.461475    6.566161
    140          1           0        9.218960   -0.135152    6.979803
 ---------------------------------------------------------------------

 SCF Done:  E(RwB97XD) =  -3007.86046550     A.U. after   20 cycles

 Excitation energies and oscillator strengths:

 Excited State   1:      Singlet-A      1.6586 eV  747.54 nm  f=0.3640  <S**2>=0.000
     245 -> 248       -0.19027
     246 -> 247        0.68218
     245 <- 248       -0.11679
 This state for optimization and/or second-order correction.
 Total Energy, E(TD-HF/TD-DFT) =  -3007.79951435
 Copying the excited state density for this state as the 1-particle RhoCI density.

 Excited State   2:      Singlet-A      2.1533 eV  575.78 nm  f=0.0818  <S**2>=0.000
     245 -> 247        0.62480
     246 -> 248        0.32139

 Excited State   3:      Singlet-A      3.4447 eV  359.93 nm  f=0.7148  <S**2>=0.000
     239 -> 247       -0.12482
     242 -> 247       -0.13549
     245 -> 247       -0.30231
     246 -> 248        0.61159
     245 <- 247        0.11787

 Excited State   4:      Singlet-A      3.5749 eV  346.82 nm  f=0.0046  <S**2>=0.000
     239 -> 247       -0.11189
     241 -> 247        0.12478
     241 -> 249       -0.16996
     241 -> 250       -0.13705
     242 -> 247       -0.25837
     244 -> 247        0.56644
     244 -> 249       -0.10810

 Excited State   5:      Singlet-A      3.6405 eV  340.57 nm  f=0.0067  <S**2>=0.000
     241 -> 247        0.52377
     241 -> 249       -0.28867
     241 -> 250       -0.20703
     244 -> 247       -0.20756

 The electronic state is 1-A.
 Alpha  occ. eigenvalues --  -46.95460 -19.30962 -19.29434 -19.25773 -19.24699
 Alpha  occ. eigenvalues --  -19.24324 -19.23396 -14.47056 -14.46010 -14.44786
 Alpha  occ. eigenvalues --  -14.43410 -10.44253 -10.42114 -10.39089 -10.38173
 Alpha  occ. eigenvalues --  -10.36448 -10.36037 -10.35406 -10.35249 -10.35199
 Alpha  occ. eigenvalues --  -10.34857 -10.34372 -10.33750 -10.33283 -10.32811
 Alpha  occ. eigenvalues --  -10.32483 -10.32218 -10.32110 -10.31773 -10.31678
 Alpha  occ. eigenvalues --  -10.31624 -10.31511 -10.31467 -10.31419 -10.31176
 Alpha  occ. eigenvalues --  -10.31153 -10.30992 -10.30577 -10.30432 -10.30398
 Alpha  occ. eigenvalues --  -10.30289 -10.30110 -10.30025 -10.29993 -10.29962
 Alpha  occ. eigenvalues --  -10.29942 -10.29666 -10.29643 -10.29504 -10.29440
 Alpha  occ. eigenvalues --  -10.29355 -10.29171 -10.29130 -10.29032 -10.29026
 Alpha  occ. eigenvalues --  -10.28979 -10.28769 -10.28634 -10.28279 -10.28253
 Alpha  occ. eigenvalues --  -10.28132 -10.28128 -10.28109 -10.28078 -10.28060
 Alpha  occ. eigenvalues --  -10.28051  -3.21305  -1.94917  -1.94393  -1.94295
 Alpha  occ. eigenvalues --   -1.19902  -1.18184  -1.14959  -1.11070  -1.10442
 Alpha  occ. eigenvalues --   -1.10159  -1.07747  -1.05842  -1.04901  -1.04461
 Alpha  occ. eigenvalues --   -0.93908  -0.92956  -0.92510  -0.91606  -0.91434
 Alpha  occ. eigenvalues --   -0.91076  -0.90797  -0.89690  -0.89548  -0.88508
 Alpha  occ. eigenvalues --   -0.87361  -0.87231  -0.86079  -0.85821  -0.85125
 Alpha  occ. eigenvalues --   -0.84646  -0.84263  -0.83125  -0.82639  -0.82131
 Alpha  occ. eigenvalues --   -0.81792  -0.80588  -0.79425  -0.79332  -0.78142
 Alpha  occ. eigenvalues --   -0.77644  -0.77394  -0.77134  -0.77034  -0.76469
 Alpha  occ. eigenvalues --   -0.75492  -0.74136  -0.73079  -0.72869  -0.71576
 Alpha  occ. eigenvalues --   -0.70849  -0.70764  -0.69277  -0.68988  -0.67655
 Alpha  occ. eigenvalues --   -0.67450  -0.67009  -0.66423  -0.66059  -0.65764
 Alpha  occ. eigenvalues --   -0.65210  -0.65005  -0.64695  -0.63754  -0.62217
 Alpha  occ. eigenvalues --   -0.62193  -0.61461  -0.61025  -0.60530  -0.60014
 Alpha  occ. eigenvalues --   -0.59694  -0.59219  -0.58069  -0.57651  -0.57444
 Alpha  occ. eigenvalues --   -0.57023  -0.56915  -0.56315  -0.56152  -0.56001
 Alpha  occ. eigenvalues --   -0.55971  -0.55729  -0.55580  -0.55501  -0.54939
 Alpha  occ. eigenvalues --   -0.54747  -0.54407  -0.54207  -0.54147  -0.53907
 Alpha  occ. eigenvalues --   -0.53716  -0.53511  -0.53142  -0.52798  -0.52713
 Alpha  occ. eigenvalues --   -0.52614  -0.52231  -0.52072  -0.51667  -0.51407
 Alpha  occ. eigenvalues --   -0.51232  -0.51178  -0.50963  -0.50889  -0.50813
 Alpha  occ. eigenvalues --   -0.50536  -0.50123  -0.49972  -0.49680  -0.49614
 Alpha  occ. eigenvalues --   -0.49394  -0.49249  -0.48898  -0.48780  -0.48700
 Alpha  occ. eigenvalues --   -0.48368  -0.48244  -0.48215  -0.47890  -0.47656
 Alpha  occ. eigenvalues --   -0.47512  -0.47393  -0.47313  -0.46990  -0.46545
 Alpha  occ. eigenvalues --   -0.46468  -0.46321  -0.46213  -0.46099  -0.45976
 Alpha  occ. eigenvalues --   -0.45938  -0.45723  -0.45452  -0.45419  -0.45338
 Alpha  occ. eigenvalues --   -0.45210  -0.44606  -0.44567  -0.44240  -0.44164
 Alpha  occ. eigenvalues --   -0.44002  -0.43892  -0.43613  -0.43396  -0.43347
 Alpha  occ. eigenvalues --   -0.42717  -0.42688  -0.41940  -0.41930  -0.41490
 Alpha  occ. eigenvalues --   -0.41200  -0.41068  -0.40764  -0.40647  -0.40588
 Alpha  occ. eigenvalues --   -0.40122  -0.40031  -0.39824  -0.39734  -0.39335
 Alpha  occ. eigenvalues --   -0.39061  -0.38995  -0.38896  -0.38641  -0.38516
 Alpha  occ. eigenvalues --   -0.38067  -0.37807  -0.37470  -0.36686  -0.36396
 Alpha  occ. eigenvalues --   -0.36383  -0.36258  -0.34957  -0.33930  -0.33565
 Alpha  occ. eigenvalues --   -0.32217  -0.32197  -0.31933  -0.31604  -0.25670
 Alpha  occ. eigenvalues --   -0.22517
 Alpha virt. eigenvalues --   -0.06602   0.00186   0.02523   0.04780   0.05824
 Alpha virt. eigenvalues --    0.06030   0.07810   0.08196   0.09121   0.09411
 Alpha virt. eigenvalues --    0.10832   0.11035   0.11489   0.12159   0.12464

 Mulliken charges:
               1
     1  Mg   0.957614
     2  C    0.036909
     3  C   -0.090224
     4  C   -0.067187
     5  C   -0.091043
     6  N   -0.359460
     7  C   -0.013114
     8  C   -0.035917
     9  C   -0.164095
    10  C    0.101588
    11  C    0.036066
    12  C    0.065990
    13  C    0.015707
    14  C    0.228733
    15  O   -0.261858
    16  O   -0.374534
    17  N   -0.433252
    18  C    0.141163
    19  C   -0.141017
    20  C   -0.078915
    21  C    0.125937
    22  C    0.068740
    23  C    0.036429
    24  O   -0.194985
    25  C   -0.023317
    26  N   -0.306675
    27  C    0.038349
    28  C   -0.099590
    29  C   -0.109715
    30  C    0.069222
    31  C    0.060943
    32  C    0.052069
    33  C   -0.045528
    34  N   -0.435241
    35  C    0.077127
    36  C   -0.177700
    37  C   -0.029465
    38  C    0.097874
    39  C    0.081978
    40  C    0.144918
    41  O   -0.219841
    42  C   -0.123982
    43  C    0.231289
    44  O   -0.173884
    45  O   -0.384342
    46  C    0.123583
    47  C    0.237961
    48  C   -0.107531
    49  C   -0.256162
    50  C    0.024831
    51  C    0.075232
    52  C   -0.049064
    53  C    0.013465
    54  C   -0.189932
    55  C    0.006705
    56  C    0.014935
    57  C   -0.075672
    58  C    0.046304
    59  C   -0.165933
    60  C    0.003267
    61  C    0.029410
    62  C   -0.013313
    63  C   -0.011727
    64  C   -0.219527
    65  C   -0.003661
    66  C   -0.010726
    67  H   -0.002273
    68  H    0.027818
    69  H    0.007447
    70  H    0.035184
    71  H    0.028508
    72  H    0.022628
    73  H    0.043590
    74  H    0.052162
    75  H    0.034993
    76  H    0.030581
    77  H    0.043292
    78  H    0.031425
    79  H    0.047279
    80  H    0.057598
    81  H    0.031877
    82  H    0.074184
    83  H    0.046590
    84  H    0.049770
    85  H    0.028237
    86  H    0.018871
    87  H    0.039205
    88  H    0.030232
    89  H    0.041580
    90  H    0.016896
    91  H    0.024121
    92  H    0.031315
    93  H    0.024418
    94  H    0.040399
    95  H    0.049958
    96  H    0.008809
    97  H    0.070603
    98  H    0.070805
    99  H    0.069898
   100  H    0.052231
   101  H    0.054652
   102  H    0.044876
   103  H    0.062502
   104  H    0.023390
   105  H    0.040827
   106  H    0.037458
   107  H    0.054575
   108  H    0.037865
   109  H    0.025541
   110  H    0.020418
   111  H    0.023909
   112  H    0.016869
   113  H    0.005602
   114  H    0.022952
   115  H    0.031243
   116  H    0.024611
   117  H    0.031201
   118  H    0.023865
   119  H    0.016545
   120  H    0.010510
   121  H    0.025322
   122  H    0.007431
   123  H    0.021174
   124  H    0.020097
   125  H    0.034001
   126  H    0.019490
   127  H    0.021210
   128  H    0.015925
   129  H    0.008689
   130  H    0.015449
   131  H    0.015378
   132  H    0.001543
   133  H    0.015730
   134  H    0.025141
   135  H    0.029549
   136  H    0.016869
   137  H    0.028679
   138  H    0.032421
   139  H    0.021608
   140  H    0.028443
 Sum of Mulliken charges =  -0.00000

 Dipole moment (field-independent basis, Debye):
    X=              4.9762    Y=              4.0399    Z=             -3.2609  Tot=              7.1914
 Quadrupole moment (field-independent basis, Debye-Ang):
   XX=           -388.3244   YY=           -411.2383   ZZ=           -403.7793
   XY=            -28.7409   XZ=              6.5178   YZ=              9.7138

 Normal termination of Gaussian 16 at Wed Apr 27 01:36:48 2022.
