 Gaussian 16, Revision A.03,
 Gaussian 16:  ES64L-G16RevA.03 25-Dec-2016

 --------------------
 #p ZINDO=(nstates=5)
 --------------------

 -----------------------------
 step_101_chromophore_27 ZINDO
 -----------------------------
 Symbolic Z-matrix:
 Charge =  0 Multiplicity = 1

                         Standard orientation:
 ---------------------------------------------------------------------
 Center     Atomic      Atomic             Coordinates (Angstroms)
 Number     Number       Type             X           Y           Z
 ---------------------------------------------------------------------
      1         12           0       -4.702533    0.619216    0.054374
      2          6           0       -3.836957   -2.751645    0.155518
      3          6           0       -1.369196    1.542453    0.404989
      4          6           0       -5.651015    3.911164    0.324748
      5          6           0       -8.060708   -0.237255   -0.098820
      6          7           0       -2.857261   -0.531688    0.172465
      7          6           0       -2.689163   -1.892836    0.089857
      8          6           0       -1.251348   -2.293510   -0.047083
      9          6           0       -0.570329   -0.992757    0.437795
     10          6           0       -1.695798    0.130426    0.346242
     11          6           0        0.298594   -1.128128    1.765332
     12          6           0       -0.680320   -2.740125   -1.399148
     13          6           0        0.448582   -3.790379   -1.247723
     14          6           0        1.945250   -3.461633   -1.055318
     15          8           0        2.419975   -2.958590   -0.036125
     16          8           0        2.657327   -3.741170   -2.212282
     17          7           0       -3.622891    2.459975    0.346961
     18          6           0       -2.247786    2.672327    0.460392
     19          6           0       -1.991193    4.096188    0.568967
     20          6           0       -3.172073    4.785335    0.553337
     21          6           0       -4.213382    3.686123    0.348499
     22          6           0       -0.622176    4.629035    0.641559
     23          6           0       -3.463323    6.227093    0.636797
     24          8           0       -4.570572    6.615791    0.456523
     25          6           0       -2.371383    7.143743    1.118208
     26          7           0       -6.584606    1.659705    0.147176
     27          6           0       -6.702594    2.974496    0.117090
     28          6           0       -8.160604    3.453536    0.126846
     29          6           0       -8.784012    2.184180   -0.475523
     30          6           0       -7.750617    1.111359   -0.140448
     31          6           0       -8.765148    3.935778    1.392775
     32          6           0       -9.345944    2.350392   -1.881309
     33          6           0      -10.739476    2.904405   -1.988902
     34          7           0       -5.821332   -1.133014    0.120687
     35          6           0       -7.180727   -1.329629   -0.004514
     36          6           0       -7.457038   -2.813228    0.058715
     37          6           0       -6.177765   -3.357174    0.110189
     38          6           0       -5.226781   -2.339750    0.141435
     39          6           0       -8.810436   -3.438768    0.335455
     40          6           0       -5.498817   -4.628646    0.259233
     41          8           0       -5.947582   -5.771753    0.407985
     42          6           0       -3.978124   -4.245905    0.235591
     43          6           0       -3.240521   -4.917858    1.406474
     44          8           0       -3.255457   -4.716076    2.546778
     45          8           0       -2.306102   -5.700192    0.800648
     46          6           0       -1.304517   -6.350816    1.689169
     47          6           0        4.138913   -3.662648   -1.990310
     48          6           0        4.573479   -2.237987   -2.036587
     49          6           0        5.805846   -1.834393   -2.421514
     50          6           0        6.928176   -2.885335   -2.549371
     51          6           0        6.216618   -0.387236   -2.725721
     52          6           0        6.684507   -0.167414   -4.140385
     53          6           0        8.165734    0.296247   -4.248688
     54          6           0        8.306940    1.828432   -4.125061
     55          6           0        8.348127    2.522808   -5.494658
     56          6           0        9.358838    2.303013   -3.052930
     57          6           0        8.650098    2.696071   -1.725694
     58          6           0        9.612431    2.582399   -0.503265
     59          6           0        9.380966    1.461660    0.450748
     60          6           0       10.289400    0.272287    0.162411
     61          6           0        9.687817    1.894968    1.887395
     62          6           0        9.101661    1.071388    2.981493
     63          6           0       10.000914    0.083778    3.751479
     64          6           0       10.297571    0.597453    5.138820
     65          6           0       11.578730   -0.117868    5.749143
     66          6           0        9.077109    0.497164    6.102306
     67          1           0       -0.304173    1.764007    0.501056
     68          1           0       -5.977628    4.953302    0.320369
     69          1           0       -9.045371   -0.559163   -0.446124
     70          1           0       -1.087073   -3.024112    0.744978
     71          1           0        0.144312   -0.616378   -0.294674
     72          1           0       -0.127009   -0.419667    2.475028
     73          1           0        1.280637   -0.729740    1.512918
     74          1           0        0.338714   -2.096465    2.263849
     75          1           0       -0.325230   -1.898885   -1.993997
     76          1           0       -1.486520   -3.136093   -2.015534
     77          1           0        0.211021   -4.581834   -1.959124
     78          1           0        0.168903   -4.331451   -0.343542
     79          1           0       -0.529232    5.340110    1.462916
     80          1           0       -0.347334    5.133235   -0.284140
     81          1           0        0.105861    3.827509    0.768192
     82          1           0       -2.059606    6.787800    2.100299
     83          1           0       -2.633484    8.198862    1.193080
     84          1           0       -1.594965    7.155201    0.353052
     85          1           0       -8.155557    4.289082   -0.572895
     86          1           0       -9.629239    1.801389    0.097271
     87          1           0       -8.088444    4.100276    2.231153
     88          1           0       -9.475491    3.206300    1.781766
     89          1           0       -9.269684    4.870082    1.141988
     90          1           0       -9.326334    1.314408   -2.218824
     91          1           0       -8.619644    2.891196   -2.487614
     92          1           0      -10.983324    3.678729   -2.716383
     93          1           0      -11.078284    3.466660   -1.118922
     94          1           0      -11.439573    2.091734   -2.182283
     95          1           0       -9.189185   -4.256003   -0.277874
     96          1           0       -9.503823   -2.638404    0.080529
     97          1           0       -8.871696   -3.718867    1.387000
     98          1           0       -3.615636   -4.767963   -0.649801
     99          1           0       -1.759312   -6.889681    2.519579
    100          1           0       -0.552767   -5.686160    2.114665
    101          1           0       -0.795811   -7.000442    0.976534
    102          1           0        4.410575   -4.207601   -2.894319
    103          1           0        4.532846   -4.264850   -1.171948
    104          1           0        3.746587   -1.529012   -2.010162
    105          1           0        6.803938   -3.664315   -1.796202
    106          1           0        7.839741   -2.314177   -2.378417
    107          1           0        6.869358   -3.364447   -3.526824
    108          1           0        7.077747   -0.301787   -2.061849
    109          1           0        5.341020    0.211106   -2.472807
    110          1           0        6.147277    0.619888   -4.670120
    111          1           0        6.454127   -1.063252   -4.717202
    112          1           0        8.560601    0.040845   -5.232354
    113          1           0        8.690936   -0.358780   -3.553288
    114          1           0        7.390546    2.208987   -3.673878
    115          1           0        9.259280    3.064776   -5.744945
    116          1           0        7.582538    3.285856   -5.351233
    117          1           0        8.103896    1.902166   -6.356064
    118          1           0        9.890612    3.208475   -3.345787
    119          1           0        9.991517    1.446544   -2.821086
    120          1           0        7.833941    1.984806   -1.595302
    121          1           0        8.206003    3.683347   -1.852845
    122          1           0        9.421351    3.535231   -0.011826
    123          1           0       10.612822    2.587784   -0.935795
    124          1           0        8.343191    1.130458    0.479696
    125          1           0       11.054671    0.030620    0.899939
    126          1           0       10.777152    0.328104   -0.809939
    127          1           0        9.643709   -0.600517    0.064810
    128          1           0        9.413523    2.931206    2.084724
    129          1           0       10.754527    1.709531    2.013130
    130          1           0        8.226085    0.479031    2.716461
    131          1           0        8.775385    1.748558    3.770624
    132          1           0       10.949216   -0.102259    3.249199
    133          1           0        9.625834   -0.935261    3.841958
    134          1           0       10.545185    1.657930    5.081455
    135          1           0       11.380442   -0.548714    6.729821
    136          1           0       12.319750    0.658518    5.936391
    137          1           0       12.131422   -0.755891    5.059671
    138          1           0        8.153355    0.215993    5.597902
    139          1           0        8.872450    1.461475    6.566161
    140          1           0        9.218960   -0.135152    6.979803
 ---------------------------------------------------------------------

 SCF Done:  E(RZINDO/S) =  -474.559205151     A.U. after   19 cycles

 Excitation energies and oscillator strengths:

 Excited State   1:      Singlet-A      1.2876 eV  962.89 nm  f=0.5704  <S**2>=0.000
     175 ->178         0.19449
     176 ->177         0.66309
 This state for optimization and/or second-order correction.
 Total Energy, E(CIS/TDA) =  -474.511885708
 Copying the excited state density for this state as the 1-particle RhoCI density.

 Excited State   2:      Singlet-A      1.9025 eV  651.69 nm  f=0.0104  <S**2>=0.000
     175 ->177         0.50906
     176 ->178        -0.46785

 Excited State   3:      Singlet-A      2.9442 eV  421.11 nm  f=0.0654  <S**2>=0.000
     168 ->177        -0.31915
     168 ->179         0.40657
     168 ->181        -0.29502
     168 ->186         0.21124
     168 ->187        -0.12662
     168 ->194        -0.12026
     175 ->177         0.10484
     176 ->178         0.12341

 Excited State   4:      Singlet-A      2.9616 eV  418.64 nm  f=0.4804  <S**2>=0.000
     175 ->177        -0.27774
     176 ->178        -0.32548
     176 ->179         0.46536
     176 ->181         0.21251

 Excited State   5:      Singlet-A      3.0110 eV  411.78 nm  f=0.7945  <S**2>=0.000
     175 ->177         0.33158
     176 ->178         0.35833
     176 ->179         0.45426

 The electronic state is 1-A.
 Alpha  occ. eigenvalues --   -1.84928  -1.82155  -1.79202  -1.73517  -1.72701
 Alpha  occ. eigenvalues --   -1.71139  -1.68018  -1.63377  -1.62440  -1.56910
 Alpha  occ. eigenvalues --   -1.56220  -1.52028  -1.49523  -1.48335  -1.46847
 Alpha  occ. eigenvalues --   -1.44587  -1.43646  -1.42042  -1.40059  -1.39079
 Alpha  occ. eigenvalues --   -1.34904  -1.32982  -1.31774  -1.31264  -1.29383
 Alpha  occ. eigenvalues --   -1.27305  -1.24269  -1.23109  -1.19684  -1.17779
 Alpha  occ. eigenvalues --   -1.16904  -1.16522  -1.15706  -1.15184  -1.14534
 Alpha  occ. eigenvalues --   -1.13600  -1.11544  -1.10700  -1.05147  -1.03501
 Alpha  occ. eigenvalues --   -1.02979  -1.01087  -0.99184  -0.97399  -0.96695
 Alpha  occ. eigenvalues --   -0.96409  -0.95171  -0.94721  -0.93831  -0.93294
 Alpha  occ. eigenvalues --   -0.90704  -0.89981  -0.89515  -0.87816  -0.87731
 Alpha  occ. eigenvalues --   -0.86461  -0.83342  -0.82474  -0.81895  -0.80709
 Alpha  occ. eigenvalues --   -0.80417  -0.79180  -0.77618  -0.77428  -0.76668
 Alpha  occ. eigenvalues --   -0.75954  -0.75462  -0.75311  -0.73562  -0.73144
 Alpha  occ. eigenvalues --   -0.73054  -0.72555  -0.72353  -0.71099  -0.70874
 Alpha  occ. eigenvalues --   -0.70738  -0.70290  -0.68820  -0.68599  -0.68297
 Alpha  occ. eigenvalues --   -0.68006  -0.66787  -0.66682  -0.66092  -0.65953
 Alpha  occ. eigenvalues --   -0.65554  -0.64679  -0.64268  -0.63314  -0.63171
 Alpha  occ. eigenvalues --   -0.62801  -0.62688  -0.62292  -0.62090  -0.61817
 Alpha  occ. eigenvalues --   -0.61291  -0.60879  -0.60572  -0.60409  -0.59985
 Alpha  occ. eigenvalues --   -0.59793  -0.59340  -0.58710  -0.58145  -0.58023
 Alpha  occ. eigenvalues --   -0.57329  -0.56946  -0.56676  -0.56526  -0.56172
 Alpha  occ. eigenvalues --   -0.55281  -0.55146  -0.54793  -0.54655  -0.54616
 Alpha  occ. eigenvalues --   -0.54476  -0.53905  -0.53765  -0.53044  -0.52886
 Alpha  occ. eigenvalues --   -0.52812  -0.52305  -0.52278  -0.51586  -0.51279
 Alpha  occ. eigenvalues --   -0.50845  -0.50558  -0.50318  -0.49946  -0.49930
 Alpha  occ. eigenvalues --   -0.49602  -0.49395  -0.49315  -0.49134  -0.49055
 Alpha  occ. eigenvalues --   -0.48450  -0.48309  -0.48121  -0.47861  -0.47467
 Alpha  occ. eigenvalues --   -0.47347  -0.47050  -0.46770  -0.46671  -0.46505
 Alpha  occ. eigenvalues --   -0.46234  -0.45969  -0.45567  -0.45112  -0.45078
 Alpha  occ. eigenvalues --   -0.44711  -0.44512  -0.44302  -0.44222  -0.43909
 Alpha  occ. eigenvalues --   -0.43712  -0.43421  -0.42462  -0.42324  -0.42114
 Alpha  occ. eigenvalues --   -0.42051  -0.41863  -0.41598  -0.39670  -0.38533
 Alpha  occ. eigenvalues --   -0.37610  -0.36917  -0.35503  -0.34453  -0.34300
 Alpha  occ. eigenvalues --   -0.34195  -0.32204  -0.32120  -0.31758  -0.26395
 Alpha  occ. eigenvalues --   -0.21271
 Alpha virt. eigenvalues --   -0.07833  -0.02066  -0.00255   0.01029   0.01718
 Alpha virt. eigenvalues --    0.02737   0.03163   0.03886   0.04574   0.04973
 Alpha virt. eigenvalues --    0.06356   0.06886   0.07163   0.07639   0.08201

 Mulliken charges:
               1
     1  Mg   0.425911
     2  C   -0.044926
     3  C   -0.085547
     4  C   -0.095189
     5  C   -0.072637
     6  N   -0.263063
     7  C    0.101633
     8  C    0.014180
     9  C   -0.006309
    10  C    0.146866
    11  C   -0.051355
    12  C   -0.002416
    13  C   -0.006121
    14  C    0.477296
    15  O   -0.511518
    16  O   -0.273887
    17  N   -0.327161
    18  C    0.112326
    19  C    0.039417
    20  C   -0.039171
    21  C    0.139971
    22  C   -0.042860
    23  C    0.341653
    24  O   -0.504037
    25  C   -0.031149
    26  N   -0.249508
    27  C    0.154304
    28  C    0.010761
    29  C    0.001213
    30  C    0.116243
    31  C   -0.040278
    32  C   -0.014067
    33  C   -0.054743
    34  N   -0.313768
    35  C    0.074114
    36  C    0.006703
    37  C   -0.045221
    38  C    0.093636
    39  C   -0.036724
    40  C    0.324833
    41  O   -0.529844
    42  C    0.057747
    43  C    0.490202
    44  O   -0.484921
    45  O   -0.288079
    46  C    0.070972
    47  C    0.110610
    48  C   -0.086504
    49  C   -0.016150
    50  C   -0.050211
    51  C   -0.015067
    52  C   -0.029154
    53  C   -0.032570
    54  C   -0.012320
    55  C   -0.057212
    56  C   -0.040350
    57  C   -0.046792
    58  C   -0.031244
    59  C    0.003643
    60  C   -0.056851
    61  C   -0.031033
    62  C   -0.035259
    63  C   -0.028847
    64  C   -0.005602
    65  C   -0.070649
    66  C   -0.058602
    67  H    0.027813
    68  H    0.048079
    69  H    0.020904
    70  H    0.037695
    71  H    0.020177
    72  H    0.013812
    73  H    0.026649
    74  H    0.039764
    75  H    0.026304
    76  H    0.020870
    77  H    0.032746
    78  H    0.032126
    79  H    0.030308
    80  H    0.032149
    81  H    0.022219
    82  H    0.042170
    83  H    0.032508
    84  H    0.034610
    85  H    0.024654
    86  H    0.018104
    87  H    0.025362
    88  H    0.019050
    89  H    0.021018
    90  H    0.015642
    91  H    0.021579
    92  H    0.019161
    93  H    0.015513
    94  H    0.019025
    95  H    0.035555
    96  H    0.012349
    97  H    0.041409
    98  H    0.049107
    99  H    0.052940
   100  H    0.040600
   101  H    0.025596
   102  H    0.025751
   103  H    0.058750
   104  H    0.034679
   105  H    0.024788
   106  H    0.025361
   107  H    0.033439
   108  H    0.032902
   109  H    0.027590
   110  H    0.014632
   111  H    0.017746
   112  H    0.011373
   113  H    0.020182
   114  H    0.014764
   115  H    0.019637
   116  H    0.012673
   117  H    0.023519
   118  H    0.024912
   119  H    0.023696
   120  H    0.014566
   121  H    0.020820
   122  H    0.009868
   123  H    0.023604
   124  H    0.024939
   125  H    0.027429
   126  H    0.013499
   127  H    0.007845
   128  H    0.017108
   129  H    0.020075
   130  H    0.015452
   131  H    0.013026
   132  H    0.010022
   133  H    0.016824
   134  H    0.019211
   135  H    0.025324
   136  H    0.006117
   137  H    0.024848
   138  H    0.019693
   139  H    0.010170
   140  H    0.020280
 Sum of Mulliken charges =  -0.00000

 Dipole moment (field-independent basis, Debye):
    X=              7.4570    Y=              5.5426    Z=             -5.0045  Tot=             10.5533
 N-N= 4.376681386788D+03 E-N= 0.000000000000D+00  KE=-9.428042671864D+03
 Leave Link  601 at Wed Apr 27 01:49:03 2022, MaxMem=  6710886400 cpu:               0.8 elap:               0.0
 (Enter /sw/apps/gaussian-16.0/g16/l9999.exe)
 1\1\GINC-BP1-COMPUTE156\SP\RZINDO CIS\STO-3G\C55H74Mg1N4O6\OF15641\27-
 Apr-2022\0\\#p ZINDO=(nstates=5)\\step_101_chromophore_27 ZINDO\\0,1\M
 g,0,-5.484,24.582,27.338\C,0,-3.632,26.266,29.758\C,0,-6.525,22.239,29
 .686\C,0,-6.982,22.757,24.841\C,0,-4.323,26.772,24.911\N,0,-5.146,24.3
 9,29.481\C,0,-4.452,25.23,30.318\C,0,-4.657,24.906,31.767\C,0,-5.2,23.
 464,31.638\C,0,-5.668,23.325,30.122\C,0,-4.291,22.329,32.287\C,0,-5.57
 8,25.762,32.646\C,0,-5.107,25.816,34.121\C,0,-5.497,24.797,35.214\O,0,

 Normal termination of Gaussian 16 at Wed Apr 27 01:49:03 2022.
