 Gaussian 16, Revision A.03,
 Gaussian 16:  ES64L-G16RevA.03 25-Dec-2016

 ------------------------------
 #p blyp/Def2SVP td=(nstates=5)
 ------------------------------

 -------------------------------------------------
 step_651_chromophore_1 TDDFT with blyp functional
 -------------------------------------------------
 Symbolic Z-matrix:
 Charge =  0 Multiplicity = 1

                         Standard orientation:
 ---------------------------------------------------------------------
 Center     Atomic      Atomic             Coordinates (Angstroms)
 Number     Number       Type             X           Y           Z
 ---------------------------------------------------------------------
      1         12           0        5.962799    0.499242    0.151348
      2          6           0        3.897317   -2.148002   -0.832691
      3          6           0        3.732709    2.629735   -1.514412
      4          6           0        8.296613    2.993108    0.356344
      5          6           0        8.569838   -1.812331    0.826021
      6          7           0        4.048685    0.197950   -0.996109
      7          6           0        3.303682   -0.955968   -1.151919
      8          6           0        1.938194   -0.700973   -1.813090
      9          6           0        2.188389    0.744606   -2.390807
     10          6           0        3.407869    1.264477   -1.591892
     11          6           0        2.344671    0.754564   -3.942514
     12          6           0        0.703526   -0.790884   -0.845387
     13          6           0       -0.469582   -1.598706   -1.384320
     14          6           0       -1.404231   -2.255410   -0.332216
     15          8           0       -1.071006   -2.783047    0.722857
     16          8           0       -2.712494   -2.116123   -0.731646
     17          7           0        5.896709    2.532627   -0.253431
     18          6           0        4.911772    3.271288   -0.948037
     19          6           0        5.229557    4.669755   -0.946402
     20          6           0        6.517570    4.805783   -0.274823
     21          6           0        6.957642    3.410992   -0.017247
     22          6           0        4.297504    5.764771   -1.502564
     23          6           0        7.273560    6.096755    0.032600
     24          8           0        8.361346    6.069048    0.598359
     25          6           0        6.687132    7.475881   -0.160919
     26          7           0        8.167412    0.535706    0.372044
     27          6           0        8.822959    1.720966    0.590601
     28          6           0       10.307896    1.445771    0.927481
     29          6           0       10.247797    0.000188    1.429854
     30          6           0        8.936006   -0.493725    0.829126
     31          6           0       11.381734    1.696928   -0.201584
     32          6           0       10.291072   -0.144958    2.971612
     33          6           0        9.039724    0.163447    3.854372
     34          7           0        6.226314   -1.547061    0.129714
     35          6           0        7.308484   -2.356764    0.490104
     36          6           0        6.902990   -3.724409    0.432175
     37          6           0        5.574624   -3.717946   -0.051613
     38          6           0        5.222870   -2.305668   -0.295286
     39          6           0        7.704143   -4.934887    0.813047
     40          6           0        4.534722   -4.545252   -0.480267
     41          8           0        4.403767   -5.730074   -0.373961
     42          6           0        3.320379   -3.616903   -0.931756
     43          6           0        2.276307   -3.841517    0.048009
     44          8           0        1.990382   -3.102317    0.997123
     45          8           0        1.629784   -5.019658   -0.259761
     46          6           0        0.490527   -5.439536    0.557606
     47          6           0       -3.758874   -2.608328    0.219136
     48          6           0       -5.050636   -2.015177   -0.243000
     49          6           0       -6.303483   -2.522252   -0.304082
     50          6           0       -6.718083   -3.892326    0.234469
     51          6           0       -7.427540   -1.670865   -0.831515
     52          6           0       -8.065659   -0.653063    0.127162
     53          6           0       -9.543685   -0.327572   -0.142178
     54          6           0       -9.929916    1.166695   -0.313780
     55          6           0       -9.334478    1.800102   -1.593406
     56          6           0       -9.579720    1.963807    0.973723
     57          6           0      -10.681637    2.927645    1.525110
     58          6           0      -11.549129    2.508215    2.722048
     59          6           0      -12.969100    2.209000    2.449309
     60          6           0      -13.962821    2.689418    3.531092
     61          6           0      -13.268369    0.676314    2.228093
     62          6           0      -14.406380    0.376960    1.237277
     63          6           0      -13.971529   -0.032098   -0.207854
     64          6           0      -14.556888    0.818878   -1.359904
     65          6           0      -14.955498   -0.155989   -2.489103
     66          6           0      -13.647332    2.046593   -1.821403
     67          1           0        2.997859    3.245900   -2.035975
     68          1           0        9.114140    3.716401    0.339768
     69          1           0        9.360022   -2.469419    1.194870
     70          1           0        1.919075   -1.447759   -2.606920
     71          1           0        1.308584    1.340882   -2.146151
     72          1           0        1.634418    1.418333   -4.436436
     73          1           0        2.342391   -0.228592   -4.412832
     74          1           0        3.300839    1.255023   -4.095138
     75          1           0        0.212232    0.156088   -0.624725
     76          1           0        1.196106   -1.188773    0.042140
     77          1           0       -0.110634   -2.424854   -1.998560
     78          1           0       -1.096130   -0.990219   -2.035307
     79          1           0        3.649205    5.308698   -2.250315
     80          1           0        4.945092    6.464599   -2.030072
     81          1           0        3.682523    6.214049   -0.723395
     82          1           0        6.917426    7.753608   -1.189616
     83          1           0        7.117680    8.241818    0.485253
     84          1           0        5.666242    7.258172    0.153216
     85          1           0       10.544888    2.036982    1.811182
     86          1           0       11.060472   -0.576034    0.986773
     87          1           0       11.027898    2.461855   -0.892178
     88          1           0       11.432172    0.807012   -0.829364
     89          1           0       12.301840    2.098016    0.223481
     90          1           0       11.154634    0.462922    3.240520
     91          1           0       10.651930   -1.165360    3.103907
     92          1           0        9.228815    0.614861    4.827327
     93          1           0        8.402596   -0.720085    3.899411
     94          1           0        8.428605    0.960734    3.432223
     95          1           0        8.019151   -4.545137    1.780658
     96          1           0        8.571917   -5.030208    0.160137
     97          1           0        7.078496   -5.817610    0.944523
     98          1           0        2.803970   -3.832404   -1.867858
     99          1           0       -0.449415   -5.312178    0.019774
    100          1           0        0.450135   -4.941774    1.526873
    101          1           0        0.512610   -6.493473    0.838201
    102          1           0       -3.681328   -2.192369    1.223689
    103          1           0       -3.720524   -3.697648    0.203863
    104          1           0       -4.979548   -1.030382   -0.705805
    105          1           0       -5.910489   -4.478001    0.673986
    106          1           0       -7.072342   -4.373619   -0.677095
    107          1           0       -7.499936   -3.828216    0.990976
    108          1           0       -8.199527   -2.330331   -1.227332
    109          1           0       -6.857633   -1.085163   -1.553473
    110          1           0       -7.542221    0.302673    0.106661
    111          1           0       -8.064397   -1.012636    1.155993
    112          1           0      -10.191350   -0.677680    0.661601
    113          1           0       -9.797965   -0.899777   -1.034472
    114          1           0      -11.004381    1.267143   -0.468768
    115          1           0      -10.083497    2.126641   -2.314039
    116          1           0       -8.956446    0.935787   -2.139970
    117          1           0       -8.555199    2.529523   -1.369854
    118          1           0       -8.652979    2.513955    0.812974
    119          1           0       -9.453512    1.204954    1.746325
    120          1           0      -11.317216    3.181471    0.676805
    121          1           0      -10.275946    3.926615    1.688150
    122          1           0      -11.407331    3.343668    3.408631
    123          1           0      -10.995677    1.646237    3.092928
    124          1           0      -13.267567    2.764882    1.560969
    125          1           0      -13.596558    3.498260    4.162819
    126          1           0      -14.196779    1.862888    4.202510
    127          1           0      -14.907695    2.938265    3.047640
    128          1           0      -13.495787    0.259101    3.209331
    129          1           0      -12.331318    0.219484    1.909627
    130          1           0      -15.095391    1.211574    1.111619
    131          1           0      -14.981562   -0.408355    1.728409
    132          1           0      -14.459096   -1.000181   -0.327313
    133          1           0      -12.882431   -0.064769   -0.240177
    134          1           0      -15.554961    1.133415   -1.055927
    135          1           0      -15.983755   -0.498375   -2.379446
    136          1           0      -14.222745   -0.959822   -2.426185
    137          1           0      -14.842491    0.292191   -3.476674
    138          1           0      -14.018401    2.984077   -1.407917
    139          1           0      -13.884802    2.266132   -2.862321
    140          1           0      -12.569916    1.941414   -1.692006
 ---------------------------------------------------------------------

 SCF Done:  E(RB-LYP) =  -3007.38615119     A.U. after   21 cycles

 Excitation energies and oscillator strengths:

 Excited State   1:      Singlet-A      1.6366 eV  757.59 nm  f=0.0055  <S**2>=0.000
     244 -> 247        0.64972
     245 -> 247        0.27187
 This state for optimization and/or second-order correction.
 Total Energy, E(TD-HF/TD-DFT) =  -3007.32600874
 Copying the excited state density for this state as the 1-particle RhoCI density.

 Excited State   2:      Singlet-A      1.7684 eV  701.11 nm  f=0.2069  <S**2>=0.000
     243 -> 247       -0.31940
     245 -> 247       -0.15297
     245 -> 248        0.14913
     246 -> 247        0.59876
     246 <- 247       -0.13187

 Excited State   3:      Singlet-A      1.8245 eV  679.55 nm  f=0.1033  <S**2>=0.000
     243 -> 247        0.55700
     244 -> 247       -0.13870
     245 -> 247        0.20227
     246 -> 247        0.34740

 Excited State   4:      Singlet-A      2.0146 eV  615.42 nm  f=0.0935  <S**2>=0.000
     243 -> 247       -0.28684
     244 -> 247       -0.22289
     245 -> 247        0.54916
     246 -> 248       -0.21603

 Excited State   5:      Singlet-A      2.2609 eV  548.38 nm  f=0.0000  <S**2>=0.000
     242 -> 247        0.70669

 The electronic state is 1-A.
 Alpha  occ. eigenvalues --  -46.27576 -18.81967 -18.80761 -18.76564 -18.75406
 Alpha  occ. eigenvalues --  -18.75057 -18.74720 -14.03045 -14.02600 -14.01571
 Alpha  occ. eigenvalues --  -14.01039 -10.03929 -10.02697  -9.99448  -9.98847
 Alpha  occ. eigenvalues --   -9.98385  -9.96689  -9.96525  -9.96157  -9.96140
 Alpha  occ. eigenvalues --   -9.95934  -9.95824  -9.95625  -9.95519  -9.94936
 Alpha  occ. eigenvalues --   -9.94151  -9.94063  -9.93893  -9.93618  -9.93539
 Alpha  occ. eigenvalues --   -9.93514  -9.93458  -9.93370  -9.93354  -9.93292
 Alpha  occ. eigenvalues --   -9.93243  -9.93195  -9.93038  -9.92925  -9.92521
 Alpha  occ. eigenvalues --   -9.92519  -9.92487  -9.92395  -9.92362  -9.92333
 Alpha  occ. eigenvalues --   -9.92299  -9.92258  -9.92242  -9.92162  -9.91880
 Alpha  occ. eigenvalues --   -9.91867  -9.91731  -9.91669  -9.91447  -9.91310
 Alpha  occ. eigenvalues --   -9.91304  -9.91187  -9.91095  -9.91040  -9.91012
 Alpha  occ. eigenvalues --   -9.90910  -9.90828  -9.90656  -9.90632  -9.90615
 Alpha  occ. eigenvalues --   -9.90425  -2.92114  -1.72510  -1.72020  -1.71820
 Alpha  occ. eigenvalues --   -0.97033  -0.95920  -0.92190  -0.90830  -0.89196
 Alpha  occ. eigenvalues --   -0.88124  -0.86086  -0.85273  -0.84753  -0.83545
 Alpha  occ. eigenvalues --   -0.74398  -0.73970  -0.73151  -0.72244  -0.72101
 Alpha  occ. eigenvalues --   -0.71896  -0.71203  -0.71050  -0.70448  -0.70197
 Alpha  occ. eigenvalues --   -0.69484  -0.68935  -0.67918  -0.67180  -0.66858
 Alpha  occ. eigenvalues --   -0.66427  -0.65518  -0.65194  -0.64858  -0.64266
 Alpha  occ. eigenvalues --   -0.64176  -0.62437  -0.62121  -0.61588  -0.61002
 Alpha  occ. eigenvalues --   -0.60469  -0.60131  -0.59890  -0.59777  -0.58768
 Alpha  occ. eigenvalues --   -0.58167  -0.57675  -0.56354  -0.55493  -0.55358
 Alpha  occ. eigenvalues --   -0.54112  -0.53905  -0.52931  -0.52451  -0.51181
 Alpha  occ. eigenvalues --   -0.51035  -0.50440  -0.50286  -0.50002  -0.49358
 Alpha  occ. eigenvalues --   -0.49316  -0.49049  -0.47667  -0.47373  -0.46197
 Alpha  occ. eigenvalues --   -0.45916  -0.45687  -0.44994  -0.44649  -0.43627
 Alpha  occ. eigenvalues --   -0.43276  -0.43076  -0.42821  -0.42477  -0.41945
 Alpha  occ. eigenvalues --   -0.41846  -0.41640  -0.41525  -0.41438  -0.40873
 Alpha  occ. eigenvalues --   -0.40592  -0.40365  -0.40297  -0.40240  -0.40040
 Alpha  occ. eigenvalues --   -0.39886  -0.39500  -0.39259  -0.39043  -0.38818
 Alpha  occ. eigenvalues --   -0.38700  -0.38556  -0.38464  -0.38263  -0.38135
 Alpha  occ. eigenvalues --   -0.37911  -0.37842  -0.37748  -0.37663  -0.37258
 Alpha  occ. eigenvalues --   -0.37078  -0.36968  -0.36741  -0.36664  -0.36398
 Alpha  occ. eigenvalues --   -0.35949  -0.35748  -0.35674  -0.35479  -0.35441
 Alpha  occ. eigenvalues --   -0.35115  -0.34905  -0.34822  -0.34538  -0.34348
 Alpha  occ. eigenvalues --   -0.34239  -0.34142  -0.33964  -0.33927  -0.33751
 Alpha  occ. eigenvalues --   -0.33602  -0.33500  -0.33231  -0.33207  -0.32985
 Alpha  occ. eigenvalues --   -0.32794  -0.32568  -0.32441  -0.32001  -0.31758
 Alpha  occ. eigenvalues --   -0.31649  -0.31610  -0.31426  -0.31370  -0.31240
 Alpha  occ. eigenvalues --   -0.31175  -0.30883  -0.30801  -0.30612  -0.30548
 Alpha  occ. eigenvalues --   -0.30387  -0.30115  -0.30092  -0.29852  -0.29777
 Alpha  occ. eigenvalues --   -0.29545  -0.29147  -0.28854  -0.28805  -0.28735
 Alpha  occ. eigenvalues --   -0.28545  -0.28521  -0.27863  -0.27715  -0.27657
 Alpha  occ. eigenvalues --   -0.27297  -0.27264  -0.26838  -0.26603  -0.26296
 Alpha  occ. eigenvalues --   -0.26111  -0.25907  -0.25854  -0.25427  -0.25256
 Alpha  occ. eigenvalues --   -0.25248  -0.25196  -0.24045  -0.23671  -0.23513
 Alpha  occ. eigenvalues --   -0.23020  -0.22047  -0.21663  -0.20562  -0.20427
 Alpha  occ. eigenvalues --   -0.20261  -0.20037  -0.18358  -0.17722  -0.17094
 Alpha  occ. eigenvalues --   -0.15885
 Alpha virt. eigenvalues --   -0.11732  -0.06685  -0.05842  -0.04385  -0.03053
 Alpha virt. eigenvalues --   -0.02663  -0.01697  -0.01498  -0.01345   0.00569
 Alpha virt. eigenvalues --    0.02023   0.02100   0.02135   0.02344   0.02656

 Mulliken charges:
               1
     1  Mg   0.703804
     2  C    0.034019
     3  C   -0.053083
     4  C   -0.015731
     5  C   -0.080993
     6  N   -0.225171
     7  C   -0.096843
     8  C    0.013310
     9  C   -0.024561
    10  C    0.037936
    11  C    0.136301
    12  C    0.139611
    13  C    0.112934
    14  C    0.077583
    15  O   -0.183597
    16  O   -0.283753
    17  N   -0.327077
    18  C    0.153737
    19  C   -0.164506
    20  C    0.023822
    21  C    0.124420
    22  C    0.168698
    23  C   -0.096724
    24  O   -0.176976
    25  C    0.143961
    26  N   -0.205139
    27  C   -0.026564
    28  C    0.039506
    29  C    0.016715
    30  C    0.001526
    31  C    0.149193
    32  C    0.087490
    33  C    0.085414
    34  N   -0.261945
    35  C    0.138755
    36  C   -0.186501
    37  C    0.112055
    38  C    0.086944
    39  C    0.190623
    40  C   -0.072527
    41  O   -0.103014
    42  C    0.029087
    43  C    0.116636
    44  O   -0.185124
    45  O   -0.274465
    46  C    0.222194
    47  C    0.345309
    48  C   -0.112234
    49  C   -0.178196
    50  C    0.135603
    51  C    0.156296
    52  C    0.096621
    53  C    0.061708
    54  C   -0.106229
    55  C    0.119520
    56  C    0.112157
    57  C    0.044037
    58  C    0.156792
    59  C   -0.065733
    60  C    0.110369
    61  C    0.085365
    62  C    0.081158
    63  C    0.108125
    64  C   -0.087815
    65  C    0.088781
    66  C    0.108440
    67  H   -0.067583
    68  H   -0.040821
    69  H   -0.069778
    70  H   -0.031895
    71  H   -0.033751
    72  H   -0.011569
    73  H    0.001098
    74  H   -0.015203
    75  H   -0.018439
    76  H    0.026802
    77  H   -0.004654
    78  H   -0.012774
    79  H   -0.014236
    80  H    0.001215
    81  H    0.025148
    82  H    0.018803
    83  H   -0.006553
    84  H    0.004940
    85  H   -0.038289
    86  H   -0.043131
    87  H   -0.016307
    88  H   -0.005089
    89  H    0.005370
    90  H   -0.025959
    91  H   -0.027651
    92  H   -0.004379
    93  H    0.006293
    94  H   -0.008679
    95  H   -0.002319
    96  H    0.007781
    97  H    0.014597
    98  H   -0.009811
    99  H    0.004229
   100  H    0.026132
   101  H   -0.002400
   102  H    0.017148
   103  H    0.004496
   104  H   -0.042173
   105  H   -0.018890
   106  H    0.001475
   107  H    0.004237
   108  H   -0.033840
   109  H   -0.018033
   110  H   -0.026142
   111  H   -0.032476
   112  H   -0.027129
   113  H   -0.037559
   114  H   -0.023632
   115  H   -0.014323
   116  H   -0.035921
   117  H   -0.009292
   118  H   -0.029841
   119  H   -0.040628
   120  H   -0.049535
   121  H   -0.047542
   122  H   -0.043845
   123  H   -0.042955
   124  H   -0.035409
   125  H   -0.019841
   126  H   -0.030717
   127  H   -0.017583
   128  H   -0.035595
   129  H   -0.035822
   130  H   -0.034485
   131  H   -0.039246
   132  H   -0.039807
   133  H   -0.015937
   134  H   -0.044280
   135  H   -0.007002
   136  H   -0.016650
   137  H   -0.029244
   138  H   -0.014133
   139  H   -0.034091
   140  H    0.003047
 Sum of Mulliken charges =  -0.00000

 Dipole moment (field-independent basis, Debye):
    X=             -2.9736    Y=              2.4009    Z=             -1.5318  Tot=              4.1174
 Quadrupole moment (field-independent basis, Debye-Ang):
   XX=           -368.0450   YY=           -423.9110   ZZ=           -402.1036
   XY=              0.0754   XZ=              5.6532   YZ=             -9.6282

 Normal termination of Gaussian 16 at Sat Apr 30 07:21:04 2022.
