 Gaussian 16, Revision A.03,
 Gaussian 16:  ES64L-G16RevA.03 25-Dec-2016

 -----------------------------------
 #p cam-b3lyp/Def2SVP td=(nstates=5)
 -----------------------------------

 ------------------------------------------------------
 step_651_chromophore_1 TDDFT with cam-b3lyp functional
 ------------------------------------------------------
 Symbolic Z-matrix:
 Charge =  0 Multiplicity = 1

                         Standard orientation:
 ---------------------------------------------------------------------
 Center     Atomic      Atomic             Coordinates (Angstroms)
 Number     Number       Type             X           Y           Z
 ---------------------------------------------------------------------
      1         12           0        5.962799    0.499242    0.151348
      2          6           0        3.897317   -2.148002   -0.832691
      3          6           0        3.732709    2.629735   -1.514412
      4          6           0        8.296613    2.993108    0.356344
      5          6           0        8.569838   -1.812331    0.826021
      6          7           0        4.048685    0.197950   -0.996109
      7          6           0        3.303682   -0.955968   -1.151919
      8          6           0        1.938194   -0.700973   -1.813090
      9          6           0        2.188389    0.744606   -2.390807
     10          6           0        3.407869    1.264477   -1.591892
     11          6           0        2.344671    0.754564   -3.942514
     12          6           0        0.703526   -0.790884   -0.845387
     13          6           0       -0.469582   -1.598706   -1.384320
     14          6           0       -1.404231   -2.255410   -0.332216
     15          8           0       -1.071006   -2.783047    0.722857
     16          8           0       -2.712494   -2.116123   -0.731646
     17          7           0        5.896709    2.532627   -0.253431
     18          6           0        4.911772    3.271288   -0.948037
     19          6           0        5.229557    4.669755   -0.946402
     20          6           0        6.517570    4.805783   -0.274823
     21          6           0        6.957642    3.410992   -0.017247
     22          6           0        4.297504    5.764771   -1.502564
     23          6           0        7.273560    6.096755    0.032600
     24          8           0        8.361346    6.069048    0.598359
     25          6           0        6.687132    7.475881   -0.160919
     26          7           0        8.167412    0.535706    0.372044
     27          6           0        8.822959    1.720966    0.590601
     28          6           0       10.307896    1.445771    0.927481
     29          6           0       10.247797    0.000188    1.429854
     30          6           0        8.936006   -0.493725    0.829126
     31          6           0       11.381734    1.696928   -0.201584
     32          6           0       10.291072   -0.144958    2.971612
     33          6           0        9.039724    0.163447    3.854372
     34          7           0        6.226314   -1.547061    0.129714
     35          6           0        7.308484   -2.356764    0.490104
     36          6           0        6.902990   -3.724409    0.432175
     37          6           0        5.574624   -3.717946   -0.051613
     38          6           0        5.222870   -2.305668   -0.295286
     39          6           0        7.704143   -4.934887    0.813047
     40          6           0        4.534722   -4.545252   -0.480267
     41          8           0        4.403767   -5.730074   -0.373961
     42          6           0        3.320379   -3.616903   -0.931756
     43          6           0        2.276307   -3.841517    0.048009
     44          8           0        1.990382   -3.102317    0.997123
     45          8           0        1.629784   -5.019658   -0.259761
     46          6           0        0.490527   -5.439536    0.557606
     47          6           0       -3.758874   -2.608328    0.219136
     48          6           0       -5.050636   -2.015177   -0.243000
     49          6           0       -6.303483   -2.522252   -0.304082
     50          6           0       -6.718083   -3.892326    0.234469
     51          6           0       -7.427540   -1.670865   -0.831515
     52          6           0       -8.065659   -0.653063    0.127162
     53          6           0       -9.543685   -0.327572   -0.142178
     54          6           0       -9.929916    1.166695   -0.313780
     55          6           0       -9.334478    1.800102   -1.593406
     56          6           0       -9.579720    1.963807    0.973723
     57          6           0      -10.681637    2.927645    1.525110
     58          6           0      -11.549129    2.508215    2.722048
     59          6           0      -12.969100    2.209000    2.449309
     60          6           0      -13.962821    2.689418    3.531092
     61          6           0      -13.268369    0.676314    2.228093
     62          6           0      -14.406380    0.376960    1.237277
     63          6           0      -13.971529   -0.032098   -0.207854
     64          6           0      -14.556888    0.818878   -1.359904
     65          6           0      -14.955498   -0.155989   -2.489103
     66          6           0      -13.647332    2.046593   -1.821403
     67          1           0        2.997859    3.245900   -2.035975
     68          1           0        9.114140    3.716401    0.339768
     69          1           0        9.360022   -2.469419    1.194870
     70          1           0        1.919075   -1.447759   -2.606920
     71          1           0        1.308584    1.340882   -2.146151
     72          1           0        1.634418    1.418333   -4.436436
     73          1           0        2.342391   -0.228592   -4.412832
     74          1           0        3.300839    1.255023   -4.095138
     75          1           0        0.212232    0.156088   -0.624725
     76          1           0        1.196106   -1.188773    0.042140
     77          1           0       -0.110634   -2.424854   -1.998560
     78          1           0       -1.096130   -0.990219   -2.035307
     79          1           0        3.649205    5.308698   -2.250315
     80          1           0        4.945092    6.464599   -2.030072
     81          1           0        3.682523    6.214049   -0.723395
     82          1           0        6.917426    7.753608   -1.189616
     83          1           0        7.117680    8.241818    0.485253
     84          1           0        5.666242    7.258172    0.153216
     85          1           0       10.544888    2.036982    1.811182
     86          1           0       11.060472   -0.576034    0.986773
     87          1           0       11.027898    2.461855   -0.892178
     88          1           0       11.432172    0.807012   -0.829364
     89          1           0       12.301840    2.098016    0.223481
     90          1           0       11.154634    0.462922    3.240520
     91          1           0       10.651930   -1.165360    3.103907
     92          1           0        9.228815    0.614861    4.827327
     93          1           0        8.402596   -0.720085    3.899411
     94          1           0        8.428605    0.960734    3.432223
     95          1           0        8.019151   -4.545137    1.780658
     96          1           0        8.571917   -5.030208    0.160137
     97          1           0        7.078496   -5.817610    0.944523
     98          1           0        2.803970   -3.832404   -1.867858
     99          1           0       -0.449415   -5.312178    0.019774
    100          1           0        0.450135   -4.941774    1.526873
    101          1           0        0.512610   -6.493473    0.838201
    102          1           0       -3.681328   -2.192369    1.223689
    103          1           0       -3.720524   -3.697648    0.203863
    104          1           0       -4.979548   -1.030382   -0.705805
    105          1           0       -5.910489   -4.478001    0.673986
    106          1           0       -7.072342   -4.373619   -0.677095
    107          1           0       -7.499936   -3.828216    0.990976
    108          1           0       -8.199527   -2.330331   -1.227332
    109          1           0       -6.857633   -1.085163   -1.553473
    110          1           0       -7.542221    0.302673    0.106661
    111          1           0       -8.064397   -1.012636    1.155993
    112          1           0      -10.191350   -0.677680    0.661601
    113          1           0       -9.797965   -0.899777   -1.034472
    114          1           0      -11.004381    1.267143   -0.468768
    115          1           0      -10.083497    2.126641   -2.314039
    116          1           0       -8.956446    0.935787   -2.139970
    117          1           0       -8.555199    2.529523   -1.369854
    118          1           0       -8.652979    2.513955    0.812974
    119          1           0       -9.453512    1.204954    1.746325
    120          1           0      -11.317216    3.181471    0.676805
    121          1           0      -10.275946    3.926615    1.688150
    122          1           0      -11.407331    3.343668    3.408631
    123          1           0      -10.995677    1.646237    3.092928
    124          1           0      -13.267567    2.764882    1.560969
    125          1           0      -13.596558    3.498260    4.162819
    126          1           0      -14.196779    1.862888    4.202510
    127          1           0      -14.907695    2.938265    3.047640
    128          1           0      -13.495787    0.259101    3.209331
    129          1           0      -12.331318    0.219484    1.909627
    130          1           0      -15.095391    1.211574    1.111619
    131          1           0      -14.981562   -0.408355    1.728409
    132          1           0      -14.459096   -1.000181   -0.327313
    133          1           0      -12.882431   -0.064769   -0.240177
    134          1           0      -15.554961    1.133415   -1.055927
    135          1           0      -15.983755   -0.498375   -2.379446
    136          1           0      -14.222745   -0.959822   -2.426185
    137          1           0      -14.842491    0.292191   -3.476674
    138          1           0      -14.018401    2.984077   -1.407917
    139          1           0      -13.884802    2.266132   -2.862321
    140          1           0      -12.569916    1.941414   -1.692006
 ---------------------------------------------------------------------

 SCF Done:  E(RCAM-B3LYP) =  -3007.17525070     A.U. after   19 cycles

 Excitation energies and oscillator strengths:

 Excited State   1:      Singlet-A      1.6488 eV  751.95 nm  f=0.3775  <S**2>=0.000
     245 -> 248        0.17430
     246 -> 247        0.68739
     245 <- 248        0.10855
 This state for optimization and/or second-order correction.
 Total Energy, E(TD-HF/TD-DFT) =  -3007.11465746
 Copying the excited state density for this state as the 1-particle RhoCI density.

 Excited State   2:      Singlet-A      2.1671 eV  572.13 nm  f=0.1611  <S**2>=0.000
     245 -> 247        0.65490
     246 -> 248       -0.25138

 Excited State   3:      Singlet-A      3.2624 eV  380.04 nm  f=0.0013  <S**2>=0.000
     243 -> 247       -0.12121
     244 -> 247        0.66972

 Excited State   4:      Singlet-A      3.3293 eV  372.40 nm  f=0.0036  <S**2>=0.000
     240 -> 247        0.15331
     240 -> 249        0.14405
     241 -> 247       -0.15179
     241 -> 251       -0.11299
     243 -> 247        0.59376
     246 -> 248        0.13236

 Excited State   5:      Singlet-A      3.3866 eV  366.10 nm  f=0.0045  <S**2>=0.000
     240 -> 247        0.32169
     240 -> 251        0.10577
     241 -> 247        0.47047
     241 -> 248       -0.13716
     241 -> 249       -0.20801
     241 -> 251        0.16063
     246 -> 248        0.14953

 The electronic state is 1-A.
 Alpha  occ. eigenvalues --  -46.89142 -19.24848 -19.23638 -19.19528 -19.18479
 Alpha  occ. eigenvalues --  -19.18102 -19.17989 -14.41867 -14.41512 -14.40078
 Alpha  occ. eigenvalues --  -14.39453 -10.39248 -10.38176 -10.34671 -10.34064
 Alpha  occ. eigenvalues --  -10.32490 -10.31225 -10.31045 -10.30627 -10.30583
 Alpha  occ. eigenvalues --  -10.30403 -10.29931 -10.29731 -10.29693 -10.29330
 Alpha  occ. eigenvalues --  -10.28803 -10.28154 -10.27924 -10.27909 -10.27862
 Alpha  occ. eigenvalues --  -10.27822 -10.27738 -10.27542 -10.27492 -10.27332
 Alpha  occ. eigenvalues --  -10.27202 -10.27087 -10.27050 -10.26713 -10.26636
 Alpha  occ. eigenvalues --  -10.26518 -10.26273 -10.26171 -10.26153 -10.26047
 Alpha  occ. eigenvalues --  -10.26043 -10.25990 -10.25927 -10.25893 -10.25806
 Alpha  occ. eigenvalues --  -10.25657 -10.25645 -10.25430 -10.25111 -10.25039
 Alpha  occ. eigenvalues --  -10.24980 -10.24911 -10.24776 -10.24737 -10.24677
 Alpha  occ. eigenvalues --  -10.24591 -10.24538 -10.24496 -10.24257 -10.24243
 Alpha  occ. eigenvalues --  -10.24027  -3.17576  -1.92450  -1.92037  -1.91875
 Alpha  occ. eigenvalues --   -1.15452  -1.14401  -1.10525  -1.09289  -1.07008
 Alpha  occ. eigenvalues --   -1.05999  -1.03760  -1.02905  -1.02312  -1.01015
 Alpha  occ. eigenvalues --   -0.91472  -0.90898  -0.89984  -0.88995  -0.88735
 Alpha  occ. eigenvalues --   -0.88611  -0.87833  -0.87654  -0.87036  -0.86761
 Alpha  occ. eigenvalues --   -0.86078  -0.85264  -0.84205  -0.83350  -0.82963
 Alpha  occ. eigenvalues --   -0.82497  -0.81628  -0.81159  -0.80755  -0.80114
 Alpha  occ. eigenvalues --   -0.79999  -0.78126  -0.77791  -0.77029  -0.76420
 Alpha  occ. eigenvalues --   -0.75847  -0.75463  -0.75162  -0.75097  -0.74006
 Alpha  occ. eigenvalues --   -0.73234  -0.72693  -0.71205  -0.70288  -0.69995
 Alpha  occ. eigenvalues --   -0.68768  -0.68523  -0.67405  -0.66919  -0.65453
 Alpha  occ. eigenvalues --   -0.65163  -0.64449  -0.64315  -0.63880  -0.63313
 Alpha  occ. eigenvalues --   -0.63065  -0.62997  -0.61445  -0.60940  -0.59735
 Alpha  occ. eigenvalues --   -0.59515  -0.59181  -0.58501  -0.57896  -0.56958
 Alpha  occ. eigenvalues --   -0.56651  -0.56477  -0.56001  -0.55689  -0.55013
 Alpha  occ. eigenvalues --   -0.54745  -0.54581  -0.54441  -0.54335  -0.53624
 Alpha  occ. eigenvalues --   -0.53567  -0.53230  -0.53062  -0.52997  -0.52841
 Alpha  occ. eigenvalues --   -0.52508  -0.52387  -0.51879  -0.51692  -0.51588
 Alpha  occ. eigenvalues --   -0.51424  -0.50989  -0.50938  -0.50710  -0.50641
 Alpha  occ. eigenvalues --   -0.50407  -0.50213  -0.50047  -0.49994  -0.49705
 Alpha  occ. eigenvalues --   -0.49376  -0.49205  -0.49044  -0.48958  -0.48638
 Alpha  occ. eigenvalues --   -0.48560  -0.48075  -0.47891  -0.47662  -0.47440
 Alpha  occ. eigenvalues --   -0.47345  -0.47228  -0.46863  -0.46474  -0.46347
 Alpha  occ. eigenvalues --   -0.46191  -0.45984  -0.45909  -0.45611  -0.45527
 Alpha  occ. eigenvalues --   -0.45336  -0.45128  -0.45012  -0.44780  -0.44584
 Alpha  occ. eigenvalues --   -0.44440  -0.44386  -0.44069  -0.43750  -0.43443
 Alpha  occ. eigenvalues --   -0.43263  -0.43174  -0.43099  -0.42863  -0.42793
 Alpha  occ. eigenvalues --   -0.42744  -0.42481  -0.42262  -0.42112  -0.41780
 Alpha  occ. eigenvalues --   -0.41646  -0.41495  -0.41345  -0.41233  -0.40990
 Alpha  occ. eigenvalues --   -0.40892  -0.40538  -0.40067  -0.39936  -0.39852
 Alpha  occ. eigenvalues --   -0.39736  -0.39634  -0.39494  -0.38751  -0.38536
 Alpha  occ. eigenvalues --   -0.38310  -0.38105  -0.37656  -0.37487  -0.37356
 Alpha  occ. eigenvalues --   -0.37023  -0.36924  -0.36560  -0.36500  -0.35990
 Alpha  occ. eigenvalues --   -0.35830  -0.35786  -0.35099  -0.34489  -0.34275
 Alpha  occ. eigenvalues --   -0.33798  -0.32747  -0.32466  -0.31270  -0.30144
 Alpha  occ. eigenvalues --   -0.30021  -0.29783  -0.29712  -0.29560  -0.23848
 Alpha  occ. eigenvalues --   -0.21248
 Alpha virt. eigenvalues --   -0.09037  -0.01363   0.00552   0.02093   0.02510
 Alpha virt. eigenvalues --    0.04934   0.05788   0.06036   0.06312   0.07155
 Alpha virt. eigenvalues --    0.08361   0.08388   0.08578   0.08762   0.09342

 Mulliken charges:
               1
     1  Mg   0.832259
     2  C    0.008638
     3  C   -0.068144
     4  C   -0.032535
     5  C   -0.083122
     6  N   -0.294875
     7  C   -0.055707
     8  C   -0.030562
     9  C   -0.076217
    10  C    0.053688
    11  C    0.078083
    12  C    0.081342
    13  C    0.042928
    14  C    0.161326
    15  O   -0.224507
    16  O   -0.349762
    17  N   -0.411886
    18  C    0.159900
    19  C   -0.171080
    20  C   -0.045569
    21  C    0.148686
    22  C    0.114945
    23  C   -0.018154
    24  O   -0.216370
    25  C    0.064931
    26  N   -0.268574
    27  C   -0.010149
    28  C   -0.018358
    29  C   -0.040316
    30  C    0.015034
    31  C    0.091415
    32  C    0.035572
    33  C    0.022418
    34  N   -0.352158
    35  C    0.138438
    36  C   -0.175840
    37  C    0.029237
    38  C    0.125322
    39  C    0.136962
    40  C    0.016240
    41  O   -0.141838
    42  C   -0.041643
    43  C    0.206249
    44  O   -0.222812
    45  O   -0.337532
    46  C    0.187493
    47  C    0.312894
    48  C   -0.134585
    49  C   -0.196959
    50  C    0.076810
    51  C    0.094258
    52  C    0.042962
    53  C    0.012747
    54  C   -0.150680
    55  C    0.060334
    56  C    0.056459
    57  C   -0.004551
    58  C    0.096313
    59  C   -0.123803
    60  C    0.054891
    61  C    0.036453
    62  C    0.029412
    63  C    0.052046
    64  C   -0.146481
    65  C    0.029672
    66  C    0.055189
    67  H   -0.032941
    68  H   -0.001787
    69  H   -0.032458
    70  H    0.002237
    71  H    0.001566
    72  H    0.013136
    73  H    0.024937
    74  H    0.011514
    75  H    0.011317
    76  H    0.061557
    77  H    0.023470
    78  H    0.022641
    79  H    0.012856
    80  H    0.026765
    81  H    0.050585
    82  H    0.045861
    83  H    0.029015
    84  H    0.030068
    85  H   -0.001360
    86  H   -0.004608
    87  H    0.009002
    88  H    0.018565
    89  H    0.029614
    90  H    0.002233
    91  H    0.000213
    92  H    0.021120
    93  H    0.028464
    94  H    0.012014
    95  H    0.020739
    96  H    0.033646
    97  H    0.043721
    98  H    0.032348
    99  H    0.022487
   100  H    0.052255
   101  H    0.020293
   102  H    0.046207
   103  H    0.031142
   104  H   -0.007210
   105  H    0.005616
   106  H    0.024710
   107  H    0.027181
   108  H   -0.003812
   109  H    0.010801
   110  H    0.000863
   111  H   -0.003339
   112  H   -0.000688
   113  H   -0.009154
   114  H   -0.002931
   115  H    0.009680
   116  H   -0.011305
   117  H    0.014112
   118  H   -0.001659
   119  H   -0.012814
   120  H   -0.022849
   121  H   -0.015591
   122  H   -0.011249
   123  H   -0.014470
   124  H   -0.005409
   125  H    0.005363
   126  H   -0.007217
   127  H    0.006517
   128  H   -0.006112
   129  H   -0.013162
   130  H   -0.008466
   131  H   -0.008611
   132  H   -0.006543
   133  H    0.004881
   134  H   -0.011170
   135  H    0.016692
   136  H    0.007113
   137  H   -0.003811
   138  H    0.009416
   139  H   -0.008144
   140  H    0.017558
 Sum of Mulliken charges =  -0.00000

 Dipole moment (field-independent basis, Debye):
    X=             -3.1272    Y=              2.9594    Z=             -1.7297  Tot=              4.6399
 Quadrupole moment (field-independent basis, Debye-Ang):
   XX=           -366.2219   YY=           -419.7546   ZZ=           -401.6868
   XY=              2.7319   XZ=              5.6310   YZ=            -10.5346

 Normal termination of Gaussian 16 at Sat Apr 30 06:23:32 2022.
