 Gaussian 16, Revision A.03,
 Gaussian 16:  ES64L-G16RevA.03 25-Dec-2016

 ---------------------------------
 #p PBE1PBE/Def2SVP td=(nstates=5)
 ---------------------------------

 ----------------------------------------------------
 step_651_chromophore_1 TDDFT with PBE1PBE functional
 ----------------------------------------------------
 Symbolic Z-matrix:
 Charge =  0 Multiplicity = 1

                         Standard orientation:
 ---------------------------------------------------------------------
 Center     Atomic      Atomic             Coordinates (Angstroms)
 Number     Number       Type             X           Y           Z
 ---------------------------------------------------------------------
      1         12           0        5.962799    0.499242    0.151348
      2          6           0        3.897317   -2.148002   -0.832691
      3          6           0        3.732709    2.629735   -1.514412
      4          6           0        8.296613    2.993108    0.356344
      5          6           0        8.569838   -1.812331    0.826021
      6          7           0        4.048685    0.197950   -0.996109
      7          6           0        3.303682   -0.955968   -1.151919
      8          6           0        1.938194   -0.700973   -1.813090
      9          6           0        2.188389    0.744606   -2.390807
     10          6           0        3.407869    1.264477   -1.591892
     11          6           0        2.344671    0.754564   -3.942514
     12          6           0        0.703526   -0.790884   -0.845387
     13          6           0       -0.469582   -1.598706   -1.384320
     14          6           0       -1.404231   -2.255410   -0.332216
     15          8           0       -1.071006   -2.783047    0.722857
     16          8           0       -2.712494   -2.116123   -0.731646
     17          7           0        5.896709    2.532627   -0.253431
     18          6           0        4.911772    3.271288   -0.948037
     19          6           0        5.229557    4.669755   -0.946402
     20          6           0        6.517570    4.805783   -0.274823
     21          6           0        6.957642    3.410992   -0.017247
     22          6           0        4.297504    5.764771   -1.502564
     23          6           0        7.273560    6.096755    0.032600
     24          8           0        8.361346    6.069048    0.598359
     25          6           0        6.687132    7.475881   -0.160919
     26          7           0        8.167412    0.535706    0.372044
     27          6           0        8.822959    1.720966    0.590601
     28          6           0       10.307896    1.445771    0.927481
     29          6           0       10.247797    0.000188    1.429854
     30          6           0        8.936006   -0.493725    0.829126
     31          6           0       11.381734    1.696928   -0.201584
     32          6           0       10.291072   -0.144958    2.971612
     33          6           0        9.039724    0.163447    3.854372
     34          7           0        6.226314   -1.547061    0.129714
     35          6           0        7.308484   -2.356764    0.490104
     36          6           0        6.902990   -3.724409    0.432175
     37          6           0        5.574624   -3.717946   -0.051613
     38          6           0        5.222870   -2.305668   -0.295286
     39          6           0        7.704143   -4.934887    0.813047
     40          6           0        4.534722   -4.545252   -0.480267
     41          8           0        4.403767   -5.730074   -0.373961
     42          6           0        3.320379   -3.616903   -0.931756
     43          6           0        2.276307   -3.841517    0.048009
     44          8           0        1.990382   -3.102317    0.997123
     45          8           0        1.629784   -5.019658   -0.259761
     46          6           0        0.490527   -5.439536    0.557606
     47          6           0       -3.758874   -2.608328    0.219136
     48          6           0       -5.050636   -2.015177   -0.243000
     49          6           0       -6.303483   -2.522252   -0.304082
     50          6           0       -6.718083   -3.892326    0.234469
     51          6           0       -7.427540   -1.670865   -0.831515
     52          6           0       -8.065659   -0.653063    0.127162
     53          6           0       -9.543685   -0.327572   -0.142178
     54          6           0       -9.929916    1.166695   -0.313780
     55          6           0       -9.334478    1.800102   -1.593406
     56          6           0       -9.579720    1.963807    0.973723
     57          6           0      -10.681637    2.927645    1.525110
     58          6           0      -11.549129    2.508215    2.722048
     59          6           0      -12.969100    2.209000    2.449309
     60          6           0      -13.962821    2.689418    3.531092
     61          6           0      -13.268369    0.676314    2.228093
     62          6           0      -14.406380    0.376960    1.237277
     63          6           0      -13.971529   -0.032098   -0.207854
     64          6           0      -14.556888    0.818878   -1.359904
     65          6           0      -14.955498   -0.155989   -2.489103
     66          6           0      -13.647332    2.046593   -1.821403
     67          1           0        2.997859    3.245900   -2.035975
     68          1           0        9.114140    3.716401    0.339768
     69          1           0        9.360022   -2.469419    1.194870
     70          1           0        1.919075   -1.447759   -2.606920
     71          1           0        1.308584    1.340882   -2.146151
     72          1           0        1.634418    1.418333   -4.436436
     73          1           0        2.342391   -0.228592   -4.412832
     74          1           0        3.300839    1.255023   -4.095138
     75          1           0        0.212232    0.156088   -0.624725
     76          1           0        1.196106   -1.188773    0.042140
     77          1           0       -0.110634   -2.424854   -1.998560
     78          1           0       -1.096130   -0.990219   -2.035307
     79          1           0        3.649205    5.308698   -2.250315
     80          1           0        4.945092    6.464599   -2.030072
     81          1           0        3.682523    6.214049   -0.723395
     82          1           0        6.917426    7.753608   -1.189616
     83          1           0        7.117680    8.241818    0.485253
     84          1           0        5.666242    7.258172    0.153216
     85          1           0       10.544888    2.036982    1.811182
     86          1           0       11.060472   -0.576034    0.986773
     87          1           0       11.027898    2.461855   -0.892178
     88          1           0       11.432172    0.807012   -0.829364
     89          1           0       12.301840    2.098016    0.223481
     90          1           0       11.154634    0.462922    3.240520
     91          1           0       10.651930   -1.165360    3.103907
     92          1           0        9.228815    0.614861    4.827327
     93          1           0        8.402596   -0.720085    3.899411
     94          1           0        8.428605    0.960734    3.432223
     95          1           0        8.019151   -4.545137    1.780658
     96          1           0        8.571917   -5.030208    0.160137
     97          1           0        7.078496   -5.817610    0.944523
     98          1           0        2.803970   -3.832404   -1.867858
     99          1           0       -0.449415   -5.312178    0.019774
    100          1           0        0.450135   -4.941774    1.526873
    101          1           0        0.512610   -6.493473    0.838201
    102          1           0       -3.681328   -2.192369    1.223689
    103          1           0       -3.720524   -3.697648    0.203863
    104          1           0       -4.979548   -1.030382   -0.705805
    105          1           0       -5.910489   -4.478001    0.673986
    106          1           0       -7.072342   -4.373619   -0.677095
    107          1           0       -7.499936   -3.828216    0.990976
    108          1           0       -8.199527   -2.330331   -1.227332
    109          1           0       -6.857633   -1.085163   -1.553473
    110          1           0       -7.542221    0.302673    0.106661
    111          1           0       -8.064397   -1.012636    1.155993
    112          1           0      -10.191350   -0.677680    0.661601
    113          1           0       -9.797965   -0.899777   -1.034472
    114          1           0      -11.004381    1.267143   -0.468768
    115          1           0      -10.083497    2.126641   -2.314039
    116          1           0       -8.956446    0.935787   -2.139970
    117          1           0       -8.555199    2.529523   -1.369854
    118          1           0       -8.652979    2.513955    0.812974
    119          1           0       -9.453512    1.204954    1.746325
    120          1           0      -11.317216    3.181471    0.676805
    121          1           0      -10.275946    3.926615    1.688150
    122          1           0      -11.407331    3.343668    3.408631
    123          1           0      -10.995677    1.646237    3.092928
    124          1           0      -13.267567    2.764882    1.560969
    125          1           0      -13.596558    3.498260    4.162819
    126          1           0      -14.196779    1.862888    4.202510
    127          1           0      -14.907695    2.938265    3.047640
    128          1           0      -13.495787    0.259101    3.209331
    129          1           0      -12.331318    0.219484    1.909627
    130          1           0      -15.095391    1.211574    1.111619
    131          1           0      -14.981562   -0.408355    1.728409
    132          1           0      -14.459096   -1.000181   -0.327313
    133          1           0      -12.882431   -0.064769   -0.240177
    134          1           0      -15.554961    1.133415   -1.055927
    135          1           0      -15.983755   -0.498375   -2.379446
    136          1           0      -14.222745   -0.959822   -2.426185
    137          1           0      -14.842491    0.292191   -3.476674
    138          1           0      -14.018401    2.984077   -1.407917
    139          1           0      -13.884802    2.266132   -2.862321
    140          1           0      -12.569916    1.941414   -1.692006
 ---------------------------------------------------------------------

 SCF Done:  E(RPBE1PBE) =  -3005.36371797     A.U. after   15 cycles

 Excitation energies and oscillator strengths:

 Excited State   1:      Singlet-A      1.8186 eV  681.77 nm  f=0.3617  <S**2>=0.000
     245 -> 248        0.16593
     246 -> 247        0.69473
     246 <- 247       -0.11265
 This state for optimization and/or second-order correction.
 Total Energy, E(TD-HF/TD-DFT) =  -3005.29688663
 Copying the excited state density for this state as the 1-particle RhoCI density.

 Excited State   2:      Singlet-A      2.1834 eV  567.86 nm  f=0.1481  <S**2>=0.000
     245 -> 247        0.66134
     246 -> 248       -0.23041

 Excited State   3:      Singlet-A      2.7766 eV  446.54 nm  f=0.0005  <S**2>=0.000
     244 -> 247        0.67951
     244 -> 249       -0.11207

 Excited State   4:      Singlet-A      2.8272 eV  438.53 nm  f=0.0020  <S**2>=0.000
     243 -> 247        0.68076
     243 -> 249        0.12166

 Excited State   5:      Singlet-A      2.9839 eV  415.52 nm  f=0.0034  <S**2>=0.000
     241 -> 247        0.68817

 The electronic state is 1-A.
 Alpha  occ. eigenvalues --  -46.92556 -19.25546 -19.24293 -19.19774 -19.18703
 Alpha  occ. eigenvalues --  -19.18360 -19.18174 -14.41440 -14.40978 -14.39770
 Alpha  occ. eigenvalues --  -14.39123 -10.36273 -10.35139 -10.31795 -10.31196
 Alpha  occ. eigenvalues --  -10.29877 -10.28938 -10.28753 -10.28365 -10.28286
 Alpha  occ. eigenvalues --  -10.28122 -10.27681 -10.27470 -10.27048 -10.26966
 Alpha  occ. eigenvalues --  -10.26493 -10.25989 -10.25724 -10.25711 -10.25591
 Alpha  occ. eigenvalues --  -10.25513 -10.25470 -10.25180 -10.25023 -10.25021
 Alpha  occ. eigenvalues --  -10.24883 -10.24749 -10.24740 -10.24383 -10.24210
 Alpha  occ. eigenvalues --  -10.24138 -10.23908 -10.23736 -10.23665 -10.23530
 Alpha  occ. eigenvalues --  -10.23506 -10.23451 -10.23367 -10.23361 -10.23238
 Alpha  occ. eigenvalues --  -10.23231 -10.23206 -10.22966 -10.22648 -10.22623
 Alpha  occ. eigenvalues --  -10.22524 -10.22494 -10.22394 -10.22338 -10.22307
 Alpha  occ. eigenvalues --  -10.22210 -10.22046 -10.21937 -10.21768 -10.21657
 Alpha  occ. eigenvalues --  -10.21424  -3.14572  -1.87384  -1.86952  -1.86794
 Alpha  occ. eigenvalues --   -1.10248  -1.09130  -1.05326  -1.03996  -1.01857
 Alpha  occ. eigenvalues --   -1.00783  -0.98395  -0.97508  -0.96948  -0.95663
 Alpha  occ. eigenvalues --   -0.85818  -0.85019  -0.84075  -0.83199  -0.83032
 Alpha  occ. eigenvalues --   -0.82747  -0.82164  -0.81764  -0.81366  -0.81065
 Alpha  occ. eigenvalues --   -0.80339  -0.79496  -0.78393  -0.77639  -0.77173
 Alpha  occ. eigenvalues --   -0.76719  -0.75818  -0.75348  -0.75044  -0.74453
 Alpha  occ. eigenvalues --   -0.74168  -0.72427  -0.72051  -0.71305  -0.70568
 Alpha  occ. eigenvalues --   -0.69934  -0.69796  -0.69479  -0.69263  -0.68158
 Alpha  occ. eigenvalues --   -0.67649  -0.67051  -0.65600  -0.64583  -0.64378
 Alpha  occ. eigenvalues --   -0.63183  -0.62835  -0.61616  -0.61356  -0.59663
 Alpha  occ. eigenvalues --   -0.59648  -0.58943  -0.58846  -0.58486  -0.57584
 Alpha  occ. eigenvalues --   -0.57422  -0.57163  -0.55701  -0.55535  -0.54124
 Alpha  occ. eigenvalues --   -0.54024  -0.53782  -0.53036  -0.52594  -0.51561
 Alpha  occ. eigenvalues --   -0.51060  -0.50810  -0.50417  -0.50219  -0.49623
 Alpha  occ. eigenvalues --   -0.49204  -0.49124  -0.48952  -0.48811  -0.48176
 Alpha  occ. eigenvalues --   -0.48040  -0.47827  -0.47496  -0.47356  -0.47271
 Alpha  occ. eigenvalues --   -0.47018  -0.46942  -0.46431  -0.46324  -0.46171
 Alpha  occ. eigenvalues --   -0.45929  -0.45506  -0.45456  -0.45267  -0.45173
 Alpha  occ. eigenvalues --   -0.45053  -0.44799  -0.44580  -0.44505  -0.44280
 Alpha  occ. eigenvalues --   -0.43954  -0.43738  -0.43680  -0.43552  -0.43267
 Alpha  occ. eigenvalues --   -0.43196  -0.42693  -0.42549  -0.42290  -0.42032
 Alpha  occ. eigenvalues --   -0.41918  -0.41816  -0.41573  -0.41142  -0.40971
 Alpha  occ. eigenvalues --   -0.40902  -0.40679  -0.40621  -0.40414  -0.40282
 Alpha  occ. eigenvalues --   -0.40046  -0.39787  -0.39769  -0.39508  -0.39273
 Alpha  occ. eigenvalues --   -0.39253  -0.39118  -0.38809  -0.38497  -0.38253
 Alpha  occ. eigenvalues --   -0.38047  -0.37952  -0.37779  -0.37683  -0.37553
 Alpha  occ. eigenvalues --   -0.37459  -0.37231  -0.37123  -0.36832  -0.36634
 Alpha  occ. eigenvalues --   -0.36522  -0.36349  -0.36129  -0.36060  -0.35767
 Alpha  occ. eigenvalues --   -0.35715  -0.35392  -0.34925  -0.34732  -0.34660
 Alpha  occ. eigenvalues --   -0.34554  -0.34502  -0.34329  -0.33693  -0.33354
 Alpha  occ. eigenvalues --   -0.33286  -0.32951  -0.32515  -0.32455  -0.32157
 Alpha  occ. eigenvalues --   -0.32052  -0.31901  -0.31414  -0.31353  -0.31067
 Alpha  occ. eigenvalues --   -0.30715  -0.30653  -0.30034  -0.29470  -0.29397
 Alpha  occ. eigenvalues --   -0.28618  -0.28125  -0.27492  -0.26896  -0.25438
 Alpha  occ. eigenvalues --   -0.25292  -0.25089  -0.24983  -0.24705  -0.20816
 Alpha  occ. eigenvalues --   -0.18862
 Alpha virt. eigenvalues --   -0.11413  -0.04944  -0.03595  -0.01862  -0.00758
 Alpha virt. eigenvalues --    0.00413   0.01306   0.01475   0.01766   0.03549
 Alpha virt. eigenvalues --    0.04809   0.04974   0.05088   0.05273   0.05624

 Mulliken charges:
               1
     1  Mg   0.972718
     2  C    0.004741
     3  C   -0.060880
     4  C   -0.024913
     5  C   -0.072314
     6  N   -0.393210
     7  C    0.013134
     8  C   -0.093299
     9  C   -0.152509
    10  C    0.085418
    11  C    0.022107
    12  C    0.032068
    13  C   -0.037235
    14  C    0.231017
    15  O   -0.257129
    16  O   -0.380314
    17  N   -0.518961
    18  C    0.178117
    19  C   -0.191147
    20  C   -0.094961
    21  C    0.173663
    22  C    0.052147
    23  C    0.033060
    24  O   -0.250886
    25  C   -0.011653
    26  N   -0.367048
    27  C    0.022016
    28  C   -0.092881
    29  C   -0.118650
    30  C    0.058796
    31  C    0.031529
    32  C   -0.022797
    33  C   -0.053660
    34  N   -0.481339
    35  C    0.156392
    36  C   -0.190207
    37  C   -0.019189
    38  C    0.177871
    39  C    0.081922
    40  C    0.100891
    41  O   -0.186231
    42  C   -0.149985
    43  C    0.298676
    44  O   -0.257067
    45  O   -0.369726
    46  C    0.134445
    47  C    0.270855
    48  C   -0.147553
    49  C   -0.235776
    50  C    0.015293
    51  C    0.022212
    52  C   -0.013371
    53  C   -0.051676
    54  C   -0.254110
    55  C    0.001326
    56  C    0.005121
    57  C   -0.063060
    58  C    0.038719
    59  C   -0.212569
    60  C   -0.001938
    61  C   -0.028902
    62  C   -0.026055
    63  C   -0.014200
    64  C   -0.235284
    65  C   -0.034428
    66  C   -0.013674
    67  H   -0.000765
    68  H    0.028932
    69  H   -0.001559
    70  H    0.039881
    71  H    0.038278
    72  H    0.040349
    73  H    0.051292
    74  H    0.040265
    75  H    0.043614
    76  H    0.096093
    77  H    0.055989
    78  H    0.054662
    79  H    0.041006
    80  H    0.056056
    81  H    0.076900
    82  H    0.071975
    83  H    0.056747
    84  H    0.057751
    85  H    0.036680
    86  H    0.032255
    87  H    0.037639
    88  H    0.045998
    89  H    0.056713
    90  H    0.035880
    91  H    0.033290
    92  H    0.049013
    93  H    0.056478
    94  H    0.042795
    95  H    0.048883
    96  H    0.061487
    97  H    0.070721
    98  H    0.067393
    99  H    0.045196
   100  H    0.072609
   101  H    0.042874
   102  H    0.073250
   103  H    0.056929
   104  H    0.022607
   105  H    0.032917
   106  H    0.053056
   107  H    0.054255
   108  H    0.027569
   109  H    0.043841
   110  H    0.033845
   111  H    0.029567
   112  H    0.035268
   113  H    0.023814
   114  H    0.051699
   115  H    0.038067
   116  H    0.018379
   117  H    0.039965
   118  H    0.029312
   119  H    0.021313
   120  H    0.010826
   121  H    0.017034
   122  H    0.021429
   123  H    0.018271
   124  H    0.034857
   125  H    0.032510
   126  H    0.019988
   127  H    0.034048
   128  H    0.026205
   129  H    0.025929
   130  H    0.023446
   131  H    0.024011
   132  H    0.028438
   133  H    0.042569
   134  H    0.027105
   135  H    0.044233
   136  H    0.035554
   137  H    0.024254
   138  H    0.036328
   139  H    0.019892
   140  H    0.050585
 Sum of Mulliken charges =  -0.00000

 Dipole moment (field-independent basis, Debye):
    X=             -3.0939    Y=              2.8846    Z=             -1.6695  Tot=              4.5476
 Quadrupole moment (field-independent basis, Debye-Ang):
   XX=           -360.2088   YY=           -417.1697   ZZ=           -398.9021
   XY=              1.8746   XZ=              6.8008   YZ=            -10.9773

 Normal termination of Gaussian 16 at Sat Apr 30 06:43:22 2022.
