 Gaussian 16, Revision A.03,
 Gaussian 16:  ES64L-G16RevA.03 25-Dec-2016

 --------------------------------
 #p wB97XD/Def2SVP td=(nstates=5)
 --------------------------------

 ---------------------------------------------------
 step_651_chromophore_1 TDDFT with wB97XD functional
 ---------------------------------------------------
 Symbolic Z-matrix:
 Charge =  0 Multiplicity = 1

                         Standard orientation:
 ---------------------------------------------------------------------
 Center     Atomic      Atomic             Coordinates (Angstroms)
 Number     Number       Type             X           Y           Z
 ---------------------------------------------------------------------
      1         12           0        5.962799    0.499242    0.151348
      2          6           0        3.897317   -2.148002   -0.832691
      3          6           0        3.732709    2.629735   -1.514412
      4          6           0        8.296613    2.993108    0.356344
      5          6           0        8.569838   -1.812331    0.826021
      6          7           0        4.048685    0.197950   -0.996109
      7          6           0        3.303682   -0.955968   -1.151919
      8          6           0        1.938194   -0.700973   -1.813090
      9          6           0        2.188389    0.744606   -2.390807
     10          6           0        3.407869    1.264477   -1.591892
     11          6           0        2.344671    0.754564   -3.942514
     12          6           0        0.703526   -0.790884   -0.845387
     13          6           0       -0.469582   -1.598706   -1.384320
     14          6           0       -1.404231   -2.255410   -0.332216
     15          8           0       -1.071006   -2.783047    0.722857
     16          8           0       -2.712494   -2.116123   -0.731646
     17          7           0        5.896709    2.532627   -0.253431
     18          6           0        4.911772    3.271288   -0.948037
     19          6           0        5.229557    4.669755   -0.946402
     20          6           0        6.517570    4.805783   -0.274823
     21          6           0        6.957642    3.410992   -0.017247
     22          6           0        4.297504    5.764771   -1.502564
     23          6           0        7.273560    6.096755    0.032600
     24          8           0        8.361346    6.069048    0.598359
     25          6           0        6.687132    7.475881   -0.160919
     26          7           0        8.167412    0.535706    0.372044
     27          6           0        8.822959    1.720966    0.590601
     28          6           0       10.307896    1.445771    0.927481
     29          6           0       10.247797    0.000188    1.429854
     30          6           0        8.936006   -0.493725    0.829126
     31          6           0       11.381734    1.696928   -0.201584
     32          6           0       10.291072   -0.144958    2.971612
     33          6           0        9.039724    0.163447    3.854372
     34          7           0        6.226314   -1.547061    0.129714
     35          6           0        7.308484   -2.356764    0.490104
     36          6           0        6.902990   -3.724409    0.432175
     37          6           0        5.574624   -3.717946   -0.051613
     38          6           0        5.222870   -2.305668   -0.295286
     39          6           0        7.704143   -4.934887    0.813047
     40          6           0        4.534722   -4.545252   -0.480267
     41          8           0        4.403767   -5.730074   -0.373961
     42          6           0        3.320379   -3.616903   -0.931756
     43          6           0        2.276307   -3.841517    0.048009
     44          8           0        1.990382   -3.102317    0.997123
     45          8           0        1.629784   -5.019658   -0.259761
     46          6           0        0.490527   -5.439536    0.557606
     47          6           0       -3.758874   -2.608328    0.219136
     48          6           0       -5.050636   -2.015177   -0.243000
     49          6           0       -6.303483   -2.522252   -0.304082
     50          6           0       -6.718083   -3.892326    0.234469
     51          6           0       -7.427540   -1.670865   -0.831515
     52          6           0       -8.065659   -0.653063    0.127162
     53          6           0       -9.543685   -0.327572   -0.142178
     54          6           0       -9.929916    1.166695   -0.313780
     55          6           0       -9.334478    1.800102   -1.593406
     56          6           0       -9.579720    1.963807    0.973723
     57          6           0      -10.681637    2.927645    1.525110
     58          6           0      -11.549129    2.508215    2.722048
     59          6           0      -12.969100    2.209000    2.449309
     60          6           0      -13.962821    2.689418    3.531092
     61          6           0      -13.268369    0.676314    2.228093
     62          6           0      -14.406380    0.376960    1.237277
     63          6           0      -13.971529   -0.032098   -0.207854
     64          6           0      -14.556888    0.818878   -1.359904
     65          6           0      -14.955498   -0.155989   -2.489103
     66          6           0      -13.647332    2.046593   -1.821403
     67          1           0        2.997859    3.245900   -2.035975
     68          1           0        9.114140    3.716401    0.339768
     69          1           0        9.360022   -2.469419    1.194870
     70          1           0        1.919075   -1.447759   -2.606920
     71          1           0        1.308584    1.340882   -2.146151
     72          1           0        1.634418    1.418333   -4.436436
     73          1           0        2.342391   -0.228592   -4.412832
     74          1           0        3.300839    1.255023   -4.095138
     75          1           0        0.212232    0.156088   -0.624725
     76          1           0        1.196106   -1.188773    0.042140
     77          1           0       -0.110634   -2.424854   -1.998560
     78          1           0       -1.096130   -0.990219   -2.035307
     79          1           0        3.649205    5.308698   -2.250315
     80          1           0        4.945092    6.464599   -2.030072
     81          1           0        3.682523    6.214049   -0.723395
     82          1           0        6.917426    7.753608   -1.189616
     83          1           0        7.117680    8.241818    0.485253
     84          1           0        5.666242    7.258172    0.153216
     85          1           0       10.544888    2.036982    1.811182
     86          1           0       11.060472   -0.576034    0.986773
     87          1           0       11.027898    2.461855   -0.892178
     88          1           0       11.432172    0.807012   -0.829364
     89          1           0       12.301840    2.098016    0.223481
     90          1           0       11.154634    0.462922    3.240520
     91          1           0       10.651930   -1.165360    3.103907
     92          1           0        9.228815    0.614861    4.827327
     93          1           0        8.402596   -0.720085    3.899411
     94          1           0        8.428605    0.960734    3.432223
     95          1           0        8.019151   -4.545137    1.780658
     96          1           0        8.571917   -5.030208    0.160137
     97          1           0        7.078496   -5.817610    0.944523
     98          1           0        2.803970   -3.832404   -1.867858
     99          1           0       -0.449415   -5.312178    0.019774
    100          1           0        0.450135   -4.941774    1.526873
    101          1           0        0.512610   -6.493473    0.838201
    102          1           0       -3.681328   -2.192369    1.223689
    103          1           0       -3.720524   -3.697648    0.203863
    104          1           0       -4.979548   -1.030382   -0.705805
    105          1           0       -5.910489   -4.478001    0.673986
    106          1           0       -7.072342   -4.373619   -0.677095
    107          1           0       -7.499936   -3.828216    0.990976
    108          1           0       -8.199527   -2.330331   -1.227332
    109          1           0       -6.857633   -1.085163   -1.553473
    110          1           0       -7.542221    0.302673    0.106661
    111          1           0       -8.064397   -1.012636    1.155993
    112          1           0      -10.191350   -0.677680    0.661601
    113          1           0       -9.797965   -0.899777   -1.034472
    114          1           0      -11.004381    1.267143   -0.468768
    115          1           0      -10.083497    2.126641   -2.314039
    116          1           0       -8.956446    0.935787   -2.139970
    117          1           0       -8.555199    2.529523   -1.369854
    118          1           0       -8.652979    2.513955    0.812974
    119          1           0       -9.453512    1.204954    1.746325
    120          1           0      -11.317216    3.181471    0.676805
    121          1           0      -10.275946    3.926615    1.688150
    122          1           0      -11.407331    3.343668    3.408631
    123          1           0      -10.995677    1.646237    3.092928
    124          1           0      -13.267567    2.764882    1.560969
    125          1           0      -13.596558    3.498260    4.162819
    126          1           0      -14.196779    1.862888    4.202510
    127          1           0      -14.907695    2.938265    3.047640
    128          1           0      -13.495787    0.259101    3.209331
    129          1           0      -12.331318    0.219484    1.909627
    130          1           0      -15.095391    1.211574    1.111619
    131          1           0      -14.981562   -0.408355    1.728409
    132          1           0      -14.459096   -1.000181   -0.327313
    133          1           0      -12.882431   -0.064769   -0.240177
    134          1           0      -15.554961    1.133415   -1.055927
    135          1           0      -15.983755   -0.498375   -2.379446
    136          1           0      -14.222745   -0.959822   -2.426185
    137          1           0      -14.842491    0.292191   -3.476674
    138          1           0      -14.018401    2.984077   -1.407917
    139          1           0      -13.884802    2.266132   -2.862321
    140          1           0      -12.569916    1.941414   -1.692006
 ---------------------------------------------------------------------

 SCF Done:  E(RwB97XD) =  -3007.87638610     A.U. after   19 cycles

 Excitation energies and oscillator strengths:

 Excited State   1:      Singlet-A      1.5871 eV  781.20 nm  f=0.3765  <S**2>=0.000
     245 -> 248        0.18082
     246 -> 247        0.68507
     245 <- 248        0.11835
 This state for optimization and/or second-order correction.
 Total Energy, E(TD-HF/TD-DFT) =  -3007.81806159
 Copying the excited state density for this state as the 1-particle RhoCI density.

 Excited State   2:      Singlet-A      2.1091 eV  587.84 nm  f=0.1566  <S**2>=0.000
     245 -> 247        0.65263
     246 -> 248       -0.25491

 Excited State   3:      Singlet-A      3.2816 eV  377.81 nm  f=0.0014  <S**2>=0.000
     241 -> 247       -0.16505
     242 -> 247        0.14130
     244 -> 247        0.63885

 Excited State   4:      Singlet-A      3.3539 eV  369.68 nm  f=0.0024  <S**2>=0.000
     240 -> 249       -0.11703
     241 -> 247       -0.10909
     241 -> 249       -0.10239
     242 -> 247        0.35917
     243 -> 247        0.45832
     244 -> 247       -0.17857
     244 -> 249       -0.11393
     246 -> 248       -0.15359

 Excited State   5:      Singlet-A      3.4135 eV  363.22 nm  f=0.0074  <S**2>=0.000
     240 -> 247        0.16529
     241 -> 247        0.51273
     241 -> 248       -0.11793
     241 -> 249       -0.17825
     241 -> 250        0.15504
     242 -> 249       -0.11363
     243 -> 249       -0.13229
     246 -> 248        0.16504

 The electronic state is 1-A.
 Alpha  occ. eigenvalues --  -46.95475 -19.30091 -19.28852 -19.24432 -19.23400
 Alpha  occ. eigenvalues --  -19.23117 -19.23021 -14.46465 -14.46108 -14.44709
 Alpha  occ. eigenvalues --  -14.44025 -10.43042 -10.41980 -10.38641 -10.38032
 Alpha  occ. eigenvalues --  -10.36383 -10.35300 -10.35079 -10.34655 -10.34642
 Alpha  occ. eigenvalues --  -10.34431 -10.33905 -10.33701 -10.33480 -10.33333
 Alpha  occ. eigenvalues --  -10.32969 -10.32230 -10.32035 -10.31955 -10.31936
 Alpha  occ. eigenvalues --  -10.31883 -10.31866 -10.31551 -10.31441 -10.31281
 Alpha  occ. eigenvalues --  -10.31239 -10.31095 -10.31077 -10.30661 -10.30646
 Alpha  occ. eigenvalues --  -10.30593 -10.30257 -10.30023 -10.30008 -10.29983
 Alpha  occ. eigenvalues --  -10.29888 -10.29857 -10.29846 -10.29803 -10.29649
 Alpha  occ. eigenvalues --  -10.29644 -10.29598 -10.29369 -10.28990 -10.28953
 Alpha  occ. eigenvalues --  -10.28942 -10.28863 -10.28705 -10.28674 -10.28623
 Alpha  occ. eigenvalues --  -10.28588 -10.28411 -10.28373 -10.28148 -10.28074
 Alpha  occ. eigenvalues --  -10.27860  -3.21376  -1.94933  -1.94501  -1.94340
 Alpha  occ. eigenvalues --   -1.17617  -1.16541  -1.12743  -1.11508  -1.09187
 Alpha  occ. eigenvalues --   -1.08159  -1.05749  -1.04898  -1.04319  -1.03061
 Alpha  occ. eigenvalues --   -0.93422  -0.92700  -0.91748  -0.90830  -0.90602
 Alpha  occ. eigenvalues --   -0.90407  -0.89753  -0.89424  -0.88961  -0.88701
 Alpha  occ. eigenvalues --   -0.88019  -0.87142  -0.86054  -0.85263  -0.84818
 Alpha  occ. eigenvalues --   -0.84363  -0.83537  -0.83034  -0.82680  -0.82062
 Alpha  occ. eigenvalues --   -0.81838  -0.80069  -0.79709  -0.78916  -0.78258
 Alpha  occ. eigenvalues --   -0.77633  -0.77401  -0.77076  -0.76935  -0.75832
 Alpha  occ. eigenvalues --   -0.75196  -0.74638  -0.73150  -0.72198  -0.71918
 Alpha  occ. eigenvalues --   -0.70724  -0.70440  -0.69269  -0.68917  -0.67305
 Alpha  occ. eigenvalues --   -0.67125  -0.66419  -0.66287  -0.65884  -0.65111
 Alpha  occ. eigenvalues --   -0.65028  -0.64824  -0.63310  -0.62923  -0.61634
 Alpha  occ. eigenvalues --   -0.61486  -0.61191  -0.60467  -0.59894  -0.58933
 Alpha  occ. eigenvalues --   -0.58591  -0.58336  -0.57895  -0.57607  -0.57002
 Alpha  occ. eigenvalues --   -0.56647  -0.56521  -0.56370  -0.56249  -0.55553
 Alpha  occ. eigenvalues --   -0.55460  -0.55169  -0.54977  -0.54890  -0.54688
 Alpha  occ. eigenvalues --   -0.54399  -0.54289  -0.53771  -0.53622  -0.53518
 Alpha  occ. eigenvalues --   -0.53318  -0.52891  -0.52842  -0.52646  -0.52510
 Alpha  occ. eigenvalues --   -0.52354  -0.52151  -0.51914  -0.51875  -0.51655
 Alpha  occ. eigenvalues --   -0.51290  -0.51075  -0.50945  -0.50851  -0.50540
 Alpha  occ. eigenvalues --   -0.50481  -0.49975  -0.49806  -0.49559  -0.49380
 Alpha  occ. eigenvalues --   -0.49242  -0.49135  -0.48783  -0.48415  -0.48195
 Alpha  occ. eigenvalues --   -0.48110  -0.47877  -0.47802  -0.47546  -0.47434
 Alpha  occ. eigenvalues --   -0.47224  -0.46995  -0.46914  -0.46663  -0.46466
 Alpha  occ. eigenvalues --   -0.46402  -0.46341  -0.45945  -0.45662  -0.45373
 Alpha  occ. eigenvalues --   -0.45180  -0.45103  -0.44961  -0.44776  -0.44713
 Alpha  occ. eigenvalues --   -0.44619  -0.44354  -0.44140  -0.43978  -0.43753
 Alpha  occ. eigenvalues --   -0.43597  -0.43422  -0.43220  -0.43188  -0.42845
 Alpha  occ. eigenvalues --   -0.42808  -0.42427  -0.41977  -0.41802  -0.41764
 Alpha  occ. eigenvalues --   -0.41587  -0.41523  -0.41351  -0.40663  -0.40386
 Alpha  occ. eigenvalues --   -0.40216  -0.39942  -0.39499  -0.39410  -0.39195
 Alpha  occ. eigenvalues --   -0.39052  -0.38933  -0.38406  -0.38348  -0.38029
 Alpha  occ. eigenvalues --   -0.37673  -0.37620  -0.37076  -0.36331  -0.36271
 Alpha  occ. eigenvalues --   -0.35703  -0.34775  -0.34587  -0.33469  -0.32135
 Alpha  occ. eigenvalues --   -0.32027  -0.31824  -0.31812  -0.31713  -0.25749
 Alpha  occ. eigenvalues --   -0.23043
 Alpha virt. eigenvalues --   -0.07392   0.00569   0.02664   0.04625   0.05261
 Alpha virt. eigenvalues --    0.07205   0.07992   0.08318   0.08552   0.10037
 Alpha virt. eigenvalues --    0.11407   0.11503   0.11813   0.11857   0.12395

 Mulliken charges:
               1
     1  Mg   0.964158
     2  C    0.000369
     3  C   -0.079273
     4  C   -0.040287
     5  C   -0.088931
     6  N   -0.361497
     7  C   -0.016497
     8  C   -0.070625
     9  C   -0.125058
    10  C    0.073832
    11  C    0.031643
    12  C    0.042514
    13  C   -0.018020
    14  C    0.217041
    15  O   -0.252351
    16  O   -0.379413
    17  N   -0.491962
    18  C    0.174019
    19  C   -0.186400
    20  C   -0.087859
    21  C    0.168629
    22  C    0.067267
    23  C    0.028308
    24  O   -0.246099
    25  C    0.001525
    26  N   -0.333519
    27  C    0.007864
    28  C   -0.069444
    29  C   -0.090241
    30  C    0.040868
    31  C    0.042500
    32  C   -0.011522
    33  C   -0.032585
    34  N   -0.442852
    35  C    0.147662
    36  C   -0.184145
    37  C   -0.018074
    38  C    0.159598
    39  C    0.091720
    40  C    0.085718
    41  O   -0.177727
    42  C   -0.110396
    43  C    0.272849
    44  O   -0.249962
    45  O   -0.368753
    46  C    0.148886
    47  C    0.282685
    48  C   -0.155450
    49  C   -0.223879
    50  C    0.028352
    51  C    0.047931
    52  C   -0.002569
    53  C   -0.026122
    54  C   -0.198445
    55  C    0.013031
    56  C    0.017495
    57  C   -0.042403
    58  C    0.053968
    59  C   -0.181030
    60  C    0.009709
    61  C   -0.000071
    62  C   -0.012592
    63  C    0.009225
    64  C   -0.208892
    65  C   -0.019304
    66  C    0.006540
    67  H   -0.007206
    68  H    0.024733
    69  H   -0.005762
    70  H    0.025077
    71  H    0.027773
    72  H    0.035479
    73  H    0.046555
    74  H    0.032767
    75  H    0.036564
    76  H    0.085399
    77  H    0.048157
    78  H    0.049777
    79  H    0.035898
    80  H    0.049023
    81  H    0.073347
    82  H    0.068526
    83  H    0.055913
    84  H    0.049947
    85  H    0.025766
    86  H    0.023202
    87  H    0.030879
    88  H    0.039658
    89  H    0.052239
    90  H    0.027247
    91  H    0.025460
    92  H    0.044900
    93  H    0.049575
    94  H    0.031082
    95  H    0.041180
    96  H    0.057234
    97  H    0.068689
    98  H    0.062020
    99  H    0.040139
   100  H    0.069514
   101  H    0.039485
   102  H    0.068906
   103  H    0.052264
   104  H    0.018977
   105  H    0.027500
   106  H    0.046396
   107  H    0.048967
   108  H    0.019324
   109  H    0.034083
   110  H    0.023476
   111  H    0.021295
   112  H    0.023778
   113  H    0.013107
   114  H    0.007730
   115  H    0.033217
   116  H    0.009075
   117  H    0.034731
   118  H    0.021422
   119  H    0.007033
   120  H   -0.003297
   121  H    0.011100
   122  H    0.014558
   123  H    0.007586
   124  H    0.017485
   125  H    0.027368
   126  H    0.012467
   127  H    0.028395
   128  H    0.017112
   129  H    0.005500
   130  H    0.011328
   131  H    0.017975
   132  H    0.019175
   133  H    0.026211
   134  H    0.015887
   135  H    0.039087
   136  H    0.027457
   137  H    0.018165
   138  H    0.030477
   139  H    0.013543
   140  H    0.039248
 Sum of Mulliken charges =  -0.00000

 Dipole moment (field-independent basis, Debye):
    X=             -3.1714    Y=              3.0484    Z=             -1.6938  Tot=              4.7137
 Quadrupole moment (field-independent basis, Debye-Ang):
   XX=           -361.0932   YY=           -415.1337   ZZ=           -398.5075
   XY=              2.9462   XZ=              6.4431   YZ=            -10.9939

 Normal termination of Gaussian 16 at Sat Apr 30 07:08:25 2022.
