 Gaussian 16, Revision A.03,
 Gaussian 16:  ES64L-G16RevA.03 25-Dec-2016

 --------------------
 #p ZINDO=(nstates=5)
 --------------------

 ----------------------------
 step_651_chromophore_1 ZINDO
 ----------------------------
 Symbolic Z-matrix:
 Charge =  0 Multiplicity = 1

                         Standard orientation:
 ---------------------------------------------------------------------
 Center     Atomic      Atomic             Coordinates (Angstroms)
 Number     Number       Type             X           Y           Z
 ---------------------------------------------------------------------
      1         12           0        5.962799    0.499242    0.151348
      2          6           0        3.897317   -2.148002   -0.832691
      3          6           0        3.732709    2.629735   -1.514412
      4          6           0        8.296613    2.993108    0.356344
      5          6           0        8.569838   -1.812331    0.826021
      6          7           0        4.048685    0.197950   -0.996109
      7          6           0        3.303682   -0.955968   -1.151919
      8          6           0        1.938194   -0.700973   -1.813090
      9          6           0        2.188389    0.744606   -2.390807
     10          6           0        3.407869    1.264477   -1.591892
     11          6           0        2.344671    0.754564   -3.942514
     12          6           0        0.703526   -0.790884   -0.845387
     13          6           0       -0.469582   -1.598706   -1.384320
     14          6           0       -1.404231   -2.255410   -0.332216
     15          8           0       -1.071006   -2.783047    0.722857
     16          8           0       -2.712494   -2.116123   -0.731646
     17          7           0        5.896709    2.532627   -0.253431
     18          6           0        4.911772    3.271288   -0.948037
     19          6           0        5.229557    4.669755   -0.946402
     20          6           0        6.517570    4.805783   -0.274823
     21          6           0        6.957642    3.410992   -0.017247
     22          6           0        4.297504    5.764771   -1.502564
     23          6           0        7.273560    6.096755    0.032600
     24          8           0        8.361346    6.069048    0.598359
     25          6           0        6.687132    7.475881   -0.160919
     26          7           0        8.167412    0.535706    0.372044
     27          6           0        8.822959    1.720966    0.590601
     28          6           0       10.307896    1.445771    0.927481
     29          6           0       10.247797    0.000188    1.429854
     30          6           0        8.936006   -0.493725    0.829126
     31          6           0       11.381734    1.696928   -0.201584
     32          6           0       10.291072   -0.144958    2.971612
     33          6           0        9.039724    0.163447    3.854372
     34          7           0        6.226314   -1.547061    0.129714
     35          6           0        7.308484   -2.356764    0.490104
     36          6           0        6.902990   -3.724409    0.432175
     37          6           0        5.574624   -3.717946   -0.051613
     38          6           0        5.222870   -2.305668   -0.295286
     39          6           0        7.704143   -4.934887    0.813047
     40          6           0        4.534722   -4.545252   -0.480267
     41          8           0        4.403767   -5.730074   -0.373961
     42          6           0        3.320379   -3.616903   -0.931756
     43          6           0        2.276307   -3.841517    0.048009
     44          8           0        1.990382   -3.102317    0.997123
     45          8           0        1.629784   -5.019658   -0.259761
     46          6           0        0.490527   -5.439536    0.557606
     47          6           0       -3.758874   -2.608328    0.219136
     48          6           0       -5.050636   -2.015177   -0.243000
     49          6           0       -6.303483   -2.522252   -0.304082
     50          6           0       -6.718083   -3.892326    0.234469
     51          6           0       -7.427540   -1.670865   -0.831515
     52          6           0       -8.065659   -0.653063    0.127162
     53          6           0       -9.543685   -0.327572   -0.142178
     54          6           0       -9.929916    1.166695   -0.313780
     55          6           0       -9.334478    1.800102   -1.593406
     56          6           0       -9.579720    1.963807    0.973723
     57          6           0      -10.681637    2.927645    1.525110
     58          6           0      -11.549129    2.508215    2.722048
     59          6           0      -12.969100    2.209000    2.449309
     60          6           0      -13.962821    2.689418    3.531092
     61          6           0      -13.268369    0.676314    2.228093
     62          6           0      -14.406380    0.376960    1.237277
     63          6           0      -13.971529   -0.032098   -0.207854
     64          6           0      -14.556888    0.818878   -1.359904
     65          6           0      -14.955498   -0.155989   -2.489103
     66          6           0      -13.647332    2.046593   -1.821403
     67          1           0        2.997859    3.245900   -2.035975
     68          1           0        9.114140    3.716401    0.339768
     69          1           0        9.360022   -2.469419    1.194870
     70          1           0        1.919075   -1.447759   -2.606920
     71          1           0        1.308584    1.340882   -2.146151
     72          1           0        1.634418    1.418333   -4.436436
     73          1           0        2.342391   -0.228592   -4.412832
     74          1           0        3.300839    1.255023   -4.095138
     75          1           0        0.212232    0.156088   -0.624725
     76          1           0        1.196106   -1.188773    0.042140
     77          1           0       -0.110634   -2.424854   -1.998560
     78          1           0       -1.096130   -0.990219   -2.035307
     79          1           0        3.649205    5.308698   -2.250315
     80          1           0        4.945092    6.464599   -2.030072
     81          1           0        3.682523    6.214049   -0.723395
     82          1           0        6.917426    7.753608   -1.189616
     83          1           0        7.117680    8.241818    0.485253
     84          1           0        5.666242    7.258172    0.153216
     85          1           0       10.544888    2.036982    1.811182
     86          1           0       11.060472   -0.576034    0.986773
     87          1           0       11.027898    2.461855   -0.892178
     88          1           0       11.432172    0.807012   -0.829364
     89          1           0       12.301840    2.098016    0.223481
     90          1           0       11.154634    0.462922    3.240520
     91          1           0       10.651930   -1.165360    3.103907
     92          1           0        9.228815    0.614861    4.827327
     93          1           0        8.402596   -0.720085    3.899411
     94          1           0        8.428605    0.960734    3.432223
     95          1           0        8.019151   -4.545137    1.780658
     96          1           0        8.571917   -5.030208    0.160137
     97          1           0        7.078496   -5.817610    0.944523
     98          1           0        2.803970   -3.832404   -1.867858
     99          1           0       -0.449415   -5.312178    0.019774
    100          1           0        0.450135   -4.941774    1.526873
    101          1           0        0.512610   -6.493473    0.838201
    102          1           0       -3.681328   -2.192369    1.223689
    103          1           0       -3.720524   -3.697648    0.203863
    104          1           0       -4.979548   -1.030382   -0.705805
    105          1           0       -5.910489   -4.478001    0.673986
    106          1           0       -7.072342   -4.373619   -0.677095
    107          1           0       -7.499936   -3.828216    0.990976
    108          1           0       -8.199527   -2.330331   -1.227332
    109          1           0       -6.857633   -1.085163   -1.553473
    110          1           0       -7.542221    0.302673    0.106661
    111          1           0       -8.064397   -1.012636    1.155993
    112          1           0      -10.191350   -0.677680    0.661601
    113          1           0       -9.797965   -0.899777   -1.034472
    114          1           0      -11.004381    1.267143   -0.468768
    115          1           0      -10.083497    2.126641   -2.314039
    116          1           0       -8.956446    0.935787   -2.139970
    117          1           0       -8.555199    2.529523   -1.369854
    118          1           0       -8.652979    2.513955    0.812974
    119          1           0       -9.453512    1.204954    1.746325
    120          1           0      -11.317216    3.181471    0.676805
    121          1           0      -10.275946    3.926615    1.688150
    122          1           0      -11.407331    3.343668    3.408631
    123          1           0      -10.995677    1.646237    3.092928
    124          1           0      -13.267567    2.764882    1.560969
    125          1           0      -13.596558    3.498260    4.162819
    126          1           0      -14.196779    1.862888    4.202510
    127          1           0      -14.907695    2.938265    3.047640
    128          1           0      -13.495787    0.259101    3.209331
    129          1           0      -12.331318    0.219484    1.909627
    130          1           0      -15.095391    1.211574    1.111619
    131          1           0      -14.981562   -0.408355    1.728409
    132          1           0      -14.459096   -1.000181   -0.327313
    133          1           0      -12.882431   -0.064769   -0.240177
    134          1           0      -15.554961    1.133415   -1.055927
    135          1           0      -15.983755   -0.498375   -2.379446
    136          1           0      -14.222745   -0.959822   -2.426185
    137          1           0      -14.842491    0.292191   -3.476674
    138          1           0      -14.018401    2.984077   -1.407917
    139          1           0      -13.884802    2.266132   -2.862321
    140          1           0      -12.569916    1.941414   -1.692006
 ---------------------------------------------------------------------

 SCF Done:  E(RZINDO/S) =  -474.106564087     A.U. after   20 cycles

 Excitation energies and oscillator strengths:

 Excited State   1:      Singlet-A      1.2000 eV 1033.19 nm  f=0.6354  <S**2>=0.000
     175 ->178        -0.19083
     176 ->177         0.66288
 This state for optimization and/or second-order correction.
 Total Energy, E(CIS/TDA) =  -474.062464280
 Copying the excited state density for this state as the 1-particle RhoCI density.

 Excited State   2:      Singlet-A      1.8973 eV  653.47 nm  f=0.1030  <S**2>=0.000
     175 ->177         0.58034
     176 ->178         0.37594

 Excited State   3:      Singlet-A      2.8806 eV  430.41 nm  f=0.0018  <S**2>=0.000
     168 ->177         0.23832
     168 ->178         0.12160
     168 ->179         0.27775
     168 ->180         0.11644
     168 ->181         0.29146
     168 ->184         0.11174
     168 ->186         0.21368
     169 ->177        -0.18813
     169 ->179        -0.12447
     169 ->181        -0.19636
     169 ->186        -0.11565

 Excited State   4:      Singlet-A      2.9062 eV  426.62 nm  f=0.0265  <S**2>=0.000
     168 ->177         0.20828
     168 ->179        -0.17509
     168 ->181         0.12384
     169 ->177         0.28411
     169 ->179        -0.34565
     169 ->180         0.10508
     169 ->181         0.13192
     169 ->186        -0.11242
     169 ->187        -0.11164
     170 ->177         0.13159
     170 ->179        -0.12909
     176 ->178        -0.12197

 Excited State   5:      Singlet-A      3.0105 eV  411.84 nm  f=0.8360  <S**2>=0.000
     171 ->177        -0.17090
     175 ->177        -0.31916
     176 ->178         0.53993
     176 ->179        -0.10382

 The electronic state is 1-A.
 Alpha  occ. eigenvalues --   -1.83485  -1.80032  -1.76825  -1.71614  -1.70659
 Alpha  occ. eigenvalues --   -1.68950  -1.66523  -1.60555  -1.58474  -1.58014
 Alpha  occ. eigenvalues --   -1.54732  -1.51882  -1.49346  -1.47624  -1.44424
 Alpha  occ. eigenvalues --   -1.43129  -1.40674  -1.39004  -1.38741  -1.37030
 Alpha  occ. eigenvalues --   -1.35076  -1.34152  -1.31771  -1.30548  -1.28402
 Alpha  occ. eigenvalues --   -1.27607  -1.23824  -1.21787  -1.20800  -1.18037
 Alpha  occ. eigenvalues --   -1.17354  -1.16792  -1.16215  -1.14779  -1.13416
 Alpha  occ. eigenvalues --   -1.12914  -1.10112  -1.09934  -1.05111  -1.03505
 Alpha  occ. eigenvalues --   -1.03060  -1.01301  -0.98949  -0.97947  -0.97483
 Alpha  occ. eigenvalues --   -0.97225  -0.94643  -0.93755  -0.92290  -0.91765
 Alpha  occ. eigenvalues --   -0.90628  -0.89603  -0.88556  -0.87444  -0.84956
 Alpha  occ. eigenvalues --   -0.83804  -0.83236  -0.82733  -0.81108  -0.80106
 Alpha  occ. eigenvalues --   -0.79040  -0.77706  -0.77300  -0.76644  -0.76085
 Alpha  occ. eigenvalues --   -0.74786  -0.74500  -0.73745  -0.73675  -0.73230
 Alpha  occ. eigenvalues --   -0.73004  -0.72473  -0.71873  -0.71341  -0.70207
 Alpha  occ. eigenvalues --   -0.70016  -0.69661  -0.68526  -0.68128  -0.68032
 Alpha  occ. eigenvalues --   -0.67527  -0.67252  -0.67021  -0.66259  -0.65424
 Alpha  occ. eigenvalues --   -0.65035  -0.64882  -0.63808  -0.63695  -0.63482
 Alpha  occ. eigenvalues --   -0.63003  -0.62532  -0.62246  -0.61925  -0.61681
 Alpha  occ. eigenvalues --   -0.61184  -0.61010  -0.60446  -0.60181  -0.60023
 Alpha  occ. eigenvalues --   -0.59357  -0.59077  -0.58908  -0.58591  -0.57750
 Alpha  occ. eigenvalues --   -0.57615  -0.57580  -0.56917  -0.56262  -0.55839
 Alpha  occ. eigenvalues --   -0.55719  -0.55471  -0.55280  -0.54698  -0.54188
 Alpha  occ. eigenvalues --   -0.53361  -0.53279  -0.53073  -0.52701  -0.52644
 Alpha  occ. eigenvalues --   -0.52523  -0.52414  -0.51821  -0.51270  -0.51072
 Alpha  occ. eigenvalues --   -0.50805  -0.50128  -0.50083  -0.49925  -0.49633
 Alpha  occ. eigenvalues --   -0.49495  -0.49330  -0.48950  -0.48696  -0.48576
 Alpha  occ. eigenvalues --   -0.48429  -0.48092  -0.47995  -0.47500  -0.47236
 Alpha  occ. eigenvalues --   -0.47126  -0.46931  -0.46609  -0.46315  -0.46132
 Alpha  occ. eigenvalues --   -0.45766  -0.45735  -0.45656  -0.45343  -0.45021
 Alpha  occ. eigenvalues --   -0.44843  -0.44670  -0.44384  -0.44365  -0.43869
 Alpha  occ. eigenvalues --   -0.43580  -0.43401  -0.43118  -0.42902  -0.41986
 Alpha  occ. eigenvalues --   -0.41890  -0.41598  -0.40031  -0.38512  -0.38257
 Alpha  occ. eigenvalues --   -0.37538  -0.37085  -0.34588  -0.34460  -0.34085
 Alpha  occ. eigenvalues --   -0.32652  -0.32541  -0.32101  -0.31694  -0.26396
 Alpha  occ. eigenvalues --   -0.21700
 Alpha virt. eigenvalues --   -0.08830  -0.01548  -0.00335   0.01385   0.01516
 Alpha virt. eigenvalues --    0.02570   0.03086   0.03716   0.05077   0.05433
 Alpha virt. eigenvalues --    0.06824   0.07494   0.07644   0.07994   0.08559

 Mulliken charges:
               1
     1  Mg   0.435935
     2  C   -0.047821
     3  C   -0.085223
     4  C   -0.059458
     5  C   -0.060074
     6  N   -0.302480
     7  C    0.141299
     8  C   -0.001714
     9  C    0.001757
    10  C    0.130978
    11  C   -0.054135
    12  C   -0.022604
    13  C    0.011622
    14  C    0.459276
    15  O   -0.504754
    16  O   -0.279283
    17  N   -0.329703
    18  C    0.103503
    19  C   -0.007730
    20  C   -0.051838
    21  C    0.142304
    22  C   -0.042761
    23  C    0.321561
    24  O   -0.533906
    25  C   -0.030495
    26  N   -0.276876
    27  C    0.128249
    28  C    0.001225
    29  C    0.006616
    30  C    0.132741
    31  C   -0.050981
    32  C   -0.023028
    33  C   -0.052143
    34  N   -0.306792
    35  C    0.091648
    36  C    0.049956
    37  C   -0.070855
    38  C    0.128153
    39  C   -0.042646
    40  C    0.343600
    41  O   -0.518104
    42  C    0.043077
    43  C    0.494620
    44  O   -0.530150
    45  O   -0.267104
    46  C    0.074353
    47  C    0.111870
    48  C   -0.091046
    49  C   -0.018589
    50  C   -0.047075
    51  C   -0.022254
    52  C   -0.026467
    53  C   -0.033077
    54  C   -0.014627
    55  C   -0.066164
    56  C   -0.035556
    57  C   -0.046329
    58  C   -0.022137
    59  C   -0.004443
    60  C   -0.061089
    61  C   -0.034823
    62  C   -0.040840
    63  C   -0.037236
    64  C   -0.016100
    65  C   -0.059555
    66  C   -0.063360
    67  H    0.023582
    68  H    0.044922
    69  H    0.023403
    70  H    0.027704
    71  H    0.022546
    72  H    0.019796
    73  H    0.028646
    74  H    0.019510
    75  H    0.027300
    76  H    0.058261
    77  H    0.037864
    78  H    0.031386
    79  H    0.022436
    80  H    0.026645
    81  H    0.039788
    82  H    0.047453
    83  H    0.040257
    84  H    0.037157
    85  H    0.025182
    86  H    0.023230
    87  H    0.018187
    88  H    0.027697
    89  H    0.031749
    90  H    0.014577
    91  H    0.013197
    92  H    0.026795
    93  H    0.027010
    94  H    0.020063
    95  H    0.029240
    96  H    0.038954
    97  H    0.046356
    98  H    0.058845
    99  H    0.036627
   100  H    0.054454
   101  H    0.029603
   102  H    0.060035
   103  H    0.053212
   104  H    0.025806
   105  H    0.020784
   106  H    0.027959
   107  H    0.029380
   108  H    0.028500
   109  H    0.027038
   110  H    0.023352
   111  H    0.018032
   112  H    0.012667
   113  H    0.011276
   114  H    0.019306
   115  H    0.020542
   116  H    0.011044
   117  H    0.029628
   118  H    0.023082
   119  H    0.016185
   120  H    0.008044
   121  H    0.011319
   122  H    0.016468
   123  H    0.019738
   124  H    0.018769
   125  H    0.019144
   126  H    0.014265
   127  H    0.016926
   128  H    0.018898
   129  H    0.014916
   130  H    0.019976
   131  H    0.013576
   132  H    0.017988
   133  H    0.030359
   134  H    0.020699
   135  H    0.023709
   136  H    0.017195
   137  H    0.012603
   138  H    0.017670
   139  H    0.012841
   140  H    0.035728
 Sum of Mulliken charges =  -0.00000

 Dipole moment (field-independent basis, Debye):
    X=             -3.1847    Y=              3.3352    Z=             -4.8020  Tot=              6.6577
 N-N= 4.258149031400D+03 E-N= 0.000000000000D+00  KE=-9.191547224298D+03
 Leave Link  601 at Sat Apr 30 07:21:09 2022, MaxMem=  6710886400 cpu:               0.8 elap:               0.0
 (Enter /sw/apps/gaussian-16.0/g16/l9999.exe)
 1\1\GINC-BP1-COMPUTE156\SP\RZINDO CIS\STO-3G\C55H74Mg1N4O6\OF15641\30-
 Apr-2022\0\\#p ZINDO=(nstates=5)\\step_651_chromophore_1 ZINDO\\0,1\Mg
 ,0,-1.373,17.972,26.779\C,0,-2.234,15.75,29.341\C,0,-2.589,20.539,28.8
 33\C,0,-1.328,20.067,24.074\C,0,-1.199,15.252,24.506\N,0,-2.27,18.053,
 28.843\C,0,-2.396,17.039,29.774\C,0,-2.851,17.547,31.153\C,0,-3.366,18
 .982,30.751\C,0,-2.707,19.248,29.376\C,0,-4.921,19.096,30.787\C,0,-1.7
 34,17.562,32.258\C,0,-2.16,16.984,33.601\C,0,-1.035,16.389,34.491\O,0,

 Normal termination of Gaussian 16 at Sat Apr 30 07:21:09 2022.
