 Gaussian 16, Revision A.03,
 Gaussian 16:  ES64L-G16RevA.03 25-Dec-2016

 ------------------------------
 #p blyp/Def2SVP td=(nstates=5)
 ------------------------------

 --------------------------------------------------
 step_801_chromophore_24 TDDFT with blyp functional
 --------------------------------------------------
 Symbolic Z-matrix:
 Charge =  0 Multiplicity = 1

                         Standard orientation:
 ---------------------------------------------------------------------
 Center     Atomic      Atomic             Coordinates (Angstroms)
 Number     Number       Type             X           Y           Z
 ---------------------------------------------------------------------
      1         12           0        4.834402    1.085493    0.053951
      2          6           0        4.088603   -2.340954   -0.205942
      3          6           0        1.396199    1.750516   -0.245429
      4          6           0        5.589492    4.294113    0.100296
      5          6           0        8.149080    0.288708    0.027936
      6          7           0        3.028628   -0.145807   -0.317647
      7          6           0        2.954267   -1.522387   -0.317776
      8          6           0        1.536483   -1.956089   -0.150050
      9          6           0        0.685896   -0.679853   -0.451976
     10          6           0        1.757557    0.401052   -0.407753
     11          6           0       -0.068209   -0.703923   -1.772310
     12          6           0        1.306523   -2.442637    1.358752
     13          6           0        0.529658   -3.823594    1.445488
     14          6           0       -0.476606   -4.099664    0.305236
     15          8           0       -0.268730   -4.806074   -0.671793
     16          8           0       -1.629968   -3.295114    0.430751
     17          7           0        3.622656    2.790413   -0.007828
     18          6           0        2.239147    2.872328   -0.134949
     19          6           0        1.892535    4.305040   -0.073592
     20          6           0        3.067816    5.041584    0.069732
     21          6           0        4.182707    4.043431    0.065124
     22          6           0        0.447358    4.731539   -0.171027
     23          6           0        3.330624    6.585913    0.149851
     24          8           0        4.460865    7.117099    0.263525
     25          6           0        2.130830    7.462007    0.182724
     26          7           0        6.671948    2.137346    0.025283
     27          6           0        6.756427    3.429028   -0.018269
     28          6           0        8.167562    4.030889   -0.082301
     29          6           0        8.979629    2.670077    0.066549
     30          6           0        7.896633    1.607013    0.039421
     31          6           0        8.331199    4.776552   -1.515905
     32          6           0        9.857942    2.628467    1.336558
     33          6           0        9.273027    1.850107    2.591976
     34          7           0        5.888557   -0.594275   -0.133825
     35          6           0        7.237154   -0.737766   -0.137576
     36          6           0        7.555961   -2.190888   -0.152197
     37          6           0        6.365778   -2.861240   -0.115219
     38          6           0        5.399815   -1.835440   -0.147410
     39          6           0        8.955909   -2.813707   -0.131350
     40          6           0        5.736443   -4.134094   -0.088813
     41          8           0        6.258030   -5.254110   -0.169718
     42          6           0        4.239923   -3.808626   -0.032314
     43          6           0        3.576908   -4.608709   -1.094561
     44          8           0        3.474180   -4.214709   -2.244251
     45          8           0        3.365034   -5.895125   -0.688033
     46          6           0        2.620742   -6.833660   -1.549297
     47          6           0       -2.487604   -3.397244   -0.736958
     48          6           0       -3.816347   -2.672277   -0.400982
     49          6           0       -5.082498   -2.979392   -0.793228
     50          6           0       -5.448252   -4.199900   -1.552624
     51          6           0       -6.309083   -2.313749   -0.186443
     52          6           0       -6.882108   -3.019612    1.048290
     53          6           0       -6.865327   -2.151489    2.228631
     54          6           0       -8.303939   -1.698777    2.675855
     55          6           0       -8.835977   -2.660873    3.758606
     56          6           0       -8.171086   -0.267934    3.178242
     57          6           0       -9.159137    0.652364    2.537782
     58          6           0       -8.463726    1.417823    1.304574
     59          6           0       -9.278160    1.380970    0.074163
     60          6           0       -8.391389    1.319395   -1.152097
     61          6           0      -10.351819    2.584663    0.012112
     62          6           0      -11.814486    2.088968   -0.317615
     63          6           0      -12.480905    2.955817   -1.387952
     64          6           0      -13.989289    2.649715   -1.555034
     65          6           0      -14.246035    2.074510   -3.028500
     66          6           0      -14.822028    3.877979   -1.190136
     67          1           0        0.314464    1.885740   -0.293536
     68          1           0        5.877900    5.339895   -0.025178
     69          1           0        9.185253   -0.056138    0.012297
     70          1           0        1.232281   -2.726087   -0.859347
     71          1           0       -0.112309   -0.540151    0.276242
     72          1           0        0.168268    0.257551   -2.227217
     73          1           0       -1.136101   -0.903951   -1.693423
     74          1           0        0.348437   -1.408672   -2.492951
     75          1           0        0.766267   -1.682134    1.922687
     76          1           0        2.241195   -2.544724    1.911566
     77          1           0       -0.075410   -3.868537    2.351563
     78          1           0        1.259572   -4.633047    1.446941
     79          1           0        0.485956    5.504855   -0.937624
     80          1           0        0.191153    5.157425    0.800025
     81          1           0       -0.297346    3.965505   -0.389470
     82          1           0        2.316404    8.475258    0.540015
     83          1           0        1.379025    7.036676    0.847494
     84          1           0        1.732514    7.507590   -0.830650
     85          1           0        8.349350    4.726709    0.737366
     86          1           0        9.655084    2.501929   -0.771874
     87          1           0        7.637034    4.396725   -2.265519
     88          1           0        9.320072    4.565910   -1.922158
     89          1           0        8.316917    5.860259   -1.393332
     90          1           0       10.194968    3.601790    1.695200
     91          1           0       10.765058    2.080583    1.081334
     92          1           0        9.786719    2.054379    3.531545
     93          1           0        9.462279    0.839434    2.229177
     94          1           0        8.205611    1.994434    2.759778
     95          1           0        9.457938   -2.321613   -0.964090
     96          1           0        9.022249   -3.878224   -0.355490
     97          1           0        9.461067   -2.490560    0.779290
     98          1           0        3.886331   -4.122863    0.950036
     99          1           0        3.220312   -7.121985   -2.413178
    100          1           0        1.664252   -6.394317   -1.831214
    101          1           0        2.447676   -7.743553   -0.974144
    102          1           0       -2.728845   -4.455777   -0.830902
    103          1           0       -2.036204   -2.848679   -1.563987
    104          1           0       -3.734961   -1.824723    0.281561
    105          1           0       -6.405558   -4.298458   -2.064840
    106          1           0       -5.493934   -4.901708   -0.720863
    107          1           0       -4.623330   -4.471243   -2.211559
    108          1           0       -7.033247   -2.394828   -0.996943
    109          1           0       -6.063030   -1.271430    0.014715
    110          1           0       -6.184436   -3.841806    1.205454
    111          1           0       -7.843345   -3.505216    0.878139
    112          1           0       -6.155879   -1.352894    2.010357
    113          1           0       -6.383559   -2.794720    2.964155
    114          1           0       -9.013470   -1.900882    1.873137
    115          1           0       -8.220984   -3.505282    4.069626
    116          1           0       -9.705688   -3.266575    3.501941
    117          1           0       -9.200572   -2.161174    4.655044
    118          1           0       -7.166819    0.137886    3.054918
    119          1           0       -8.272391   -0.284254    4.263773
    120          1           0       -9.515737    1.452676    3.186340
    121          1           0      -10.056059    0.161890    2.159784
    122          1           0       -7.481684    0.976798    1.130599
    123          1           0       -8.183047    2.461031    1.454058
    124          1           0       -9.885778    0.476195    0.063863
    125          1           0       -7.328555    1.474128   -0.965713
    126          1           0       -8.686270    2.098903   -1.854674
    127          1           0       -8.507217    0.429194   -1.769916
    128          1           0      -10.114962    3.259768   -0.810030
    129          1           0      -10.420775    3.034137    1.002803
    130          1           0      -12.349015    2.121215    0.631077
    131          1           0      -11.675165    1.114990   -0.786742
    132          1           0      -11.939278    2.847968   -2.326860
    133          1           0      -12.261913    3.999606   -1.163159
    134          1           0      -14.364836    1.841197   -0.928097
    135          1           0      -13.958167    1.026611   -2.942974
    136          1           0      -13.841126    2.641336   -3.866397
    137          1           0      -15.308112    2.018204   -3.266386
    138          1           0      -15.278286    3.685138   -0.219572
    139          1           0      -15.712923    4.015746   -1.803278
    140          1           0      -14.316819    4.836994   -1.075622
 ---------------------------------------------------------------------

 SCF Done:  E(RB-LYP) =  -3007.37079812     A.U. after   21 cycles

 Excitation energies and oscillator strengths:

 Excited State   1:      Singlet-A      1.8267 eV  678.74 nm  f=0.3137  <S**2>=0.000
     245 -> 248        0.18288
     246 -> 247        0.68771
     246 <- 247       -0.14258
 This state for optimization and/or second-order correction.
 Total Energy, E(TD-HF/TD-DFT) =  -3007.30366850
 Copying the excited state density for this state as the 1-particle RhoCI density.

 Excited State   2:      Singlet-A      2.0485 eV  605.25 nm  f=0.0474  <S**2>=0.000
     243 -> 247        0.11788
     244 -> 247        0.16129
     245 -> 247        0.62054
     246 -> 248       -0.23799
     246 -> 249        0.10504

 Excited State   3:      Singlet-A      2.1608 eV  573.78 nm  f=0.0009  <S**2>=0.000
     243 -> 247       -0.31584
     244 -> 247        0.62451

 Excited State   4:      Singlet-A      2.1786 eV  569.10 nm  f=0.0033  <S**2>=0.000
     243 -> 247        0.62024
     244 -> 247        0.28571
     245 -> 247       -0.14379

 Excited State   5:      Singlet-A      2.5213 eV  491.75 nm  f=0.0001  <S**2>=0.000
     242 -> 247        0.70705

 The electronic state is 1-A.
 Alpha  occ. eigenvalues --  -46.26292 -18.82638 -18.80678 -18.78356 -18.75877
 Alpha  occ. eigenvalues --  -18.75532 -18.75429 -14.02963 -14.02903 -14.00917
 Alpha  occ. eigenvalues --  -14.00842 -10.05106 -10.02788 -10.00461  -9.99332
 Alpha  occ. eigenvalues --   -9.98362  -9.96602  -9.96239  -9.96104  -9.96085
 Alpha  occ. eigenvalues --   -9.95919  -9.95606  -9.95338  -9.95082  -9.94542
 Alpha  occ. eigenvalues --   -9.94401  -9.94376  -9.94068  -9.93945  -9.93750
 Alpha  occ. eigenvalues --   -9.93590  -9.93483  -9.93308  -9.93259  -9.93252
 Alpha  occ. eigenvalues --   -9.93133  -9.93050  -9.92818  -9.92806  -9.92734
 Alpha  occ. eigenvalues --   -9.92597  -9.92506  -9.92441  -9.92261  -9.92097
 Alpha  occ. eigenvalues --   -9.92078  -9.91900  -9.91837  -9.91782  -9.91743
 Alpha  occ. eigenvalues --   -9.91713  -9.91698  -9.91354  -9.91350  -9.91273
 Alpha  occ. eigenvalues --   -9.91142  -9.91114  -9.91033  -9.90991  -9.90963
 Alpha  occ. eigenvalues --   -9.90949  -9.90807  -9.90750  -9.90554  -9.90529
 Alpha  occ. eigenvalues --   -9.90139  -2.91108  -1.71539  -1.70978  -1.70829
 Alpha  occ. eigenvalues --   -0.98039  -0.96266  -0.90734  -0.90399  -0.90072
 Alpha  occ. eigenvalues --   -0.88620  -0.88452  -0.86890  -0.85039  -0.84048
 Alpha  occ. eigenvalues --   -0.76316  -0.74664  -0.73318  -0.72460  -0.72354
 Alpha  occ. eigenvalues --   -0.72136  -0.71370  -0.71072  -0.71026  -0.70556
 Alpha  occ. eigenvalues --   -0.69703  -0.69240  -0.68500  -0.67212  -0.66745
 Alpha  occ. eigenvalues --   -0.66341  -0.65695  -0.65489  -0.64863  -0.64444
 Alpha  occ. eigenvalues --   -0.64225  -0.62446  -0.62214  -0.61520  -0.60727
 Alpha  occ. eigenvalues --   -0.60625  -0.60235  -0.59826  -0.59783  -0.58722
 Alpha  occ. eigenvalues --   -0.58231  -0.57408  -0.56658  -0.55819  -0.55299
 Alpha  occ. eigenvalues --   -0.54474  -0.54245  -0.52261  -0.51682  -0.51517
 Alpha  occ. eigenvalues --   -0.51066  -0.50955  -0.50769  -0.50476  -0.50135
 Alpha  occ. eigenvalues --   -0.49879  -0.49452  -0.49015  -0.47545  -0.46656
 Alpha  occ. eigenvalues --   -0.46184  -0.45955  -0.45552  -0.45214  -0.44368
 Alpha  occ. eigenvalues --   -0.44160  -0.43805  -0.42903  -0.42575  -0.42543
 Alpha  occ. eigenvalues --   -0.42278  -0.42031  -0.41847  -0.41608  -0.41395
 Alpha  occ. eigenvalues --   -0.41248  -0.40919  -0.40621  -0.40530  -0.39925
 Alpha  occ. eigenvalues --   -0.39845  -0.39515  -0.39342  -0.39268  -0.39069
 Alpha  occ. eigenvalues --   -0.38893  -0.38504  -0.38429  -0.38394  -0.38167
 Alpha  occ. eigenvalues --   -0.38052  -0.37764  -0.37713  -0.37378  -0.37172
 Alpha  occ. eigenvalues --   -0.37027  -0.36728  -0.36644  -0.36513  -0.36445
 Alpha  occ. eigenvalues --   -0.36191  -0.36035  -0.35993  -0.35742  -0.35580
 Alpha  occ. eigenvalues --   -0.35384  -0.35274  -0.34926  -0.34875  -0.34807
 Alpha  occ. eigenvalues --   -0.34629  -0.34461  -0.34314  -0.34044  -0.33879
 Alpha  occ. eigenvalues --   -0.33782  -0.33696  -0.33552  -0.33423  -0.33093
 Alpha  occ. eigenvalues --   -0.33054  -0.33039  -0.32679  -0.32552  -0.32338
 Alpha  occ. eigenvalues --   -0.32220  -0.32107  -0.31833  -0.31654  -0.31328
 Alpha  occ. eigenvalues --   -0.31080  -0.30990  -0.30700  -0.30592  -0.30576
 Alpha  occ. eigenvalues --   -0.30461  -0.30347  -0.29985  -0.29863  -0.29687
 Alpha  occ. eigenvalues --   -0.29496  -0.29470  -0.29227  -0.29176  -0.28561
 Alpha  occ. eigenvalues --   -0.28302  -0.28143  -0.28124  -0.28084  -0.27748
 Alpha  occ. eigenvalues --   -0.27688  -0.27498  -0.27182  -0.26242  -0.26198
 Alpha  occ. eigenvalues --   -0.26164  -0.26120  -0.25982  -0.25729  -0.25611
 Alpha  occ. eigenvalues --   -0.25196  -0.24143  -0.24072  -0.23844  -0.23753
 Alpha  occ. eigenvalues --   -0.23484  -0.22880  -0.21808  -0.21261  -0.20682
 Alpha  occ. eigenvalues --   -0.20595  -0.20171  -0.18791  -0.18716  -0.16964
 Alpha  occ. eigenvalues --   -0.15314
 Alpha virt. eigenvalues --   -0.10906  -0.06662  -0.06194  -0.04874  -0.04352
 Alpha virt. eigenvalues --   -0.02411  -0.02174  -0.01493  -0.00860   0.00156
 Alpha virt. eigenvalues --    0.01492   0.01769   0.02104   0.02376   0.02596

 Mulliken charges:
               1
     1  Mg   0.712410
     2  C    0.033474
     3  C   -0.080149
     4  C   -0.018483
     5  C   -0.113820
     6  N   -0.216069
     7  C   -0.060727
     8  C   -0.009169
     9  C   -0.037830
    10  C    0.045716
    11  C    0.119561
    12  C    0.115799
    13  C    0.143148
    14  C    0.085690
    15  O   -0.189174
    16  O   -0.303835
    17  N   -0.303300
    18  C    0.154888
    19  C   -0.149308
    20  C    0.010784
    21  C    0.089516
    22  C    0.169787
    23  C   -0.035055
    24  O   -0.182935
    25  C    0.130825
    26  N   -0.163772
    27  C   -0.039724
    28  C    0.007169
    29  C    0.103576
    30  C    0.018989
    31  C    0.106944
    32  C    0.033850
    33  C    0.072554
    34  N   -0.247758
    35  C    0.127234
    36  C   -0.233788
    37  C    0.148733
    38  C    0.043925
    39  C    0.185205
    40  C   -0.082296
    41  O   -0.134404
    42  C    0.095816
    43  C    0.100411
    44  O   -0.186081
    45  O   -0.272307
    46  C    0.221865
    47  C    0.324534
    48  C   -0.127489
    49  C   -0.171839
    50  C    0.121516
    51  C    0.132741
    52  C    0.084357
    53  C    0.113581
    54  C   -0.038604
    55  C    0.085838
    56  C    0.153079
    57  C    0.090683
    58  C    0.082632
    59  C   -0.080682
    60  C    0.114725
    61  C    0.104454
    62  C    0.046805
    63  C    0.086365
    64  C   -0.043124
    65  C    0.071907
    66  C    0.104827
    67  H   -0.067424
    68  H   -0.042812
    69  H   -0.069151
    70  H    0.008496
    71  H   -0.024568
    72  H   -0.023226
    73  H    0.007997
    74  H   -0.004616
    75  H   -0.016710
    76  H   -0.009176
    77  H   -0.005838
    78  H    0.004768
    79  H    0.005464
    80  H    0.011554
    81  H   -0.007247
    82  H   -0.005857
    83  H   -0.001986
    84  H    0.015723
    85  H   -0.006880
    86  H   -0.031495
    87  H    0.007512
    88  H   -0.018498
    89  H    0.011870
    90  H   -0.017644
    91  H   -0.025823
    92  H   -0.005378
    93  H   -0.011629
    94  H    0.004055
    95  H   -0.010842
    96  H    0.011016
    97  H    0.002563
    98  H   -0.005114
    99  H    0.013861
   100  H    0.027823
   101  H    0.007344
   102  H    0.002417
   103  H    0.016995
   104  H   -0.039671
   105  H   -0.007075
   106  H    0.003538
   107  H    0.003662
   108  H   -0.038529
   109  H   -0.016307
   110  H   -0.042582
   111  H   -0.034504
   112  H   -0.037818
   113  H   -0.038240
   114  H   -0.021519
   115  H   -0.023676
   116  H   -0.035762
   117  H   -0.020636
   118  H   -0.032700
   119  H   -0.049322
   120  H   -0.039086
   121  H   -0.023813
   122  H   -0.044696
   123  H   -0.036346
   124  H   -0.039030
   125  H   -0.017139
   126  H   -0.040771
   127  H   -0.019143
   128  H   -0.029139
   129  H   -0.030743
   130  H   -0.020592
   131  H   -0.024654
   132  H   -0.038338
   133  H   -0.035313
   134  H   -0.032116
   135  H   -0.013855
   136  H   -0.003395
   137  H   -0.030965
   138  H   -0.029764
   139  H   -0.029739
   140  H   -0.011956
 Sum of Mulliken charges =  -0.00000

 Dipole moment (field-independent basis, Debye):
    X=             -4.3862    Y=              1.8272    Z=              2.4976  Tot=              5.3680
 Quadrupole moment (field-independent basis, Debye-Ang):
   XX=           -376.9913   YY=           -430.7927   ZZ=           -407.4779
   XY=             25.8265   XZ=              5.9933   YZ=             -8.9328

 Normal termination of Gaussian 16 at Thu May  5 12:15:15 2022.
