 Gaussian 16, Revision A.03,
 Gaussian 16:  ES64L-G16RevA.03 25-Dec-2016

 -----------------------------------
 #p cam-b3lyp/Def2SVP td=(nstates=5)
 -----------------------------------

 -------------------------------------------------------
 step_801_chromophore_24 TDDFT with cam-b3lyp functional
 -------------------------------------------------------
 Symbolic Z-matrix:
 Charge =  0 Multiplicity = 1

                         Standard orientation:
 ---------------------------------------------------------------------
 Center     Atomic      Atomic             Coordinates (Angstroms)
 Number     Number       Type             X           Y           Z
 ---------------------------------------------------------------------
      1         12           0        4.834402    1.085493    0.053951
      2          6           0        4.088603   -2.340954   -0.205942
      3          6           0        1.396199    1.750516   -0.245429
      4          6           0        5.589492    4.294113    0.100296
      5          6           0        8.149080    0.288708    0.027936
      6          7           0        3.028628   -0.145807   -0.317647
      7          6           0        2.954267   -1.522387   -0.317776
      8          6           0        1.536483   -1.956089   -0.150050
      9          6           0        0.685896   -0.679853   -0.451976
     10          6           0        1.757557    0.401052   -0.407753
     11          6           0       -0.068209   -0.703923   -1.772310
     12          6           0        1.306523   -2.442637    1.358752
     13          6           0        0.529658   -3.823594    1.445488
     14          6           0       -0.476606   -4.099664    0.305236
     15          8           0       -0.268730   -4.806074   -0.671793
     16          8           0       -1.629968   -3.295114    0.430751
     17          7           0        3.622656    2.790413   -0.007828
     18          6           0        2.239147    2.872328   -0.134949
     19          6           0        1.892535    4.305040   -0.073592
     20          6           0        3.067816    5.041584    0.069732
     21          6           0        4.182707    4.043431    0.065124
     22          6           0        0.447358    4.731539   -0.171027
     23          6           0        3.330624    6.585913    0.149851
     24          8           0        4.460865    7.117099    0.263525
     25          6           0        2.130830    7.462007    0.182724
     26          7           0        6.671948    2.137346    0.025283
     27          6           0        6.756427    3.429028   -0.018269
     28          6           0        8.167562    4.030889   -0.082301
     29          6           0        8.979629    2.670077    0.066549
     30          6           0        7.896633    1.607013    0.039421
     31          6           0        8.331199    4.776552   -1.515905
     32          6           0        9.857942    2.628467    1.336558
     33          6           0        9.273027    1.850107    2.591976
     34          7           0        5.888557   -0.594275   -0.133825
     35          6           0        7.237154   -0.737766   -0.137576
     36          6           0        7.555961   -2.190888   -0.152197
     37          6           0        6.365778   -2.861240   -0.115219
     38          6           0        5.399815   -1.835440   -0.147410
     39          6           0        8.955909   -2.813707   -0.131350
     40          6           0        5.736443   -4.134094   -0.088813
     41          8           0        6.258030   -5.254110   -0.169718
     42          6           0        4.239923   -3.808626   -0.032314
     43          6           0        3.576908   -4.608709   -1.094561
     44          8           0        3.474180   -4.214709   -2.244251
     45          8           0        3.365034   -5.895125   -0.688033
     46          6           0        2.620742   -6.833660   -1.549297
     47          6           0       -2.487604   -3.397244   -0.736958
     48          6           0       -3.816347   -2.672277   -0.400982
     49          6           0       -5.082498   -2.979392   -0.793228
     50          6           0       -5.448252   -4.199900   -1.552624
     51          6           0       -6.309083   -2.313749   -0.186443
     52          6           0       -6.882108   -3.019612    1.048290
     53          6           0       -6.865327   -2.151489    2.228631
     54          6           0       -8.303939   -1.698777    2.675855
     55          6           0       -8.835977   -2.660873    3.758606
     56          6           0       -8.171086   -0.267934    3.178242
     57          6           0       -9.159137    0.652364    2.537782
     58          6           0       -8.463726    1.417823    1.304574
     59          6           0       -9.278160    1.380970    0.074163
     60          6           0       -8.391389    1.319395   -1.152097
     61          6           0      -10.351819    2.584663    0.012112
     62          6           0      -11.814486    2.088968   -0.317615
     63          6           0      -12.480905    2.955817   -1.387952
     64          6           0      -13.989289    2.649715   -1.555034
     65          6           0      -14.246035    2.074510   -3.028500
     66          6           0      -14.822028    3.877979   -1.190136
     67          1           0        0.314464    1.885740   -0.293536
     68          1           0        5.877900    5.339895   -0.025178
     69          1           0        9.185253   -0.056138    0.012297
     70          1           0        1.232281   -2.726087   -0.859347
     71          1           0       -0.112309   -0.540151    0.276242
     72          1           0        0.168268    0.257551   -2.227217
     73          1           0       -1.136101   -0.903951   -1.693423
     74          1           0        0.348437   -1.408672   -2.492951
     75          1           0        0.766267   -1.682134    1.922687
     76          1           0        2.241195   -2.544724    1.911566
     77          1           0       -0.075410   -3.868537    2.351563
     78          1           0        1.259572   -4.633047    1.446941
     79          1           0        0.485956    5.504855   -0.937624
     80          1           0        0.191153    5.157425    0.800025
     81          1           0       -0.297346    3.965505   -0.389470
     82          1           0        2.316404    8.475258    0.540015
     83          1           0        1.379025    7.036676    0.847494
     84          1           0        1.732514    7.507590   -0.830650
     85          1           0        8.349350    4.726709    0.737366
     86          1           0        9.655084    2.501929   -0.771874
     87          1           0        7.637034    4.396725   -2.265519
     88          1           0        9.320072    4.565910   -1.922158
     89          1           0        8.316917    5.860259   -1.393332
     90          1           0       10.194968    3.601790    1.695200
     91          1           0       10.765058    2.080583    1.081334
     92          1           0        9.786719    2.054379    3.531545
     93          1           0        9.462279    0.839434    2.229177
     94          1           0        8.205611    1.994434    2.759778
     95          1           0        9.457938   -2.321613   -0.964090
     96          1           0        9.022249   -3.878224   -0.355490
     97          1           0        9.461067   -2.490560    0.779290
     98          1           0        3.886331   -4.122863    0.950036
     99          1           0        3.220312   -7.121985   -2.413178
    100          1           0        1.664252   -6.394317   -1.831214
    101          1           0        2.447676   -7.743553   -0.974144
    102          1           0       -2.728845   -4.455777   -0.830902
    103          1           0       -2.036204   -2.848679   -1.563987
    104          1           0       -3.734961   -1.824723    0.281561
    105          1           0       -6.405558   -4.298458   -2.064840
    106          1           0       -5.493934   -4.901708   -0.720863
    107          1           0       -4.623330   -4.471243   -2.211559
    108          1           0       -7.033247   -2.394828   -0.996943
    109          1           0       -6.063030   -1.271430    0.014715
    110          1           0       -6.184436   -3.841806    1.205454
    111          1           0       -7.843345   -3.505216    0.878139
    112          1           0       -6.155879   -1.352894    2.010357
    113          1           0       -6.383559   -2.794720    2.964155
    114          1           0       -9.013470   -1.900882    1.873137
    115          1           0       -8.220984   -3.505282    4.069626
    116          1           0       -9.705688   -3.266575    3.501941
    117          1           0       -9.200572   -2.161174    4.655044
    118          1           0       -7.166819    0.137886    3.054918
    119          1           0       -8.272391   -0.284254    4.263773
    120          1           0       -9.515737    1.452676    3.186340
    121          1           0      -10.056059    0.161890    2.159784
    122          1           0       -7.481684    0.976798    1.130599
    123          1           0       -8.183047    2.461031    1.454058
    124          1           0       -9.885778    0.476195    0.063863
    125          1           0       -7.328555    1.474128   -0.965713
    126          1           0       -8.686270    2.098903   -1.854674
    127          1           0       -8.507217    0.429194   -1.769916
    128          1           0      -10.114962    3.259768   -0.810030
    129          1           0      -10.420775    3.034137    1.002803
    130          1           0      -12.349015    2.121215    0.631077
    131          1           0      -11.675165    1.114990   -0.786742
    132          1           0      -11.939278    2.847968   -2.326860
    133          1           0      -12.261913    3.999606   -1.163159
    134          1           0      -14.364836    1.841197   -0.928097
    135          1           0      -13.958167    1.026611   -2.942974
    136          1           0      -13.841126    2.641336   -3.866397
    137          1           0      -15.308112    2.018204   -3.266386
    138          1           0      -15.278286    3.685138   -0.219572
    139          1           0      -15.712923    4.015746   -1.803278
    140          1           0      -14.316819    4.836994   -1.075622
 ---------------------------------------------------------------------

 SCF Done:  E(RCAM-B3LYP) =  -3007.17185118     A.U. after   18 cycles

 Excitation energies and oscillator strengths:

 Excited State   1:      Singlet-A      1.7492 eV  708.81 nm  f=0.3738  <S**2>=0.000
     245 -> 248        0.19097
     246 -> 247        0.68254
     245 <- 248        0.10886
 This state for optimization and/or second-order correction.
 Total Energy, E(TD-HF/TD-DFT) =  -3007.10756980
 Copying the excited state density for this state as the 1-particle RhoCI density.

 Excited State   2:      Singlet-A      2.2999 eV  539.08 nm  f=0.0627  <S**2>=0.000
     245 -> 247        0.61453
     246 -> 248       -0.34032

 Excited State   3:      Singlet-A      3.4707 eV  357.23 nm  f=0.6925  <S**2>=0.000
     241 -> 247        0.11487
     243 -> 247        0.18559
     245 -> 247        0.31123
     246 -> 248        0.58545
     245 <- 247       -0.10802

 Excited State   4:      Singlet-A      3.6288 eV  341.67 nm  f=0.0061  <S**2>=0.000
     239 -> 247        0.11134
     240 -> 247       -0.12964
     240 -> 249       -0.11253
     241 -> 247       -0.30403
     241 -> 249       -0.28121
     241 -> 250       -0.19955
     242 -> 247       -0.15874
     242 -> 249       -0.10471
     243 -> 247        0.39481

 Excited State   5:      Singlet-A      3.6930 eV  335.72 nm  f=0.0011  <S**2>=0.000
     239 -> 247        0.34911
     239 -> 249       -0.25187
     239 -> 250        0.20482
     240 -> 247        0.36794
     240 -> 249       -0.22412
     240 -> 250        0.19103

 The electronic state is 1-A.
 Alpha  occ. eigenvalues --  -46.87766 -19.25509 -19.23494 -19.21414 -19.19366
 Alpha  occ. eigenvalues --  -19.18560 -19.18431 -14.41805 -14.41764 -14.39482
 Alpha  occ. eigenvalues --  -14.39169 -10.40511 -10.38133 -10.36026 -10.34509
 Alpha  occ. eigenvalues --  -10.32430 -10.30802 -10.30701 -10.30556 -10.30503
 Alpha  occ. eigenvalues --  -10.30409 -10.30229 -10.29397 -10.28998 -10.28973
 Alpha  occ. eigenvalues --  -10.28564 -10.28410 -10.28308 -10.28007 -10.27793
 Alpha  occ. eigenvalues --  -10.27695 -10.27591 -10.27584 -10.27500 -10.27357
 Alpha  occ. eigenvalues --  -10.27311 -10.27272 -10.26933 -10.26824 -10.26492
 Alpha  occ. eigenvalues --  -10.26316 -10.26314 -10.26192 -10.26191 -10.26028
 Alpha  occ. eigenvalues --  -10.25913 -10.25906 -10.25740 -10.25686 -10.25462
 Alpha  occ. eigenvalues --  -10.25394 -10.25276 -10.25062 -10.25018 -10.24895
 Alpha  occ. eigenvalues --  -10.24860 -10.24791 -10.24674 -10.24622 -10.24570
 Alpha  occ. eigenvalues --  -10.24564 -10.24429 -10.24412 -10.24151 -10.24111
 Alpha  occ. eigenvalues --  -10.23934  -3.16495  -1.91399  -1.90936  -1.90820
 Alpha  occ. eigenvalues --   -1.16500  -1.14716  -1.08665  -1.08602  -1.08588
 Alpha  occ. eigenvalues --   -1.06452  -1.06214  -1.04386  -1.02695  -1.01699
 Alpha  occ. eigenvalues --   -0.93402  -0.91586  -0.90146  -0.89140  -0.89037
 Alpha  occ. eigenvalues --   -0.88825  -0.88020  -0.87660  -0.87616  -0.87404
 Alpha  occ. eigenvalues --   -0.86151  -0.85628  -0.84809  -0.83350  -0.82959
 Alpha  occ. eigenvalues --   -0.82470  -0.81934  -0.81355  -0.80719  -0.80216
 Alpha  occ. eigenvalues --   -0.79988  -0.78180  -0.77938  -0.76963  -0.76066
 Alpha  occ. eigenvalues --   -0.75977  -0.75611  -0.75127  -0.75029  -0.73944
 Alpha  occ. eigenvalues --   -0.73270  -0.72370  -0.71562  -0.70619  -0.69915
 Alpha  occ. eigenvalues --   -0.69089  -0.68846  -0.66809  -0.66035  -0.65575
 Alpha  occ. eigenvalues --   -0.65221  -0.65094  -0.64841  -0.64653  -0.64041
 Alpha  occ. eigenvalues --   -0.63920  -0.63280  -0.62938  -0.61124  -0.60308
 Alpha  occ. eigenvalues --   -0.59839  -0.59433  -0.59099  -0.58527  -0.57902
 Alpha  occ. eigenvalues --   -0.57617  -0.57036  -0.56003  -0.55921  -0.55681
 Alpha  occ. eigenvalues --   -0.55308  -0.54967  -0.54809  -0.54746  -0.54195
 Alpha  occ. eigenvalues --   -0.53934  -0.53709  -0.53465  -0.53208  -0.52870
 Alpha  occ. eigenvalues --   -0.52494  -0.52314  -0.52115  -0.51952  -0.51697
 Alpha  occ. eigenvalues --   -0.51437  -0.51112  -0.50869  -0.50720  -0.50600
 Alpha  occ. eigenvalues --   -0.50426  -0.50280  -0.49956  -0.49722  -0.49574
 Alpha  occ. eigenvalues --   -0.49543  -0.49134  -0.48904  -0.48755  -0.48696
 Alpha  occ. eigenvalues --   -0.48605  -0.48368  -0.48067  -0.47995  -0.47742
 Alpha  occ. eigenvalues --   -0.47643  -0.47318  -0.47048  -0.46805  -0.46684
 Alpha  occ. eigenvalues --   -0.46474  -0.46361  -0.46148  -0.46086  -0.45768
 Alpha  occ. eigenvalues --   -0.45586  -0.45494  -0.45218  -0.45090  -0.44832
 Alpha  occ. eigenvalues --   -0.44724  -0.44618  -0.44382  -0.44170  -0.44045
 Alpha  occ. eigenvalues --   -0.43825  -0.43619  -0.43500  -0.43338  -0.42890
 Alpha  occ. eigenvalues --   -0.42557  -0.42511  -0.42227  -0.42122  -0.41945
 Alpha  occ. eigenvalues --   -0.41886  -0.41509  -0.41385  -0.41113  -0.41016
 Alpha  occ. eigenvalues --   -0.40814  -0.40542  -0.40416  -0.40243  -0.40227
 Alpha  occ. eigenvalues --   -0.39660  -0.39341  -0.39103  -0.39033  -0.38795
 Alpha  occ. eigenvalues --   -0.38658  -0.38438  -0.38044  -0.37690  -0.37550
 Alpha  occ. eigenvalues --   -0.36984  -0.36740  -0.36697  -0.36388  -0.36370
 Alpha  occ. eigenvalues --   -0.35736  -0.35354  -0.34971  -0.34575  -0.34471
 Alpha  occ. eigenvalues --   -0.34464  -0.33307  -0.32916  -0.31357  -0.31187
 Alpha  occ. eigenvalues --   -0.30738  -0.30446  -0.29937  -0.29799  -0.23748
 Alpha  occ. eigenvalues --   -0.20520
 Alpha virt. eigenvalues --   -0.07779  -0.01563   0.00321   0.02036   0.02901
 Alpha virt. eigenvalues --    0.03623   0.04955   0.06010   0.06307   0.06633
 Alpha virt. eigenvalues --    0.07876   0.08342   0.08567   0.08779   0.09018

 Mulliken charges:
               1
     1  Mg   0.848440
     2  C    0.003799
     3  C   -0.093493
     4  C   -0.035236
     5  C   -0.115043
     6  N   -0.285332
     7  C   -0.008992
     8  C   -0.068885
     9  C   -0.088536
    10  C    0.062502
    11  C    0.063326
    12  C    0.068644
    13  C    0.079419
    14  C    0.158714
    15  O   -0.229143
    16  O   -0.365212
    17  N   -0.391756
    18  C    0.165823
    19  C   -0.154481
    20  C   -0.055554
    21  C    0.114532
    22  C    0.112940
    23  C    0.050049
    24  O   -0.221984
    25  C    0.045525
    26  N   -0.237238
    27  C   -0.018770
    28  C   -0.048584
    29  C    0.052382
    30  C    0.023865
    31  C    0.051967
    32  C   -0.018746
    33  C    0.014658
    34  N   -0.340107
    35  C    0.127422
    36  C   -0.223892
    37  C    0.064907
    38  C    0.076697
    39  C    0.129614
    40  C    0.021138
    41  O   -0.173472
    42  C    0.019101
    43  C    0.185810
    44  O   -0.221092
    45  O   -0.336537
    46  C    0.184690
    47  C    0.292639
    48  C   -0.143762
    49  C   -0.190556
    50  C    0.053971
    51  C    0.076046
    52  C    0.029575
    53  C    0.059931
    54  C   -0.098226
    55  C    0.029457
    56  C    0.091658
    57  C    0.036436
    58  C    0.032020
    59  C   -0.136823
    60  C    0.057293
    61  C    0.053145
    62  C   -0.002788
    63  C    0.032041
    64  C   -0.108783
    65  C    0.017380
    66  C    0.043593
    67  H   -0.033082
    68  H   -0.004123
    69  H   -0.032434
    70  H    0.039698
    71  H    0.011462
    72  H    0.004994
    73  H    0.027613
    74  H    0.022349
    75  H    0.013875
    76  H    0.021000
    77  H    0.027924
    78  H    0.034149
    79  H    0.030137
    80  H    0.037616
    81  H    0.022438
    82  H    0.030598
    83  H    0.025599
    84  H    0.043429
    85  H    0.027760
    86  H    0.004959
    87  H    0.032328
    88  H    0.006355
    89  H    0.034917
    90  H    0.009642
    91  H    0.002086
    92  H    0.019466
    93  H    0.009377
    94  H    0.024565
    95  H    0.013325
    96  H    0.040136
    97  H    0.026318
    98  H    0.035623
    99  H    0.037187
   100  H    0.049487
   101  H    0.030472
   102  H    0.031184
   103  H    0.040790
   104  H   -0.007425
   105  H    0.020520
   106  H    0.027379
   107  H    0.028058
   108  H   -0.008871
   109  H    0.009053
   110  H   -0.011288
   111  H   -0.005809
   112  H   -0.011463
   113  H   -0.007632
   114  H    0.008277
   115  H    0.001008
   116  H   -0.010336
   117  H    0.003953
   118  H   -0.003012
   119  H   -0.017056
   120  H   -0.008535
   121  H    0.002486
   122  H   -0.019177
   123  H   -0.007345
   124  H   -0.008045
   125  H    0.006676
   126  H   -0.015766
   127  H    0.005072
   128  H   -0.001868
   129  H   -0.002411
   130  H    0.005729
   131  H    0.001255
   132  H   -0.010003
   133  H   -0.006544
   134  H    0.000879
   135  H    0.009272
   136  H    0.019069
   137  H   -0.006350
   138  H   -0.004980
   139  H   -0.004117
   140  H    0.012001
 Sum of Mulliken charges =  -0.00000

 Dipole moment (field-independent basis, Debye):
    X=             -4.9307    Y=              2.5923    Z=              2.6202  Tot=              6.1561
 Quadrupole moment (field-independent basis, Debye-Ang):
   XX=           -378.3056   YY=           -425.7279   ZZ=           -407.5821
   XY=             28.1465   XZ=              6.9419   YZ=             -9.5181

 Normal termination of Gaussian 16 at Thu May  5 10:15:09 2022.
