 Gaussian 16, Revision A.03,
 Gaussian 16:  ES64L-G16RevA.03 25-Dec-2016

 ---------------------------------
 #p PBE1PBE/Def2SVP td=(nstates=5)
 ---------------------------------

 -----------------------------------------------------
 step_801_chromophore_24 TDDFT with PBE1PBE functional
 -----------------------------------------------------
 Symbolic Z-matrix:
 Charge =  0 Multiplicity = 1

                         Standard orientation:
 ---------------------------------------------------------------------
 Center     Atomic      Atomic             Coordinates (Angstroms)
 Number     Number       Type             X           Y           Z
 ---------------------------------------------------------------------
      1         12           0        4.834402    1.085493    0.053951
      2          6           0        4.088603   -2.340954   -0.205942
      3          6           0        1.396199    1.750516   -0.245429
      4          6           0        5.589492    4.294113    0.100296
      5          6           0        8.149080    0.288708    0.027936
      6          7           0        3.028628   -0.145807   -0.317647
      7          6           0        2.954267   -1.522387   -0.317776
      8          6           0        1.536483   -1.956089   -0.150050
      9          6           0        0.685896   -0.679853   -0.451976
     10          6           0        1.757557    0.401052   -0.407753
     11          6           0       -0.068209   -0.703923   -1.772310
     12          6           0        1.306523   -2.442637    1.358752
     13          6           0        0.529658   -3.823594    1.445488
     14          6           0       -0.476606   -4.099664    0.305236
     15          8           0       -0.268730   -4.806074   -0.671793
     16          8           0       -1.629968   -3.295114    0.430751
     17          7           0        3.622656    2.790413   -0.007828
     18          6           0        2.239147    2.872328   -0.134949
     19          6           0        1.892535    4.305040   -0.073592
     20          6           0        3.067816    5.041584    0.069732
     21          6           0        4.182707    4.043431    0.065124
     22          6           0        0.447358    4.731539   -0.171027
     23          6           0        3.330624    6.585913    0.149851
     24          8           0        4.460865    7.117099    0.263525
     25          6           0        2.130830    7.462007    0.182724
     26          7           0        6.671948    2.137346    0.025283
     27          6           0        6.756427    3.429028   -0.018269
     28          6           0        8.167562    4.030889   -0.082301
     29          6           0        8.979629    2.670077    0.066549
     30          6           0        7.896633    1.607013    0.039421
     31          6           0        8.331199    4.776552   -1.515905
     32          6           0        9.857942    2.628467    1.336558
     33          6           0        9.273027    1.850107    2.591976
     34          7           0        5.888557   -0.594275   -0.133825
     35          6           0        7.237154   -0.737766   -0.137576
     36          6           0        7.555961   -2.190888   -0.152197
     37          6           0        6.365778   -2.861240   -0.115219
     38          6           0        5.399815   -1.835440   -0.147410
     39          6           0        8.955909   -2.813707   -0.131350
     40          6           0        5.736443   -4.134094   -0.088813
     41          8           0        6.258030   -5.254110   -0.169718
     42          6           0        4.239923   -3.808626   -0.032314
     43          6           0        3.576908   -4.608709   -1.094561
     44          8           0        3.474180   -4.214709   -2.244251
     45          8           0        3.365034   -5.895125   -0.688033
     46          6           0        2.620742   -6.833660   -1.549297
     47          6           0       -2.487604   -3.397244   -0.736958
     48          6           0       -3.816347   -2.672277   -0.400982
     49          6           0       -5.082498   -2.979392   -0.793228
     50          6           0       -5.448252   -4.199900   -1.552624
     51          6           0       -6.309083   -2.313749   -0.186443
     52          6           0       -6.882108   -3.019612    1.048290
     53          6           0       -6.865327   -2.151489    2.228631
     54          6           0       -8.303939   -1.698777    2.675855
     55          6           0       -8.835977   -2.660873    3.758606
     56          6           0       -8.171086   -0.267934    3.178242
     57          6           0       -9.159137    0.652364    2.537782
     58          6           0       -8.463726    1.417823    1.304574
     59          6           0       -9.278160    1.380970    0.074163
     60          6           0       -8.391389    1.319395   -1.152097
     61          6           0      -10.351819    2.584663    0.012112
     62          6           0      -11.814486    2.088968   -0.317615
     63          6           0      -12.480905    2.955817   -1.387952
     64          6           0      -13.989289    2.649715   -1.555034
     65          6           0      -14.246035    2.074510   -3.028500
     66          6           0      -14.822028    3.877979   -1.190136
     67          1           0        0.314464    1.885740   -0.293536
     68          1           0        5.877900    5.339895   -0.025178
     69          1           0        9.185253   -0.056138    0.012297
     70          1           0        1.232281   -2.726087   -0.859347
     71          1           0       -0.112309   -0.540151    0.276242
     72          1           0        0.168268    0.257551   -2.227217
     73          1           0       -1.136101   -0.903951   -1.693423
     74          1           0        0.348437   -1.408672   -2.492951
     75          1           0        0.766267   -1.682134    1.922687
     76          1           0        2.241195   -2.544724    1.911566
     77          1           0       -0.075410   -3.868537    2.351563
     78          1           0        1.259572   -4.633047    1.446941
     79          1           0        0.485956    5.504855   -0.937624
     80          1           0        0.191153    5.157425    0.800025
     81          1           0       -0.297346    3.965505   -0.389470
     82          1           0        2.316404    8.475258    0.540015
     83          1           0        1.379025    7.036676    0.847494
     84          1           0        1.732514    7.507590   -0.830650
     85          1           0        8.349350    4.726709    0.737366
     86          1           0        9.655084    2.501929   -0.771874
     87          1           0        7.637034    4.396725   -2.265519
     88          1           0        9.320072    4.565910   -1.922158
     89          1           0        8.316917    5.860259   -1.393332
     90          1           0       10.194968    3.601790    1.695200
     91          1           0       10.765058    2.080583    1.081334
     92          1           0        9.786719    2.054379    3.531545
     93          1           0        9.462279    0.839434    2.229177
     94          1           0        8.205611    1.994434    2.759778
     95          1           0        9.457938   -2.321613   -0.964090
     96          1           0        9.022249   -3.878224   -0.355490
     97          1           0        9.461067   -2.490560    0.779290
     98          1           0        3.886331   -4.122863    0.950036
     99          1           0        3.220312   -7.121985   -2.413178
    100          1           0        1.664252   -6.394317   -1.831214
    101          1           0        2.447676   -7.743553   -0.974144
    102          1           0       -2.728845   -4.455777   -0.830902
    103          1           0       -2.036204   -2.848679   -1.563987
    104          1           0       -3.734961   -1.824723    0.281561
    105          1           0       -6.405558   -4.298458   -2.064840
    106          1           0       -5.493934   -4.901708   -0.720863
    107          1           0       -4.623330   -4.471243   -2.211559
    108          1           0       -7.033247   -2.394828   -0.996943
    109          1           0       -6.063030   -1.271430    0.014715
    110          1           0       -6.184436   -3.841806    1.205454
    111          1           0       -7.843345   -3.505216    0.878139
    112          1           0       -6.155879   -1.352894    2.010357
    113          1           0       -6.383559   -2.794720    2.964155
    114          1           0       -9.013470   -1.900882    1.873137
    115          1           0       -8.220984   -3.505282    4.069626
    116          1           0       -9.705688   -3.266575    3.501941
    117          1           0       -9.200572   -2.161174    4.655044
    118          1           0       -7.166819    0.137886    3.054918
    119          1           0       -8.272391   -0.284254    4.263773
    120          1           0       -9.515737    1.452676    3.186340
    121          1           0      -10.056059    0.161890    2.159784
    122          1           0       -7.481684    0.976798    1.130599
    123          1           0       -8.183047    2.461031    1.454058
    124          1           0       -9.885778    0.476195    0.063863
    125          1           0       -7.328555    1.474128   -0.965713
    126          1           0       -8.686270    2.098903   -1.854674
    127          1           0       -8.507217    0.429194   -1.769916
    128          1           0      -10.114962    3.259768   -0.810030
    129          1           0      -10.420775    3.034137    1.002803
    130          1           0      -12.349015    2.121215    0.631077
    131          1           0      -11.675165    1.114990   -0.786742
    132          1           0      -11.939278    2.847968   -2.326860
    133          1           0      -12.261913    3.999606   -1.163159
    134          1           0      -14.364836    1.841197   -0.928097
    135          1           0      -13.958167    1.026611   -2.942974
    136          1           0      -13.841126    2.641336   -3.866397
    137          1           0      -15.308112    2.018204   -3.266386
    138          1           0      -15.278286    3.685138   -0.219572
    139          1           0      -15.712923    4.015746   -1.803278
    140          1           0      -14.316819    4.836994   -1.075622
 ---------------------------------------------------------------------

 SCF Done:  E(RPBE1PBE) =  -3005.35947352     A.U. after   15 cycles

 Excitation energies and oscillator strengths:

 Excited State   1:      Singlet-A      1.8893 eV  656.24 nm  f=0.3691  <S**2>=0.000
     245 -> 248        0.18205
     246 -> 247        0.68981
 This state for optimization and/or second-order correction.
 Total Energy, E(TD-HF/TD-DFT) =  -3005.29004228
 Copying the excited state density for this state as the 1-particle RhoCI density.

 Excited State   2:      Singlet-A      2.2978 eV  539.57 nm  f=0.0686  <S**2>=0.000
     245 -> 247        0.63345
     246 -> 248       -0.30477

 Excited State   3:      Singlet-A      3.1904 eV  388.62 nm  f=0.0097  <S**2>=0.000
     242 -> 247        0.33831
     242 -> 249        0.14666
     243 -> 247        0.55045
     243 -> 249        0.15070

 Excited State   4:      Singlet-A      3.2626 eV  380.02 nm  f=0.0608  <S**2>=0.000
     241 -> 247        0.56063
     241 -> 249       -0.16333
     241 -> 250       -0.13416
     242 -> 247        0.16156
     243 -> 247       -0.13118
     246 -> 248        0.24154

 Excited State   5:      Singlet-A      3.2876 eV  377.13 nm  f=0.2191  <S**2>=0.000
     241 -> 247       -0.32337
     242 -> 247        0.13136
     243 -> 247       -0.19338
     245 -> 247        0.18825
     246 -> 248        0.46267
     246 -> 249        0.24781

 The electronic state is 1-A.
 Alpha  occ. eigenvalues --  -46.91181 -19.26200 -19.24193 -19.21682 -19.19444
 Alpha  occ. eigenvalues --  -19.18923 -19.18700 -14.41327 -14.41238 -14.39092
 Alpha  occ. eigenvalues --  -14.38879 -10.37596 -10.35183 -10.33023 -10.31747
 Alpha  occ. eigenvalues --  -10.29845 -10.28430 -10.28339 -10.28265 -10.28127
 Alpha  occ. eigenvalues --  -10.27759 -10.27748 -10.27259 -10.26940 -10.26440
 Alpha  occ. eigenvalues --  -10.26242 -10.26084 -10.26015 -10.25842 -10.25464
 Alpha  occ. eigenvalues --  -10.25440 -10.25366 -10.25359 -10.25337 -10.25051
 Alpha  occ. eigenvalues --  -10.24967 -10.24706 -10.24655 -10.24557 -10.24175
 Alpha  occ. eigenvalues --  -10.23916 -10.23861 -10.23817 -10.23676 -10.23498
 Alpha  occ. eigenvalues --  -10.23465 -10.23377 -10.23302 -10.23235 -10.23023
 Alpha  occ. eigenvalues --  -10.22838 -10.22751 -10.22738 -10.22553 -10.22477
 Alpha  occ. eigenvalues --  -10.22400 -10.22310 -10.22159 -10.22123 -10.22077
 Alpha  occ. eigenvalues --  -10.22001 -10.21986 -10.21985 -10.21791 -10.21523
 Alpha  occ. eigenvalues --  -10.21479  -3.13484  -1.86331  -1.85845  -1.85734
 Alpha  occ. eigenvalues --   -1.11293  -1.09518  -1.03465  -1.03440  -1.03224
 Alpha  occ. eigenvalues --   -1.01318  -1.00879  -0.99209  -0.97281  -0.96257
 Alpha  occ. eigenvalues --   -0.87881  -0.85712  -0.84251  -0.83441  -0.83261
 Alpha  occ. eigenvalues --   -0.82998  -0.82316  -0.81961  -0.81744  -0.81564
 Alpha  occ. eigenvalues --   -0.80560  -0.79847  -0.78996  -0.77685  -0.77151
 Alpha  occ. eigenvalues --   -0.76594  -0.76064  -0.75618  -0.74996  -0.74493
 Alpha  occ. eigenvalues --   -0.74275  -0.72437  -0.72187  -0.71290  -0.70400
 Alpha  occ. eigenvalues --   -0.70170  -0.69681  -0.69395  -0.69248  -0.68114
 Alpha  occ. eigenvalues --   -0.67591  -0.66836  -0.66013  -0.64919  -0.64298
 Alpha  occ. eigenvalues --   -0.63367  -0.63312  -0.61163  -0.60241  -0.60068
 Alpha  occ. eigenvalues --   -0.59626  -0.59404  -0.59117  -0.58997  -0.58636
 Alpha  occ. eigenvalues --   -0.58042  -0.57784  -0.57130  -0.55744  -0.54752
 Alpha  occ. eigenvalues --   -0.54359  -0.53947  -0.53625  -0.53180  -0.52327
 Alpha  occ. eigenvalues --   -0.52179  -0.51451  -0.50559  -0.50481  -0.50243
 Alpha  occ. eigenvalues --   -0.49827  -0.49561  -0.49342  -0.49137  -0.48645
 Alpha  occ. eigenvalues --   -0.48417  -0.48214  -0.48046  -0.47677  -0.47171
 Alpha  occ. eigenvalues --   -0.47015  -0.46849  -0.46634  -0.46411  -0.46366
 Alpha  occ. eigenvalues --   -0.46038  -0.45754  -0.45472  -0.45247  -0.45188
 Alpha  occ. eigenvalues --   -0.45030  -0.44730  -0.44508  -0.44282  -0.44161
 Alpha  occ. eigenvalues --   -0.44113  -0.43670  -0.43556  -0.43353  -0.43301
 Alpha  occ. eigenvalues --   -0.43233  -0.42926  -0.42751  -0.42627  -0.42377
 Alpha  occ. eigenvalues --   -0.42318  -0.41962  -0.41679  -0.41566  -0.41322
 Alpha  occ. eigenvalues --   -0.41213  -0.40997  -0.40865  -0.40645  -0.40502
 Alpha  occ. eigenvalues --   -0.40358  -0.40227  -0.39940  -0.39786  -0.39575
 Alpha  occ. eigenvalues --   -0.39427  -0.39248  -0.39117  -0.38950  -0.38781
 Alpha  occ. eigenvalues --   -0.38674  -0.38330  -0.38211  -0.38154  -0.37668
 Alpha  occ. eigenvalues --   -0.37413  -0.37356  -0.37042  -0.36948  -0.36734
 Alpha  occ. eigenvalues --   -0.36560  -0.36346  -0.36209  -0.35977  -0.35764
 Alpha  occ. eigenvalues --   -0.35739  -0.35355  -0.35292  -0.35067  -0.34991
 Alpha  occ. eigenvalues --   -0.34597  -0.34118  -0.33847  -0.33765  -0.33733
 Alpha  occ. eigenvalues --   -0.33493  -0.33403  -0.32786  -0.32639  -0.32542
 Alpha  occ. eigenvalues --   -0.31825  -0.31769  -0.31589  -0.31465  -0.31208
 Alpha  occ. eigenvalues --   -0.30626  -0.30306  -0.29816  -0.29660  -0.29491
 Alpha  occ. eigenvalues --   -0.29435  -0.28854  -0.27760  -0.26782  -0.26235
 Alpha  occ. eigenvalues --   -0.25897  -0.25800  -0.25415  -0.25092  -0.20655
 Alpha  occ. eigenvalues --   -0.18190
 Alpha virt. eigenvalues --   -0.10371  -0.05014  -0.03926  -0.02335  -0.01121
 Alpha virt. eigenvalues --    0.00109   0.00539   0.01612   0.01919   0.03020
 Alpha virt. eigenvalues --    0.04080   0.04878   0.05014   0.05211   0.05486

 Mulliken charges:
               1
     1  Mg   1.001464
     2  C   -0.010736
     3  C   -0.083519
     4  C   -0.024127
     5  C   -0.099762
     6  N   -0.390856
     7  C    0.077387
     8  C   -0.141292
     9  C   -0.164087
    10  C    0.094131
    11  C    0.009301
    12  C    0.023277
    13  C    0.005940
    14  C    0.213451
    15  O   -0.260414
    16  O   -0.392567
    17  N   -0.504819
    18  C    0.191789
    19  C   -0.190168
    20  C   -0.100773
    21  C    0.145289
    22  C    0.052735
    23  C    0.099511
    24  O   -0.260497
    25  C   -0.027221
    26  N   -0.350873
    27  C    0.017826
    28  C   -0.126525
    29  C   -0.013405
    30  C    0.053892
    31  C   -0.003008
    32  C   -0.076528
    33  C   -0.063812
    34  N   -0.478244
    35  C    0.151475
    36  C   -0.238470
    37  C    0.027630
    38  C    0.116057
    39  C    0.072809
    40  C    0.117762
    41  O   -0.219719
    42  C   -0.091560
    43  C    0.278934
    44  O   -0.255877
    45  O   -0.370813
    46  C    0.129494
    47  C    0.249489
    48  C   -0.152059
    49  C   -0.236600
    50  C   -0.008185
    51  C    0.009699
    52  C   -0.030489
    53  C    0.006050
    54  C   -0.185307
    55  C   -0.020462
    56  C    0.032097
    57  C   -0.026942
    58  C   -0.021604
    59  C   -0.225747
    60  C    0.002049
    61  C    0.001742
    62  C   -0.069870
    63  C   -0.019583
    64  C   -0.203135
    65  C   -0.045360
    66  C   -0.014049
    67  H   -0.000752
    68  H    0.027949
    69  H   -0.001461
    70  H    0.079652
    71  H    0.046429
    72  H    0.034705
    73  H    0.055364
    74  H    0.048951
    75  H    0.045292
    76  H    0.053831
    77  H    0.060196
    78  H    0.066841
    79  H    0.058444
    80  H    0.064762
    81  H    0.048354
    82  H    0.057366
    83  H    0.052538
    84  H    0.069790
    85  H    0.061892
    86  H    0.041751
    87  H    0.059462
    88  H    0.034139
    89  H    0.061540
    90  H    0.042087
    91  H    0.035139
    92  H    0.048374
    93  H    0.039153
    94  H    0.055327
    95  H    0.042233
    96  H    0.067326
    97  H    0.054774
    98  H    0.073759
    99  H    0.058984
   100  H    0.072561
   101  H    0.052391
   102  H    0.057873
   103  H    0.068996
   104  H    0.022678
   105  H    0.046579
   106  H    0.055569
   107  H    0.055987
   108  H    0.025836
   109  H    0.041769
   110  H    0.023822
   111  H    0.025484
   112  H    0.019096
   113  H    0.025379
   114  H    0.043998
   115  H    0.026796
   116  H    0.016979
   117  H    0.030258
   118  H    0.028685
   119  H    0.015808
   120  H    0.024661
   121  H    0.034375
   122  H    0.015351
   123  H    0.025435
   124  H    0.030071
   125  H    0.032750
   126  H    0.011758
   127  H    0.032345
   128  H    0.030098
   129  H    0.030808
   130  H    0.038237
   131  H    0.035693
   132  H    0.022481
   133  H    0.025661
   134  H    0.037300
   135  H    0.038044
   136  H    0.045533
   137  H    0.021970
   138  H    0.023141
   139  H    0.023221
   140  H    0.038120
 Sum of Mulliken charges =  -0.00000

 Dipole moment (field-independent basis, Debye):
    X=             -4.7164    Y=              2.2477    Z=              2.6352  Tot=              5.8516
 Quadrupole moment (field-independent basis, Debye-Ang):
   XX=           -370.3734   YY=           -423.7567   ZZ=           -405.1308
   XY=             27.9258   XZ=              6.9205   YZ=             -9.4603

 Normal termination of Gaussian 16 at Thu May  5 10:52:59 2022.
