 Gaussian 16, Revision A.03,
 Gaussian 16:  ES64L-G16RevA.03 25-Dec-2016

 --------------------------------
 #p wB97XD/Def2SVP td=(nstates=5)
 --------------------------------

 ----------------------------------------------------
 step_801_chromophore_24 TDDFT with wB97XD functional
 ----------------------------------------------------
 Symbolic Z-matrix:
 Charge =  0 Multiplicity = 1

                         Standard orientation:
 ---------------------------------------------------------------------
 Center     Atomic      Atomic             Coordinates (Angstroms)
 Number     Number       Type             X           Y           Z
 ---------------------------------------------------------------------
      1         12           0        4.834402    1.085493    0.053951
      2          6           0        4.088603   -2.340954   -0.205942
      3          6           0        1.396199    1.750516   -0.245429
      4          6           0        5.589492    4.294113    0.100296
      5          6           0        8.149080    0.288708    0.027936
      6          7           0        3.028628   -0.145807   -0.317647
      7          6           0        2.954267   -1.522387   -0.317776
      8          6           0        1.536483   -1.956089   -0.150050
      9          6           0        0.685896   -0.679853   -0.451976
     10          6           0        1.757557    0.401052   -0.407753
     11          6           0       -0.068209   -0.703923   -1.772310
     12          6           0        1.306523   -2.442637    1.358752
     13          6           0        0.529658   -3.823594    1.445488
     14          6           0       -0.476606   -4.099664    0.305236
     15          8           0       -0.268730   -4.806074   -0.671793
     16          8           0       -1.629968   -3.295114    0.430751
     17          7           0        3.622656    2.790413   -0.007828
     18          6           0        2.239147    2.872328   -0.134949
     19          6           0        1.892535    4.305040   -0.073592
     20          6           0        3.067816    5.041584    0.069732
     21          6           0        4.182707    4.043431    0.065124
     22          6           0        0.447358    4.731539   -0.171027
     23          6           0        3.330624    6.585913    0.149851
     24          8           0        4.460865    7.117099    0.263525
     25          6           0        2.130830    7.462007    0.182724
     26          7           0        6.671948    2.137346    0.025283
     27          6           0        6.756427    3.429028   -0.018269
     28          6           0        8.167562    4.030889   -0.082301
     29          6           0        8.979629    2.670077    0.066549
     30          6           0        7.896633    1.607013    0.039421
     31          6           0        8.331199    4.776552   -1.515905
     32          6           0        9.857942    2.628467    1.336558
     33          6           0        9.273027    1.850107    2.591976
     34          7           0        5.888557   -0.594275   -0.133825
     35          6           0        7.237154   -0.737766   -0.137576
     36          6           0        7.555961   -2.190888   -0.152197
     37          6           0        6.365778   -2.861240   -0.115219
     38          6           0        5.399815   -1.835440   -0.147410
     39          6           0        8.955909   -2.813707   -0.131350
     40          6           0        5.736443   -4.134094   -0.088813
     41          8           0        6.258030   -5.254110   -0.169718
     42          6           0        4.239923   -3.808626   -0.032314
     43          6           0        3.576908   -4.608709   -1.094561
     44          8           0        3.474180   -4.214709   -2.244251
     45          8           0        3.365034   -5.895125   -0.688033
     46          6           0        2.620742   -6.833660   -1.549297
     47          6           0       -2.487604   -3.397244   -0.736958
     48          6           0       -3.816347   -2.672277   -0.400982
     49          6           0       -5.082498   -2.979392   -0.793228
     50          6           0       -5.448252   -4.199900   -1.552624
     51          6           0       -6.309083   -2.313749   -0.186443
     52          6           0       -6.882108   -3.019612    1.048290
     53          6           0       -6.865327   -2.151489    2.228631
     54          6           0       -8.303939   -1.698777    2.675855
     55          6           0       -8.835977   -2.660873    3.758606
     56          6           0       -8.171086   -0.267934    3.178242
     57          6           0       -9.159137    0.652364    2.537782
     58          6           0       -8.463726    1.417823    1.304574
     59          6           0       -9.278160    1.380970    0.074163
     60          6           0       -8.391389    1.319395   -1.152097
     61          6           0      -10.351819    2.584663    0.012112
     62          6           0      -11.814486    2.088968   -0.317615
     63          6           0      -12.480905    2.955817   -1.387952
     64          6           0      -13.989289    2.649715   -1.555034
     65          6           0      -14.246035    2.074510   -3.028500
     66          6           0      -14.822028    3.877979   -1.190136
     67          1           0        0.314464    1.885740   -0.293536
     68          1           0        5.877900    5.339895   -0.025178
     69          1           0        9.185253   -0.056138    0.012297
     70          1           0        1.232281   -2.726087   -0.859347
     71          1           0       -0.112309   -0.540151    0.276242
     72          1           0        0.168268    0.257551   -2.227217
     73          1           0       -1.136101   -0.903951   -1.693423
     74          1           0        0.348437   -1.408672   -2.492951
     75          1           0        0.766267   -1.682134    1.922687
     76          1           0        2.241195   -2.544724    1.911566
     77          1           0       -0.075410   -3.868537    2.351563
     78          1           0        1.259572   -4.633047    1.446941
     79          1           0        0.485956    5.504855   -0.937624
     80          1           0        0.191153    5.157425    0.800025
     81          1           0       -0.297346    3.965505   -0.389470
     82          1           0        2.316404    8.475258    0.540015
     83          1           0        1.379025    7.036676    0.847494
     84          1           0        1.732514    7.507590   -0.830650
     85          1           0        8.349350    4.726709    0.737366
     86          1           0        9.655084    2.501929   -0.771874
     87          1           0        7.637034    4.396725   -2.265519
     88          1           0        9.320072    4.565910   -1.922158
     89          1           0        8.316917    5.860259   -1.393332
     90          1           0       10.194968    3.601790    1.695200
     91          1           0       10.765058    2.080583    1.081334
     92          1           0        9.786719    2.054379    3.531545
     93          1           0        9.462279    0.839434    2.229177
     94          1           0        8.205611    1.994434    2.759778
     95          1           0        9.457938   -2.321613   -0.964090
     96          1           0        9.022249   -3.878224   -0.355490
     97          1           0        9.461067   -2.490560    0.779290
     98          1           0        3.886331   -4.122863    0.950036
     99          1           0        3.220312   -7.121985   -2.413178
    100          1           0        1.664252   -6.394317   -1.831214
    101          1           0        2.447676   -7.743553   -0.974144
    102          1           0       -2.728845   -4.455777   -0.830902
    103          1           0       -2.036204   -2.848679   -1.563987
    104          1           0       -3.734961   -1.824723    0.281561
    105          1           0       -6.405558   -4.298458   -2.064840
    106          1           0       -5.493934   -4.901708   -0.720863
    107          1           0       -4.623330   -4.471243   -2.211559
    108          1           0       -7.033247   -2.394828   -0.996943
    109          1           0       -6.063030   -1.271430    0.014715
    110          1           0       -6.184436   -3.841806    1.205454
    111          1           0       -7.843345   -3.505216    0.878139
    112          1           0       -6.155879   -1.352894    2.010357
    113          1           0       -6.383559   -2.794720    2.964155
    114          1           0       -9.013470   -1.900882    1.873137
    115          1           0       -8.220984   -3.505282    4.069626
    116          1           0       -9.705688   -3.266575    3.501941
    117          1           0       -9.200572   -2.161174    4.655044
    118          1           0       -7.166819    0.137886    3.054918
    119          1           0       -8.272391   -0.284254    4.263773
    120          1           0       -9.515737    1.452676    3.186340
    121          1           0      -10.056059    0.161890    2.159784
    122          1           0       -7.481684    0.976798    1.130599
    123          1           0       -8.183047    2.461031    1.454058
    124          1           0       -9.885778    0.476195    0.063863
    125          1           0       -7.328555    1.474128   -0.965713
    126          1           0       -8.686270    2.098903   -1.854674
    127          1           0       -8.507217    0.429194   -1.769916
    128          1           0      -10.114962    3.259768   -0.810030
    129          1           0      -10.420775    3.034137    1.002803
    130          1           0      -12.349015    2.121215    0.631077
    131          1           0      -11.675165    1.114990   -0.786742
    132          1           0      -11.939278    2.847968   -2.326860
    133          1           0      -12.261913    3.999606   -1.163159
    134          1           0      -14.364836    1.841197   -0.928097
    135          1           0      -13.958167    1.026611   -2.942974
    136          1           0      -13.841126    2.641336   -3.866397
    137          1           0      -15.308112    2.018204   -3.266386
    138          1           0      -15.278286    3.685138   -0.219572
    139          1           0      -15.712923    4.015746   -1.803278
    140          1           0      -14.316819    4.836994   -1.075622
 ---------------------------------------------------------------------

 SCF Done:  E(RwB97XD) =  -3007.87260999     A.U. after   19 cycles

 Excitation energies and oscillator strengths:

 Excited State   1:      Singlet-A      1.6973 eV  730.47 nm  f=0.3712  <S**2>=0.000
     245 -> 248        0.19636
     246 -> 247        0.68042
     245 <- 248        0.11797
 This state for optimization and/or second-order correction.
 Total Energy, E(TD-HF/TD-DFT) =  -3007.81023434
 Copying the excited state density for this state as the 1-particle RhoCI density.

 Excited State   2:      Singlet-A      2.2473 eV  551.69 nm  f=0.0616  <S**2>=0.000
     245 -> 247        0.61345
     246 -> 248       -0.34106

 Excited State   3:      Singlet-A      3.4787 eV  356.41 nm  f=0.6904  <S**2>=0.000
     242 -> 247        0.12724
     243 -> 247        0.18510
     245 -> 247        0.30605
     246 -> 248        0.58089
     245 <- 247       -0.11235

 Excited State   4:      Singlet-A      3.6558 eV  339.14 nm  f=0.0110  <S**2>=0.000
     239 -> 247        0.11024
     241 -> 247       -0.22562
     241 -> 249       -0.25977
     241 -> 250       -0.19273
     242 -> 247       -0.17190
     242 -> 249       -0.16916
     242 -> 250       -0.10515
     243 -> 247        0.43669
     243 -> 249        0.14600
     243 -> 250        0.10020

 Excited State   5:      Singlet-A      3.6975 eV  335.32 nm  f=0.0011  <S**2>=0.000
     239 -> 247        0.13382
     239 -> 249       -0.12316
     240 -> 247        0.47916
     240 -> 248       -0.11762
     240 -> 249       -0.33315
     240 -> 250        0.26987

 The electronic state is 1-A.
 Alpha  occ. eigenvalues --  -46.94109 -19.30730 -19.28705 -19.26307 -19.24448
 Alpha  occ. eigenvalues --  -19.23595 -19.23349 -14.46371 -14.46365 -14.44111
 Alpha  occ. eigenvalues --  -14.43746 -10.44325 -10.41963 -10.40051 -10.38500
 Alpha  occ. eigenvalues --  -10.36341 -10.34834 -10.34774 -10.34664 -10.34411
 Alpha  occ. eigenvalues --  -10.34334 -10.34226 -10.33338 -10.33157 -10.32961
 Alpha  occ. eigenvalues --  -10.32475 -10.32468 -10.32297 -10.31970 -10.31949
 Alpha  occ. eigenvalues --  -10.31711 -10.31646 -10.31627 -10.31594 -10.31321
 Alpha  occ. eigenvalues --  -10.31318 -10.31305 -10.30992 -10.30916 -10.30416
 Alpha  occ. eigenvalues --  -10.30201 -10.30198 -10.30194 -10.30154 -10.30147
 Alpha  occ. eigenvalues --  -10.29872 -10.29750 -10.29725 -10.29549 -10.29394
 Alpha  occ. eigenvalues --  -10.29264 -10.29103 -10.29028 -10.28935 -10.28835
 Alpha  occ. eigenvalues --  -10.28769 -10.28692 -10.28539 -10.28507 -10.28493
 Alpha  occ. eigenvalues --  -10.28409 -10.28363 -10.28351 -10.27959 -10.27920
 Alpha  occ. eigenvalues --  -10.27913  -3.20251  -1.93852  -1.93366  -1.93247
 Alpha  occ. eigenvalues --   -1.18639  -1.16866  -1.10917  -1.10808  -1.10773
 Alpha  occ. eigenvalues --   -1.08627  -1.08210  -1.06403  -1.04705  -1.03762
 Alpha  occ. eigenvalues --   -0.95381  -0.93374  -0.91923  -0.90999  -0.90876
 Alpha  occ. eigenvalues --   -0.90640  -0.89935  -0.89555  -0.89410  -0.89356
 Alpha  occ. eigenvalues --   -0.88087  -0.87506  -0.86655  -0.85273  -0.84868
 Alpha  occ. eigenvalues --   -0.84292  -0.83852  -0.83239  -0.82612  -0.82117
 Alpha  occ. eigenvalues --   -0.81899  -0.80155  -0.79839  -0.78879  -0.77973
 Alpha  occ. eigenvalues --   -0.77833  -0.77390  -0.76974  -0.76926  -0.75781
 Alpha  occ. eigenvalues --   -0.75186  -0.74341  -0.73539  -0.72527  -0.71820
 Alpha  occ. eigenvalues --   -0.70967  -0.70841  -0.68817  -0.67892  -0.67512
 Alpha  occ. eigenvalues --   -0.67108  -0.67028  -0.66667  -0.66640  -0.66040
 Alpha  occ. eigenvalues --   -0.65725  -0.65249  -0.64768  -0.63108  -0.62224
 Alpha  occ. eigenvalues --   -0.61851  -0.61391  -0.61084  -0.60509  -0.59821
 Alpha  occ. eigenvalues --   -0.59615  -0.58911  -0.57988  -0.57860  -0.57602
 Alpha  occ. eigenvalues --   -0.57221  -0.56927  -0.56732  -0.56599  -0.56074
 Alpha  occ. eigenvalues --   -0.55818  -0.55605  -0.55384  -0.55091  -0.54816
 Alpha  occ. eigenvalues --   -0.54405  -0.54214  -0.54040  -0.53809  -0.53609
 Alpha  occ. eigenvalues --   -0.53361  -0.53043  -0.52773  -0.52598  -0.52497
 Alpha  occ. eigenvalues --   -0.52343  -0.52250  -0.51837  -0.51681  -0.51510
 Alpha  occ. eigenvalues --   -0.51441  -0.50995  -0.50804  -0.50683  -0.50574
 Alpha  occ. eigenvalues --   -0.50544  -0.50281  -0.49982  -0.49931  -0.49644
 Alpha  occ. eigenvalues --   -0.49558  -0.49227  -0.48998  -0.48740  -0.48543
 Alpha  occ. eigenvalues --   -0.48432  -0.48226  -0.48052  -0.47922  -0.47695
 Alpha  occ. eigenvalues --   -0.47486  -0.47402  -0.47112  -0.46960  -0.46720
 Alpha  occ. eigenvalues --   -0.46607  -0.46471  -0.46272  -0.46062  -0.45940
 Alpha  occ. eigenvalues --   -0.45756  -0.45494  -0.45388  -0.45299  -0.44824
 Alpha  occ. eigenvalues --   -0.44507  -0.44401  -0.44155  -0.44033  -0.43916
 Alpha  occ. eigenvalues --   -0.43734  -0.43460  -0.43298  -0.43006  -0.42871
 Alpha  occ. eigenvalues --   -0.42785  -0.42390  -0.42321  -0.42178  -0.42078
 Alpha  occ. eigenvalues --   -0.41551  -0.41198  -0.40942  -0.40874  -0.40678
 Alpha  occ. eigenvalues --   -0.40530  -0.40345  -0.39881  -0.39672  -0.39473
 Alpha  occ. eigenvalues --   -0.38826  -0.38811  -0.38578  -0.38342  -0.38234
 Alpha  occ. eigenvalues --   -0.37582  -0.37341  -0.36859  -0.36459  -0.36425
 Alpha  occ. eigenvalues --   -0.36305  -0.35536  -0.34854  -0.33488  -0.33215
 Alpha  occ. eigenvalues --   -0.32769  -0.32591  -0.32121  -0.31838  -0.25686
 Alpha  occ. eigenvalues --   -0.22337
 Alpha virt. eigenvalues --   -0.06116   0.00345   0.02360   0.04140   0.05728
 Alpha virt. eigenvalues --    0.06111   0.07213   0.08384   0.08653   0.09366
 Alpha virt. eigenvalues --    0.10510   0.11693   0.11745   0.11972   0.12154

 Mulliken charges:
               1
     1  Mg   0.989658
     2  C   -0.009668
     3  C   -0.105227
     4  C   -0.041783
     5  C   -0.119881
     6  N   -0.356550
     7  C    0.040909
     8  C   -0.110470
     9  C   -0.139568
    10  C    0.086855
    11  C    0.018514
    12  C    0.029849
    13  C    0.023161
    14  C    0.203875
    15  O   -0.257780
    16  O   -0.391439
    17  N   -0.474060
    18  C    0.185220
    19  C   -0.174592
    20  C   -0.096038
    21  C    0.137696
    22  C    0.065579
    23  C    0.096733
    24  O   -0.252756
    25  C   -0.016787
    26  N   -0.311352
    27  C    0.005314
    28  C   -0.104425
    29  C    0.004139
    30  C    0.044673
    31  C    0.006250
    32  C   -0.065414
    33  C   -0.039281
    34  N   -0.436644
    35  C    0.139948
    36  C   -0.235403
    37  C    0.025871
    38  C    0.102657
    39  C    0.082761
    40  C    0.098073
    41  O   -0.209740
    42  C   -0.051905
    43  C    0.253434
    44  O   -0.249357
    45  O   -0.368554
    46  C    0.144749
    47  C    0.266422
    48  C   -0.164180
    49  C   -0.214551
    50  C    0.001510
    51  C    0.032365
    52  C   -0.016189
    53  C    0.026151
    54  C   -0.158463
    55  C   -0.012461
    56  C    0.051907
    57  C   -0.009838
    58  C   -0.003071
    59  C   -0.190487
    60  C    0.013079
    61  C    0.014567
    62  C   -0.049739
    63  C   -0.004676
    64  C   -0.176501
    65  C   -0.031024
    66  C   -0.003463
    67  H   -0.008101
    68  H    0.021982
    69  H   -0.007341
    70  H    0.060383
    71  H    0.037401
    72  H    0.027568
    73  H    0.047668
    74  H    0.045103
    75  H    0.038249
    76  H    0.045029
    77  H    0.055362
    78  H    0.060572
    79  H    0.051605
    80  H    0.059948
    81  H    0.046440
    82  H    0.057359
    83  H    0.045894
    84  H    0.065571
    85  H    0.054765
    86  H    0.032742
    87  H    0.053760
    88  H    0.028372
    89  H    0.056655
    90  H    0.034245
    91  H    0.027542
    92  H    0.043740
    93  H    0.028552
    94  H    0.045148
    95  H    0.034881
    96  H    0.065289
    97  H    0.048794
    98  H    0.064812
    99  H    0.055398
   100  H    0.068216
   101  H    0.048845
   102  H    0.051363
   103  H    0.060370
   104  H    0.018964
   105  H    0.043464
   106  H    0.047778
   107  H    0.050626
   108  H    0.016189
   109  H    0.029886
   110  H    0.012211
   111  H    0.018280
   112  H    0.006014
   113  H    0.016980
   114  H    0.030568
   115  H    0.020848
   116  H    0.011521
   117  H    0.024074
   118  H    0.019245
   119  H    0.008028
   120  H    0.018085
   121  H    0.023375
   122  H   -0.002298
   123  H    0.017142
   124  H    0.012619
   125  H    0.027038
   126  H    0.004713
   127  H    0.027445
   128  H    0.018417
   129  H    0.022249
   130  H    0.030327
   131  H    0.023835
   132  H    0.012821
   133  H    0.015397
   134  H    0.027816
   135  H    0.031078
   136  H    0.039975
   137  H    0.015611
   138  H    0.016867
   139  H    0.017567
   140  H    0.032465
 Sum of Mulliken charges =  -0.00000

 Dipole moment (field-independent basis, Debye):
    X=             -5.0341    Y=              2.6931    Z=              2.6720  Tot=              6.3036
 Quadrupole moment (field-independent basis, Debye-Ang):
   XX=           -373.3381   YY=           -421.1016   ZZ=           -404.7281
   XY=             28.7433   XZ=              7.2656   YZ=             -9.5996

 Normal termination of Gaussian 16 at Thu May  5 11:54:51 2022.
