 Gaussian 16, Revision A.03,
 Gaussian 16:  ES64L-G16RevA.03 25-Dec-2016

 --------------------
 #p ZINDO=(nstates=5)
 --------------------

 -----------------------------
 step_801_chromophore_24 ZINDO
 -----------------------------
 Symbolic Z-matrix:
 Charge =  0 Multiplicity = 1

                         Standard orientation:
 ---------------------------------------------------------------------
 Center     Atomic      Atomic             Coordinates (Angstroms)
 Number     Number       Type             X           Y           Z
 ---------------------------------------------------------------------
      1         12           0        4.834402    1.085493    0.053951
      2          6           0        4.088603   -2.340954   -0.205942
      3          6           0        1.396199    1.750516   -0.245429
      4          6           0        5.589492    4.294113    0.100296
      5          6           0        8.149080    0.288708    0.027936
      6          7           0        3.028628   -0.145807   -0.317647
      7          6           0        2.954267   -1.522387   -0.317776
      8          6           0        1.536483   -1.956089   -0.150050
      9          6           0        0.685896   -0.679853   -0.451976
     10          6           0        1.757557    0.401052   -0.407753
     11          6           0       -0.068209   -0.703923   -1.772310
     12          6           0        1.306523   -2.442637    1.358752
     13          6           0        0.529658   -3.823594    1.445488
     14          6           0       -0.476606   -4.099664    0.305236
     15          8           0       -0.268730   -4.806074   -0.671793
     16          8           0       -1.629968   -3.295114    0.430751
     17          7           0        3.622656    2.790413   -0.007828
     18          6           0        2.239147    2.872328   -0.134949
     19          6           0        1.892535    4.305040   -0.073592
     20          6           0        3.067816    5.041584    0.069732
     21          6           0        4.182707    4.043431    0.065124
     22          6           0        0.447358    4.731539   -0.171027
     23          6           0        3.330624    6.585913    0.149851
     24          8           0        4.460865    7.117099    0.263525
     25          6           0        2.130830    7.462007    0.182724
     26          7           0        6.671948    2.137346    0.025283
     27          6           0        6.756427    3.429028   -0.018269
     28          6           0        8.167562    4.030889   -0.082301
     29          6           0        8.979629    2.670077    0.066549
     30          6           0        7.896633    1.607013    0.039421
     31          6           0        8.331199    4.776552   -1.515905
     32          6           0        9.857942    2.628467    1.336558
     33          6           0        9.273027    1.850107    2.591976
     34          7           0        5.888557   -0.594275   -0.133825
     35          6           0        7.237154   -0.737766   -0.137576
     36          6           0        7.555961   -2.190888   -0.152197
     37          6           0        6.365778   -2.861240   -0.115219
     38          6           0        5.399815   -1.835440   -0.147410
     39          6           0        8.955909   -2.813707   -0.131350
     40          6           0        5.736443   -4.134094   -0.088813
     41          8           0        6.258030   -5.254110   -0.169718
     42          6           0        4.239923   -3.808626   -0.032314
     43          6           0        3.576908   -4.608709   -1.094561
     44          8           0        3.474180   -4.214709   -2.244251
     45          8           0        3.365034   -5.895125   -0.688033
     46          6           0        2.620742   -6.833660   -1.549297
     47          6           0       -2.487604   -3.397244   -0.736958
     48          6           0       -3.816347   -2.672277   -0.400982
     49          6           0       -5.082498   -2.979392   -0.793228
     50          6           0       -5.448252   -4.199900   -1.552624
     51          6           0       -6.309083   -2.313749   -0.186443
     52          6           0       -6.882108   -3.019612    1.048290
     53          6           0       -6.865327   -2.151489    2.228631
     54          6           0       -8.303939   -1.698777    2.675855
     55          6           0       -8.835977   -2.660873    3.758606
     56          6           0       -8.171086   -0.267934    3.178242
     57          6           0       -9.159137    0.652364    2.537782
     58          6           0       -8.463726    1.417823    1.304574
     59          6           0       -9.278160    1.380970    0.074163
     60          6           0       -8.391389    1.319395   -1.152097
     61          6           0      -10.351819    2.584663    0.012112
     62          6           0      -11.814486    2.088968   -0.317615
     63          6           0      -12.480905    2.955817   -1.387952
     64          6           0      -13.989289    2.649715   -1.555034
     65          6           0      -14.246035    2.074510   -3.028500
     66          6           0      -14.822028    3.877979   -1.190136
     67          1           0        0.314464    1.885740   -0.293536
     68          1           0        5.877900    5.339895   -0.025178
     69          1           0        9.185253   -0.056138    0.012297
     70          1           0        1.232281   -2.726087   -0.859347
     71          1           0       -0.112309   -0.540151    0.276242
     72          1           0        0.168268    0.257551   -2.227217
     73          1           0       -1.136101   -0.903951   -1.693423
     74          1           0        0.348437   -1.408672   -2.492951
     75          1           0        0.766267   -1.682134    1.922687
     76          1           0        2.241195   -2.544724    1.911566
     77          1           0       -0.075410   -3.868537    2.351563
     78          1           0        1.259572   -4.633047    1.446941
     79          1           0        0.485956    5.504855   -0.937624
     80          1           0        0.191153    5.157425    0.800025
     81          1           0       -0.297346    3.965505   -0.389470
     82          1           0        2.316404    8.475258    0.540015
     83          1           0        1.379025    7.036676    0.847494
     84          1           0        1.732514    7.507590   -0.830650
     85          1           0        8.349350    4.726709    0.737366
     86          1           0        9.655084    2.501929   -0.771874
     87          1           0        7.637034    4.396725   -2.265519
     88          1           0        9.320072    4.565910   -1.922158
     89          1           0        8.316917    5.860259   -1.393332
     90          1           0       10.194968    3.601790    1.695200
     91          1           0       10.765058    2.080583    1.081334
     92          1           0        9.786719    2.054379    3.531545
     93          1           0        9.462279    0.839434    2.229177
     94          1           0        8.205611    1.994434    2.759778
     95          1           0        9.457938   -2.321613   -0.964090
     96          1           0        9.022249   -3.878224   -0.355490
     97          1           0        9.461067   -2.490560    0.779290
     98          1           0        3.886331   -4.122863    0.950036
     99          1           0        3.220312   -7.121985   -2.413178
    100          1           0        1.664252   -6.394317   -1.831214
    101          1           0        2.447676   -7.743553   -0.974144
    102          1           0       -2.728845   -4.455777   -0.830902
    103          1           0       -2.036204   -2.848679   -1.563987
    104          1           0       -3.734961   -1.824723    0.281561
    105          1           0       -6.405558   -4.298458   -2.064840
    106          1           0       -5.493934   -4.901708   -0.720863
    107          1           0       -4.623330   -4.471243   -2.211559
    108          1           0       -7.033247   -2.394828   -0.996943
    109          1           0       -6.063030   -1.271430    0.014715
    110          1           0       -6.184436   -3.841806    1.205454
    111          1           0       -7.843345   -3.505216    0.878139
    112          1           0       -6.155879   -1.352894    2.010357
    113          1           0       -6.383559   -2.794720    2.964155
    114          1           0       -9.013470   -1.900882    1.873137
    115          1           0       -8.220984   -3.505282    4.069626
    116          1           0       -9.705688   -3.266575    3.501941
    117          1           0       -9.200572   -2.161174    4.655044
    118          1           0       -7.166819    0.137886    3.054918
    119          1           0       -8.272391   -0.284254    4.263773
    120          1           0       -9.515737    1.452676    3.186340
    121          1           0      -10.056059    0.161890    2.159784
    122          1           0       -7.481684    0.976798    1.130599
    123          1           0       -8.183047    2.461031    1.454058
    124          1           0       -9.885778    0.476195    0.063863
    125          1           0       -7.328555    1.474128   -0.965713
    126          1           0       -8.686270    2.098903   -1.854674
    127          1           0       -8.507217    0.429194   -1.769916
    128          1           0      -10.114962    3.259768   -0.810030
    129          1           0      -10.420775    3.034137    1.002803
    130          1           0      -12.349015    2.121215    0.631077
    131          1           0      -11.675165    1.114990   -0.786742
    132          1           0      -11.939278    2.847968   -2.326860
    133          1           0      -12.261913    3.999606   -1.163159
    134          1           0      -14.364836    1.841197   -0.928097
    135          1           0      -13.958167    1.026611   -2.942974
    136          1           0      -13.841126    2.641336   -3.866397
    137          1           0      -15.308112    2.018204   -3.266386
    138          1           0      -15.278286    3.685138   -0.219572
    139          1           0      -15.712923    4.015746   -1.803278
    140          1           0      -14.316819    4.836994   -1.075622
 ---------------------------------------------------------------------

 SCF Done:  E(RZINDO/S) =  -474.467980045     A.U. after   19 cycles

 Excitation energies and oscillator strengths:

 Excited State   1:      Singlet-A      1.2848 eV  964.99 nm  f=0.5727  <S**2>=0.000
     175 ->178         0.19490
     176 ->177         0.66332
 This state for optimization and/or second-order correction.
 Total Energy, E(CIS/TDA) =  -474.420763853
 Copying the excited state density for this state as the 1-particle RhoCI density.

 Excited State   2:      Singlet-A      1.9373 eV  639.99 nm  f=0.0053  <S**2>=0.000
     175 ->177         0.49948
     176 ->178        -0.47974

 Excited State   3:      Singlet-A      2.8988 eV  427.71 nm  f=0.1065  <S**2>=0.000
     175 ->177        -0.13523
     176 ->178        -0.16266
     176 ->179         0.59411
     176 ->180        -0.24131

 Excited State   4:      Singlet-A      3.0057 eV  412.49 nm  f=0.0260  <S**2>=0.000
     167 ->179         0.13862
     167 ->180         0.12021
     168 ->177        -0.28553
     168 ->179         0.39043
     168 ->180         0.33429
     168 ->184        -0.13052
     168 ->186        -0.18824

 Excited State   5:      Singlet-A      3.0096 eV  411.96 nm  f=0.0518  <S**2>=0.000
     169 ->179         0.12422
     169 ->180        -0.13363
     170 ->177         0.25733
     170 ->178        -0.11029
     170 ->179         0.34343
     170 ->180        -0.31784
     170 ->186        -0.14103
     170 ->188         0.15081
     170 ->202        -0.11956
     176 ->179         0.11243

 The electronic state is 1-A.
 Alpha  occ. eigenvalues --   -1.87253  -1.83113  -1.79618  -1.73385  -1.71814
 Alpha  occ. eigenvalues --   -1.70328  -1.67538  -1.62059  -1.58369  -1.56698
 Alpha  occ. eigenvalues --   -1.56127  -1.51941  -1.49008  -1.47725  -1.46329
 Alpha  occ. eigenvalues --   -1.43989  -1.42256  -1.40161  -1.39745  -1.39303
 Alpha  occ. eigenvalues --   -1.37233  -1.34030  -1.33089  -1.32133  -1.28190
 Alpha  occ. eigenvalues --   -1.27918  -1.24614  -1.22638  -1.19879  -1.18068
 Alpha  occ. eigenvalues --   -1.17111  -1.16435  -1.14991  -1.14409  -1.13009
 Alpha  occ. eigenvalues --   -1.12342  -1.10654  -1.09823  -1.04792  -1.03940
 Alpha  occ. eigenvalues --   -1.03130  -1.01333  -0.99719  -0.98064  -0.97656
 Alpha  occ. eigenvalues --   -0.95455  -0.95369  -0.94734  -0.93615  -0.93256
 Alpha  occ. eigenvalues --   -0.90911  -0.89770  -0.89275  -0.87745  -0.87536
 Alpha  occ. eigenvalues --   -0.85035  -0.83721  -0.82897  -0.81836  -0.80534
 Alpha  occ. eigenvalues --   -0.80367  -0.78097  -0.77945  -0.76761  -0.76095
 Alpha  occ. eigenvalues --   -0.75464  -0.75370  -0.74779  -0.74670  -0.74062
 Alpha  occ. eigenvalues --   -0.72809  -0.72347  -0.71939  -0.71691  -0.70775
 Alpha  occ. eigenvalues --   -0.70045  -0.69337  -0.68940  -0.68596  -0.68238
 Alpha  occ. eigenvalues --   -0.67806  -0.67234  -0.67046  -0.65968  -0.65723
 Alpha  occ. eigenvalues --   -0.65166  -0.64736  -0.64103  -0.63543  -0.63249
 Alpha  occ. eigenvalues --   -0.63009  -0.62690  -0.62430  -0.62051  -0.61945
 Alpha  occ. eigenvalues --   -0.61318  -0.61039  -0.60624  -0.60393  -0.60076
 Alpha  occ. eigenvalues --   -0.59926  -0.59633  -0.59282  -0.58940  -0.58642
 Alpha  occ. eigenvalues --   -0.57971  -0.57734  -0.57461  -0.57350  -0.56711
 Alpha  occ. eigenvalues --   -0.56436  -0.56029  -0.55466  -0.55078  -0.54578
 Alpha  occ. eigenvalues --   -0.54025  -0.54017  -0.53102  -0.52950  -0.52795
 Alpha  occ. eigenvalues --   -0.52574  -0.52307  -0.51869  -0.51333  -0.51307
 Alpha  occ. eigenvalues --   -0.50676  -0.50638  -0.50449  -0.50353  -0.50176
 Alpha  occ. eigenvalues --   -0.49844  -0.49757  -0.49658  -0.49016  -0.48527
 Alpha  occ. eigenvalues --   -0.48380  -0.48228  -0.48008  -0.47963  -0.47634
 Alpha  occ. eigenvalues --   -0.47209  -0.47032  -0.46962  -0.46647  -0.46517
 Alpha  occ. eigenvalues --   -0.46290  -0.45867  -0.45832  -0.45088  -0.44780
 Alpha  occ. eigenvalues --   -0.44623  -0.44581  -0.44372  -0.44209  -0.43836
 Alpha  occ. eigenvalues --   -0.43579  -0.43036  -0.42768  -0.42429  -0.42272
 Alpha  occ. eigenvalues --   -0.41525  -0.41245  -0.40560  -0.39215  -0.38613
 Alpha  occ. eigenvalues --   -0.37497  -0.37005  -0.35881  -0.34994  -0.34647
 Alpha  occ. eigenvalues --   -0.33986  -0.32824  -0.31888  -0.31744  -0.26499
 Alpha  occ. eigenvalues --   -0.21212
 Alpha virt. eigenvalues --   -0.07693  -0.01959  -0.00494   0.00911   0.01233
 Alpha virt. eigenvalues --    0.02781   0.03060   0.03460   0.04480   0.04904
 Alpha virt. eigenvalues --    0.06440   0.06749   0.07504   0.08364   0.08568

 Mulliken charges:
               1
     1  Mg   0.423459
     2  C   -0.044919
     3  C   -0.084063
     4  C   -0.090847
     5  C   -0.051719
     6  N   -0.294279
     7  C    0.116932
     8  C    0.006858
     9  C    0.003013
    10  C    0.143722
    11  C   -0.054167
    12  C   -0.023086
    13  C    0.003529
    14  C    0.461710
    15  O   -0.506627
    16  O   -0.281343
    17  N   -0.330554
    18  C    0.112409
    19  C    0.026679
    20  C   -0.042077
    21  C    0.133810
    22  C   -0.044061
    23  C    0.331963
    24  O   -0.524087
    25  C   -0.025388
    26  N   -0.239694
    27  C    0.161048
    28  C   -0.004052
    29  C    0.006633
    30  C    0.105746
    31  C   -0.052700
    32  C   -0.031113
    33  C   -0.064995
    34  N   -0.299506
    35  C    0.070663
    36  C    0.022232
    37  C   -0.053364
    38  C    0.104155
    39  C   -0.044959
    40  C    0.343702
    41  O   -0.528528
    42  C    0.071793
    43  C    0.489101
    44  O   -0.523768
    45  O   -0.272772
    46  C    0.078287
    47  C    0.104326
    48  C   -0.114776
    49  C   -0.000022
    50  C   -0.045965
    51  C   -0.022912
    52  C   -0.025921
    53  C   -0.035158
    54  C   -0.000973
    55  C   -0.066561
    56  C   -0.019181
    57  C   -0.035244
    58  C   -0.036860
    59  C   -0.007754
    60  C   -0.058336
    61  C   -0.054358
    62  C   -0.045280
    63  C   -0.030035
    64  C   -0.006826
    65  C   -0.066139
    66  C   -0.058193
    67  H    0.024431
    68  H    0.040093
    69  H    0.021339
    70  H    0.049761
    71  H    0.028552
    72  H    0.017874
    73  H    0.026899
    74  H    0.025052
    75  H    0.024949
    76  H    0.026144
    77  H    0.035042
    78  H    0.040539
    79  H    0.030994
    80  H    0.030645
    81  H    0.033032
    82  H    0.037984
    83  H    0.030022
    84  H    0.042019
    85  H    0.045814
    86  H    0.029461
    87  H    0.033418
    88  H    0.013334
    89  H    0.030384
    90  H    0.018720
    91  H    0.012394
    92  H    0.020486
    93  H    0.022518
    94  H    0.025418
    95  H    0.019008
    96  H    0.042640
    97  H    0.031105
    98  H    0.051207
    99  H    0.047143
   100  H    0.050737
   101  H    0.030096
   102  H    0.058172
   103  H    0.060297
   104  H    0.024825
   105  H    0.029521
   106  H    0.030795
   107  H    0.021061
   108  H    0.014122
   109  H    0.023341
   110  H    0.010766
   111  H    0.021480
   112  H    0.023612
   113  H    0.015079
   114  H    0.033099
   115  H    0.019555
   116  H    0.007534
   117  H    0.015866
   118  H    0.020314
   119  H    0.011901
   120  H    0.013385
   121  H    0.024759
   122  H    0.010456
   123  H    0.018802
   124  H    0.017173
   125  H    0.019500
   126  H    0.008519
   127  H    0.015762
   128  H    0.028817
   129  H    0.022351
   130  H    0.027672
   131  H    0.024202
   132  H    0.015917
   133  H    0.015676
   134  H    0.024706
   135  H    0.018923
   136  H    0.029845
   137  H    0.007817
   138  H    0.007000
   139  H    0.015199
   140  H    0.024317
 Sum of Mulliken charges =  -0.00000

 Dipole moment (field-independent basis, Debye):
    X=             -7.3434    Y=              4.6280    Z=              3.8806  Tot=              9.5080
 N-N= 4.405599589255D+03 E-N= 0.000000000000D+00  KE=-9.485810895080D+03
 Leave Link  601 at Thu May  5 12:15:23 2022, MaxMem=  6710886400 cpu:               1.0 elap:               0.1
 (Enter /sw/apps/gaussian-16.0/g16/l9999.exe)
 1\1\GINC-BP1-COMPUTE196\SP\RZINDO CIS\STO-3G\C55H74Mg1N4O6\OF15641\05-
 May-2022\0\\#p ZINDO=(nstates=5)\\step_801_chromophore_24 ZINDO\\0,1\M
 g,0,-0.691,44.019,24.875\C,0,1.75,43.249,27.286\C,0,-3.148,43.251,27.2
 68\C,0,-2.947,44.556,22.532\C,0,1.805,44.433,22.59\N,0,-0.666,43.223,2
 6.944\C,0,0.44,43.052,27.749\C,0,0.019,42.939,29.176\C,0,-1.517,42.654
 ,29.122\C,0,-1.825,42.994,27.67\C,0,-1.924,41.236,29.491\C,0,0.309,44.
 325,29.925\C,0,1.031,44.126,31.324\C,0,0.696,42.815,32.071\O,0,1.392,4

 Normal termination of Gaussian 16 at Thu May  5 12:15:24 2022.
