 Gaussian 16, Revision A.03,
 Gaussian 16:  ES64L-G16RevA.03 25-Dec-2016

 ------------------------------
 #p blyp/Def2SVP td=(nstates=5)
 ------------------------------

 -------------------------------------------------
 step_51_chromophore_10 TDDFT with blyp functional
 -------------------------------------------------
 Symbolic Z-matrix:
 Charge =  0 Multiplicity = 1

                         Standard orientation:
 ---------------------------------------------------------------------
 Center     Atomic      Atomic             Coordinates (Angstroms)
 Number     Number       Type             X           Y           Z
 ---------------------------------------------------------------------
      1         12           0        5.945784    0.423976    0.015903
      2          6           0        3.464131   -1.989116    0.048778
      3          6           0        3.783211    2.782221   -0.903385
      4          6           0        8.478278    2.729172    0.268097
      5          6           0        8.251079   -2.101902    0.448901
      6          7           0        3.858171    0.411145   -0.357548
      7          6           0        2.985728   -0.693076   -0.163494
      8          6           0        1.657255   -0.297939   -0.669869
      9          6           0        1.765880    1.232841   -0.992273
     10          6           0        3.269638    1.494405   -0.801444
     11          6           0        1.047404    1.720288   -2.316397
     12          6           0        0.484678   -0.644814    0.224039
     13          6           0       -0.846394   -0.033314   -0.057867
     14          6           0       -1.850077   -1.026947   -0.515159
     15          8           0       -2.032806   -1.295426   -1.714860
     16          8           0       -2.483632   -1.561793    0.541777
     17          7           0        6.091752    2.452436   -0.266540
     18          6           0        5.070228    3.286101   -0.633255
     19          6           0        5.476390    4.661988   -0.768723
     20          6           0        6.843499    4.692662   -0.361453
     21          6           0        7.223867    3.287636   -0.067477
     22          6           0        4.538862    5.777775   -1.203590
     23          6           0        7.851089    5.824591   -0.215635
     24          8           0        9.032416    5.609532    0.011984
     25          6           0        7.276628    7.267614   -0.323457
     26          7           0        8.139953    0.244536    0.069461
     27          6           0        8.857227    1.384503    0.312818
     28          6           0       10.337257    0.954654    0.596833
     29          6           0       10.171515   -0.617756    0.870814
     30          6           0        8.768166   -0.861595    0.412325
     31          6           0       11.278637    1.281975   -0.520296
     32          6           0       10.499022   -1.088960    2.343061
     33          6           0        9.408352   -1.017302    3.413138
     34          7           0        5.889522   -1.599030    0.278627
     35          6           0        6.885233   -2.508404    0.359239
     36          6           0        6.307328   -3.871375    0.377149
     37          6           0        4.941300   -3.682798    0.412297
     38          6           0        4.734431   -2.316403    0.256533
     39          6           0        7.131437   -5.089830    0.400599
     40          6           0        3.718882   -4.393511    0.353820
     41          8           0        3.428586   -5.538465    0.252302
     42          6           0        2.700775   -3.281694    0.163127
     43          6           0        1.945209   -3.597925   -1.105547
     44          8           0        2.529268   -3.658142   -2.131318
     45          8           0        0.698259   -4.063579   -0.891023
     46          6           0       -0.133948   -4.402674   -2.070292
     47          6           0       -3.326611   -2.705931    0.237444
     48          6           0       -4.766966   -2.299995    0.341873
     49          6           0       -5.872593   -3.026715    0.366243
     50          6           0       -5.893400   -4.493656    0.035078
     51          6           0       -7.265204   -2.325073    0.637474
     52          6           0       -7.863207   -1.647002   -0.608640
     53          6           0       -7.638782   -0.163517   -0.695638
     54          6           0       -8.904525    0.725359   -0.476215
     55          6           0       -9.624984    1.004767   -1.902362
     56          6           0       -8.659862    2.036897    0.340665
     57          6           0       -9.467082    1.988869    1.722350
     58          6           0      -10.729718    2.901884    1.740869
     59          6           0      -11.981858    2.293777    2.310697
     60          6           0      -11.860450    2.098313    3.839626
     61          6           0      -12.455342    0.988093    1.563654
     62          6           0      -13.972658    0.846261    1.306536
     63          6           0      -14.361808    1.449198   -0.031128
     64          6           0      -15.576061    0.887655   -0.824062
     65          6           0      -15.329647   -0.241447   -1.835047
     66          6           0      -16.488745    1.992315   -1.402950
     67          1           0        3.016753    3.508159   -1.184517
     68          1           0        9.335282    3.404460    0.328265
     69          1           0        8.981850   -2.856660    0.749572
     70          1           0        1.514923   -0.868445   -1.586525
     71          1           0        1.451892    1.812796   -0.124439
     72          1           0        1.674245    2.149148   -3.097890
     73          1           0        0.373602    2.505060   -1.972352
     74          1           0        0.504166    0.882583   -2.753409
     75          1           0        0.690469   -0.265072    1.224886
     76          1           0        0.339410   -1.716285    0.363761
     77          1           0       -0.778665    0.886010   -0.640349
     78          1           0       -1.142371    0.317886    0.930657
     79          1           0        3.708147    5.386987   -1.791963
     80          1           0        5.097365    6.444445   -1.861850
     81          1           0        4.207279    6.492127   -0.449917
     82          1           0        6.355020    7.451739    0.229131
     83          1           0        7.124207    7.490281   -1.379573
     84          1           0        8.001943    8.044776   -0.085220
     85          1           0       10.729816    1.394319    1.513917
     86          1           0       10.759286   -1.201779    0.161460
     87          1           0       10.800815    1.366979   -1.495777
     88          1           0       12.083907    0.557494   -0.647473
     89          1           0       11.749373    2.237847   -0.291124
     90          1           0       11.381280   -0.550756    2.687151
     91          1           0       10.731060   -2.154230    2.354323
     92          1           0        8.618293   -0.300045    3.187256
     93          1           0        9.894261   -0.678425    4.327908
     94          1           0        8.946587   -1.996141    3.546229
     95          1           0        7.529922   -5.182285   -0.610068
     96          1           0        6.459523   -5.939118    0.528152
     97          1           0        7.935296   -5.157194    1.132261
     98          1           0        1.980012   -3.296080    0.980558
     99          1           0        0.207688   -3.894663   -2.972994
    100          1           0       -1.112448   -3.929395   -2.001814
    101          1           0       -0.092605   -5.487029   -2.177440
    102          1           0       -3.149715   -3.380076    1.075123
    103          1           0       -3.228422   -3.192532   -0.732752
    104          1           0       -4.978662   -1.271705    0.635295
    105          1           0       -4.898810   -4.918754    0.174380
    106          1           0       -6.305074   -4.605354   -0.967488
    107          1           0       -6.493842   -5.052560    0.752301
    108          1           0       -7.190771   -1.557317    1.407271
    109          1           0       -8.001182   -3.116055    0.781917
    110          1           0       -8.950968   -1.709691   -0.582072
    111          1           0       -7.398775   -2.111945   -1.478591
    112          1           0       -7.234780    0.018176   -1.691678
    113          1           0       -6.838946    0.046830    0.014068
    114          1           0       -9.638519    0.080088    0.005361
    115          1           0      -10.203133    1.897121   -1.661078
    116          1           0      -10.395099    0.235135   -1.851987
    117          1           0       -8.868289    0.975798   -2.686533
    118          1           0       -8.849626    2.972670   -0.185640
    119          1           0       -7.617266    1.944853    0.644297
    120          1           0       -8.796639    2.440974    2.453125
    121          1           0       -9.603719    0.988838    2.134447
    122          1           0      -10.990615    3.173615    0.717491
    123          1           0      -10.544006    3.846145    2.251042
    124          1           0      -12.812965    2.948324    2.050514
    125          1           0      -12.634465    2.620951    4.401591
    126          1           0      -10.946416    2.580879    4.186304
    127          1           0      -11.815175    1.013332    3.938239
    128          1           0      -12.206687    0.078838    2.110124
    129          1           0      -11.951987    0.905495    0.600978
    130          1           0      -14.490035    1.426379    2.070739
    131          1           0      -14.247657   -0.203295    1.412874
    132          1           0      -13.478189    1.336100   -0.659859
    133          1           0      -14.422845    2.482436    0.311753
    134          1           0      -16.123850    0.416947   -0.008680
    135          1           0      -14.298819   -0.565653   -1.971811
    136          1           0      -15.749169   -0.044934   -2.821513
    137          1           0      -15.909154   -1.064156   -1.414292
    138          1           0      -17.494377    2.004098   -0.984481
    139          1           0      -16.510365    1.892485   -2.488255
    140          1           0      -16.066633    2.992819   -1.303568
 ---------------------------------------------------------------------

 SCF Done:  E(RB-LYP) =  -3007.35645146     A.U. after   20 cycles

 Excitation energies and oscillator strengths:

 Excited State   1:      Singlet-A      1.8080 eV  685.75 nm  f=0.3165  <S**2>=0.000
     245 -> 248        0.19888
     246 -> 247        0.68909
     246 <- 247       -0.15194
 This state for optimization and/or second-order correction.
 Total Energy, E(TD-HF/TD-DFT) =  -3007.29000791
 Copying the excited state density for this state as the 1-particle RhoCI density.

 Excited State   2:      Singlet-A      2.0149 eV  615.35 nm  f=0.0529  <S**2>=0.000
     245 -> 247        0.63898
     246 -> 248       -0.26149

 Excited State   3:      Singlet-A      2.1335 eV  581.13 nm  f=0.0021  <S**2>=0.000
     244 -> 247        0.69957

 Excited State   4:      Singlet-A      2.1989 eV  563.84 nm  f=0.0020  <S**2>=0.000
     243 -> 247        0.70290

 Excited State   5:      Singlet-A      2.5358 eV  488.94 nm  f=0.0000  <S**2>=0.000
     241 -> 247        0.70681

 The electronic state is 1-A.
 Alpha  occ. eigenvalues --  -46.25927 -18.83912 -18.81866 -18.77001 -18.76242
 Alpha  occ. eigenvalues --  -18.75846 -18.75735 -14.02872 -14.02222 -14.00934
 Alpha  occ. eigenvalues --  -14.00601 -10.04473 -10.03022 -10.00605  -9.98912
 Alpha  occ. eigenvalues --   -9.98753  -9.97365  -9.96233  -9.96088  -9.96042
 Alpha  occ. eigenvalues --   -9.95978  -9.95379  -9.95321  -9.94975  -9.94240
 Alpha  occ. eigenvalues --   -9.94074  -9.93519  -9.93453  -9.93444  -9.93210
 Alpha  occ. eigenvalues --   -9.93082  -9.93074  -9.92889  -9.92888  -9.92836
 Alpha  occ. eigenvalues --   -9.92830  -9.92805  -9.92759  -9.92691  -9.92601
 Alpha  occ. eigenvalues --   -9.92490  -9.92346  -9.92314  -9.92227  -9.91978
 Alpha  occ. eigenvalues --   -9.91941  -9.91928  -9.91873  -9.91630  -9.91611
 Alpha  occ. eigenvalues --   -9.91503  -9.91495  -9.91445  -9.91358  -9.91321
 Alpha  occ. eigenvalues --   -9.91109  -9.91049  -9.90976  -9.90949  -9.90918
 Alpha  occ. eigenvalues --   -9.90885  -9.90800  -9.90615  -9.90606  -9.90580
 Alpha  occ. eigenvalues --   -9.90381  -2.90718  -1.71159  -1.70562  -1.70459
 Alpha  occ. eigenvalues --   -0.99618  -0.98456  -0.93468  -0.91968  -0.90623
 Alpha  occ. eigenvalues --   -0.90050  -0.87040  -0.86077  -0.85766  -0.84095
 Alpha  occ. eigenvalues --   -0.77028  -0.74444  -0.73666  -0.73115  -0.71990
 Alpha  occ. eigenvalues --   -0.71810  -0.71233  -0.71066  -0.70989  -0.70256
 Alpha  occ. eigenvalues --   -0.69906  -0.69548  -0.68180  -0.67553  -0.67313
 Alpha  occ. eigenvalues --   -0.66885  -0.66084  -0.65615  -0.65169  -0.64558
 Alpha  occ. eigenvalues --   -0.63971  -0.63139  -0.62530  -0.62116  -0.60897
 Alpha  occ. eigenvalues --   -0.60494  -0.60086  -0.59787  -0.59476  -0.59118
 Alpha  occ. eigenvalues --   -0.58954  -0.57568  -0.57029  -0.56071  -0.54635
 Alpha  occ. eigenvalues --   -0.54466  -0.54153  -0.52903  -0.52169  -0.51814
 Alpha  occ. eigenvalues --   -0.51454  -0.50980  -0.50723  -0.50257  -0.50115
 Alpha  occ. eigenvalues --   -0.49219  -0.48996  -0.48483  -0.47759  -0.46528
 Alpha  occ. eigenvalues --   -0.46396  -0.46368  -0.45985  -0.45822  -0.44707
 Alpha  occ. eigenvalues --   -0.44422  -0.43784  -0.42991  -0.42850  -0.42608
 Alpha  occ. eigenvalues --   -0.42362  -0.41847  -0.41689  -0.41563  -0.41142
 Alpha  occ. eigenvalues --   -0.40979  -0.40843  -0.40476  -0.40177  -0.39950
 Alpha  occ. eigenvalues --   -0.39847  -0.39820  -0.39663  -0.39255  -0.39172
 Alpha  occ. eigenvalues --   -0.39101  -0.38897  -0.38718  -0.38533  -0.38327
 Alpha  occ. eigenvalues --   -0.37956  -0.37704  -0.37576  -0.37492  -0.37277
 Alpha  occ. eigenvalues --   -0.37121  -0.36916  -0.36815  -0.36716  -0.36582
 Alpha  occ. eigenvalues --   -0.36553  -0.36490  -0.36218  -0.35879  -0.35531
 Alpha  occ. eigenvalues --   -0.35347  -0.35281  -0.35225  -0.34953  -0.34759
 Alpha  occ. eigenvalues --   -0.34694  -0.34523  -0.34309  -0.34126  -0.34075
 Alpha  occ. eigenvalues --   -0.33910  -0.33765  -0.33636  -0.33499  -0.33383
 Alpha  occ. eigenvalues --   -0.33184  -0.32561  -0.32470  -0.32420  -0.32308
 Alpha  occ. eigenvalues --   -0.32256  -0.32042  -0.32018  -0.31971  -0.31800
 Alpha  occ. eigenvalues --   -0.31562  -0.31467  -0.31213  -0.31118  -0.30949
 Alpha  occ. eigenvalues --   -0.30928  -0.30558  -0.29842  -0.29761  -0.29438
 Alpha  occ. eigenvalues --   -0.29361  -0.29224  -0.29109  -0.29026  -0.28836
 Alpha  occ. eigenvalues --   -0.28736  -0.28342  -0.28325  -0.27985  -0.27714
 Alpha  occ. eigenvalues --   -0.27229  -0.26831  -0.26758  -0.26652  -0.26278
 Alpha  occ. eigenvalues --   -0.26194  -0.25888  -0.25580  -0.25277  -0.25072
 Alpha  occ. eigenvalues --   -0.24908  -0.24661  -0.24541  -0.24040  -0.23833
 Alpha  occ. eigenvalues --   -0.22926  -0.22226  -0.21741  -0.21389  -0.21120
 Alpha  occ. eigenvalues --   -0.20618  -0.20485  -0.19277  -0.19022  -0.17193
 Alpha  occ. eigenvalues --   -0.15543
 Alpha virt. eigenvalues --   -0.11299  -0.06962  -0.06314  -0.04176  -0.03175
 Alpha virt. eigenvalues --   -0.01502  -0.01375  -0.00857  -0.00707   0.00401
 Alpha virt. eigenvalues --    0.01380   0.02057   0.02211   0.02270   0.02688

 Mulliken charges:
               1
     1  Mg   0.686463
     2  C   -0.003254
     3  C   -0.080976
     4  C   -0.033356
     5  C   -0.069402
     6  N   -0.237163
     7  C   -0.069193
     8  C    0.047664
     9  C   -0.019192
    10  C    0.002209
    11  C    0.136847
    12  C    0.063126
    13  C    0.205931
    14  C    0.065914
    15  O   -0.222951
    16  O   -0.242032
    17  N   -0.317603
    18  C    0.171461
    19  C   -0.125228
    20  C    0.027990
    21  C    0.101469
    22  C    0.167138
    23  C   -0.048477
    24  O   -0.150465
    25  C    0.099802
    26  N   -0.178219
    27  C    0.019948
    28  C    0.007967
    29  C    0.059269
    30  C   -0.018898
    31  C    0.133000
    32  C    0.060840
    33  C    0.070982
    34  N   -0.249924
    35  C    0.109555
    36  C   -0.182900
    37  C    0.078142
    38  C    0.142847
    39  C    0.180289
    40  C   -0.064117
    41  O   -0.085366
    42  C    0.067745
    43  C    0.055820
    44  O   -0.147715
    45  O   -0.261235
    46  C    0.199527
    47  C    0.348026
    48  C   -0.125379
    49  C   -0.192384
    50  C    0.142400
    51  C    0.145991
    52  C    0.070940
    53  C    0.096853
    54  C   -0.129724
    55  C    0.110548
    56  C    0.137817
    57  C    0.050063
    58  C    0.100134
    59  C   -0.071616
    60  C    0.137520
    61  C    0.064203
    62  C    0.065569
    63  C    0.073797
    64  C   -0.061183
    65  C    0.114420
    66  C    0.098833
    67  H   -0.077641
    68  H   -0.037668
    69  H   -0.075667
    70  H   -0.003511
    71  H   -0.021418
    72  H   -0.003049
    73  H   -0.001854
    74  H    0.014658
    75  H   -0.044657
    76  H   -0.001579
    77  H   -0.024000
    78  H   -0.034856
    79  H   -0.002295
    80  H   -0.019583
    81  H    0.007028
    82  H    0.013516
    83  H    0.007224
    84  H   -0.016553
    85  H   -0.030874
    86  H   -0.032996
    87  H   -0.006618
    88  H   -0.015839
    89  H   -0.002717
    90  H   -0.017258
    91  H   -0.023493
    92  H   -0.001438
    93  H   -0.010252
    94  H   -0.002606
    95  H   -0.000072
    96  H   -0.003930
    97  H    0.005587
    98  H   -0.014677
    99  H    0.013251
   100  H    0.020693
   101  H    0.033671
   102  H    0.010181
   103  H    0.026677
   104  H   -0.033098
   105  H   -0.016664
   106  H    0.013646
   107  H   -0.010462
   108  H   -0.017286
   109  H   -0.041523
   110  H   -0.037028
   111  H   -0.029952
   112  H   -0.037389
   113  H   -0.041348
   114  H   -0.020869
   115  H   -0.018679
   116  H   -0.018462
   117  H    0.011287
   118  H   -0.021798
   119  H   -0.042965
   120  H   -0.041267
   121  H   -0.022166
   122  H   -0.038797
   123  H   -0.033321
   124  H   -0.050653
   125  H   -0.012323
   126  H   -0.025376
   127  H   -0.013342
   128  H   -0.041319
   129  H   -0.032702
   130  H   -0.033572
   131  H   -0.038577
   132  H   -0.040786
   133  H   -0.032585
   134  H   -0.036668
   135  H   -0.013655
   136  H   -0.015830
   137  H   -0.014833
   138  H   -0.005210
   139  H   -0.026068
   140  H   -0.024852
 Sum of Mulliken charges =  -0.00000

 Dipole moment (field-independent basis, Debye):
    X=             -2.8701    Y=              2.3217    Z=              2.0385  Tot=              4.2170
 Quadrupole moment (field-independent basis, Debye-Ang):
   XX=           -391.9583   YY=           -409.8466   ZZ=           -409.4399
   XY=             -1.0107   XZ=              4.3272   YZ=             -6.5987

 Normal termination of Gaussian 16 at Thu May  5 03:13:04 2022.
