 Gaussian 16, Revision A.03,
 Gaussian 16:  ES64L-G16RevA.03 25-Dec-2016

 -----------------------------------
 #p cam-b3lyp/Def2SVP td=(nstates=5)
 -----------------------------------

 ------------------------------------------------------
 step_51_chromophore_10 TDDFT with cam-b3lyp functional
 ------------------------------------------------------
 Symbolic Z-matrix:
 Charge =  0 Multiplicity = 1

                         Standard orientation:
 ---------------------------------------------------------------------
 Center     Atomic      Atomic             Coordinates (Angstroms)
 Number     Number       Type             X           Y           Z
 ---------------------------------------------------------------------
      1         12           0        5.945784    0.423976    0.015903
      2          6           0        3.464131   -1.989116    0.048778
      3          6           0        3.783211    2.782221   -0.903385
      4          6           0        8.478278    2.729172    0.268097
      5          6           0        8.251079   -2.101902    0.448901
      6          7           0        3.858171    0.411145   -0.357548
      7          6           0        2.985728   -0.693076   -0.163494
      8          6           0        1.657255   -0.297939   -0.669869
      9          6           0        1.765880    1.232841   -0.992273
     10          6           0        3.269638    1.494405   -0.801444
     11          6           0        1.047404    1.720288   -2.316397
     12          6           0        0.484678   -0.644814    0.224039
     13          6           0       -0.846394   -0.033314   -0.057867
     14          6           0       -1.850077   -1.026947   -0.515159
     15          8           0       -2.032806   -1.295426   -1.714860
     16          8           0       -2.483632   -1.561793    0.541777
     17          7           0        6.091752    2.452436   -0.266540
     18          6           0        5.070228    3.286101   -0.633255
     19          6           0        5.476390    4.661988   -0.768723
     20          6           0        6.843499    4.692662   -0.361453
     21          6           0        7.223867    3.287636   -0.067477
     22          6           0        4.538862    5.777775   -1.203590
     23          6           0        7.851089    5.824591   -0.215635
     24          8           0        9.032416    5.609532    0.011984
     25          6           0        7.276628    7.267614   -0.323457
     26          7           0        8.139953    0.244536    0.069461
     27          6           0        8.857227    1.384503    0.312818
     28          6           0       10.337257    0.954654    0.596833
     29          6           0       10.171515   -0.617756    0.870814
     30          6           0        8.768166   -0.861595    0.412325
     31          6           0       11.278637    1.281975   -0.520296
     32          6           0       10.499022   -1.088960    2.343061
     33          6           0        9.408352   -1.017302    3.413138
     34          7           0        5.889522   -1.599030    0.278627
     35          6           0        6.885233   -2.508404    0.359239
     36          6           0        6.307328   -3.871375    0.377149
     37          6           0        4.941300   -3.682798    0.412297
     38          6           0        4.734431   -2.316403    0.256533
     39          6           0        7.131437   -5.089830    0.400599
     40          6           0        3.718882   -4.393511    0.353820
     41          8           0        3.428586   -5.538465    0.252302
     42          6           0        2.700775   -3.281694    0.163127
     43          6           0        1.945209   -3.597925   -1.105547
     44          8           0        2.529268   -3.658142   -2.131318
     45          8           0        0.698259   -4.063579   -0.891023
     46          6           0       -0.133948   -4.402674   -2.070292
     47          6           0       -3.326611   -2.705931    0.237444
     48          6           0       -4.766966   -2.299995    0.341873
     49          6           0       -5.872593   -3.026715    0.366243
     50          6           0       -5.893400   -4.493656    0.035078
     51          6           0       -7.265204   -2.325073    0.637474
     52          6           0       -7.863207   -1.647002   -0.608640
     53          6           0       -7.638782   -0.163517   -0.695638
     54          6           0       -8.904525    0.725359   -0.476215
     55          6           0       -9.624984    1.004767   -1.902362
     56          6           0       -8.659862    2.036897    0.340665
     57          6           0       -9.467082    1.988869    1.722350
     58          6           0      -10.729718    2.901884    1.740869
     59          6           0      -11.981858    2.293777    2.310697
     60          6           0      -11.860450    2.098313    3.839626
     61          6           0      -12.455342    0.988093    1.563654
     62          6           0      -13.972658    0.846261    1.306536
     63          6           0      -14.361808    1.449198   -0.031128
     64          6           0      -15.576061    0.887655   -0.824062
     65          6           0      -15.329647   -0.241447   -1.835047
     66          6           0      -16.488745    1.992315   -1.402950
     67          1           0        3.016753    3.508159   -1.184517
     68          1           0        9.335282    3.404460    0.328265
     69          1           0        8.981850   -2.856660    0.749572
     70          1           0        1.514923   -0.868445   -1.586525
     71          1           0        1.451892    1.812796   -0.124439
     72          1           0        1.674245    2.149148   -3.097890
     73          1           0        0.373602    2.505060   -1.972352
     74          1           0        0.504166    0.882583   -2.753409
     75          1           0        0.690469   -0.265072    1.224886
     76          1           0        0.339410   -1.716285    0.363761
     77          1           0       -0.778665    0.886010   -0.640349
     78          1           0       -1.142371    0.317886    0.930657
     79          1           0        3.708147    5.386987   -1.791963
     80          1           0        5.097365    6.444445   -1.861850
     81          1           0        4.207279    6.492127   -0.449917
     82          1           0        6.355020    7.451739    0.229131
     83          1           0        7.124207    7.490281   -1.379573
     84          1           0        8.001943    8.044776   -0.085220
     85          1           0       10.729816    1.394319    1.513917
     86          1           0       10.759286   -1.201779    0.161460
     87          1           0       10.800815    1.366979   -1.495777
     88          1           0       12.083907    0.557494   -0.647473
     89          1           0       11.749373    2.237847   -0.291124
     90          1           0       11.381280   -0.550756    2.687151
     91          1           0       10.731060   -2.154230    2.354323
     92          1           0        8.618293   -0.300045    3.187256
     93          1           0        9.894261   -0.678425    4.327908
     94          1           0        8.946587   -1.996141    3.546229
     95          1           0        7.529922   -5.182285   -0.610068
     96          1           0        6.459523   -5.939118    0.528152
     97          1           0        7.935296   -5.157194    1.132261
     98          1           0        1.980012   -3.296080    0.980558
     99          1           0        0.207688   -3.894663   -2.972994
    100          1           0       -1.112448   -3.929395   -2.001814
    101          1           0       -0.092605   -5.487029   -2.177440
    102          1           0       -3.149715   -3.380076    1.075123
    103          1           0       -3.228422   -3.192532   -0.732752
    104          1           0       -4.978662   -1.271705    0.635295
    105          1           0       -4.898810   -4.918754    0.174380
    106          1           0       -6.305074   -4.605354   -0.967488
    107          1           0       -6.493842   -5.052560    0.752301
    108          1           0       -7.190771   -1.557317    1.407271
    109          1           0       -8.001182   -3.116055    0.781917
    110          1           0       -8.950968   -1.709691   -0.582072
    111          1           0       -7.398775   -2.111945   -1.478591
    112          1           0       -7.234780    0.018176   -1.691678
    113          1           0       -6.838946    0.046830    0.014068
    114          1           0       -9.638519    0.080088    0.005361
    115          1           0      -10.203133    1.897121   -1.661078
    116          1           0      -10.395099    0.235135   -1.851987
    117          1           0       -8.868289    0.975798   -2.686533
    118          1           0       -8.849626    2.972670   -0.185640
    119          1           0       -7.617266    1.944853    0.644297
    120          1           0       -8.796639    2.440974    2.453125
    121          1           0       -9.603719    0.988838    2.134447
    122          1           0      -10.990615    3.173615    0.717491
    123          1           0      -10.544006    3.846145    2.251042
    124          1           0      -12.812965    2.948324    2.050514
    125          1           0      -12.634465    2.620951    4.401591
    126          1           0      -10.946416    2.580879    4.186304
    127          1           0      -11.815175    1.013332    3.938239
    128          1           0      -12.206687    0.078838    2.110124
    129          1           0      -11.951987    0.905495    0.600978
    130          1           0      -14.490035    1.426379    2.070739
    131          1           0      -14.247657   -0.203295    1.412874
    132          1           0      -13.478189    1.336100   -0.659859
    133          1           0      -14.422845    2.482436    0.311753
    134          1           0      -16.123850    0.416947   -0.008680
    135          1           0      -14.298819   -0.565653   -1.971811
    136          1           0      -15.749169   -0.044934   -2.821513
    137          1           0      -15.909154   -1.064156   -1.414292
    138          1           0      -17.494377    2.004098   -0.984481
    139          1           0      -16.510365    1.892485   -2.488255
    140          1           0      -16.066633    2.992819   -1.303568
 ---------------------------------------------------------------------

 SCF Done:  E(RCAM-B3LYP) =  -3007.17001830     A.U. after   17 cycles

 Excitation energies and oscillator strengths:

 Excited State   1:      Singlet-A      1.7129 eV  723.83 nm  f=0.3970  <S**2>=0.000
     245 -> 248       -0.18430
     246 -> 247        0.68409
     245 <- 248       -0.10699
 This state for optimization and/or second-order correction.
 Total Energy, E(TD-HF/TD-DFT) =  -3007.10707046
 Copying the excited state density for this state as the 1-particle RhoCI density.

 Excited State   2:      Singlet-A      2.2573 eV  549.25 nm  f=0.0707  <S**2>=0.000
     245 -> 247        0.62270
     246 -> 248        0.32327

 Excited State   3:      Singlet-A      3.4157 eV  362.99 nm  f=0.5277  <S**2>=0.000
     242 -> 247       -0.23145
     244 -> 247        0.19420
     245 -> 247       -0.27631
     246 -> 248        0.57293
     245 <- 247        0.10262

 Excited State   4:      Singlet-A      3.5304 eV  351.19 nm  f=0.1102  <S**2>=0.000
     244 -> 247        0.64594
     245 -> 247        0.12032
     246 -> 248       -0.19621

 Excited State   5:      Singlet-A      3.7272 eV  332.65 nm  f=0.0662  <S**2>=0.000
     240 -> 247        0.19420
     241 -> 247        0.38751
     241 -> 248        0.10143
     241 -> 249       -0.26053
     241 -> 250        0.19437
     242 -> 247        0.36322

 The electronic state is 1-A.
 Alpha  occ. eigenvalues --  -46.87368 -19.26875 -19.24759 -19.19970 -19.19621
 Alpha  occ. eigenvalues --  -19.18944 -19.18892 -14.41815 -14.40860 -14.39433
 Alpha  occ. eigenvalues --  -14.38988 -10.39779 -10.38272 -10.36007 -10.34073
 Alpha  occ. eigenvalues --  -10.32808 -10.31381 -10.30597 -10.30588 -10.30579
 Alpha  occ. eigenvalues --  -10.30441 -10.29760 -10.29510 -10.29116 -10.29044
 Alpha  occ. eigenvalues --  -10.28094 -10.27615 -10.27513 -10.27509 -10.27501
 Alpha  occ. eigenvalues --  -10.27429 -10.27070 -10.27009 -10.26961 -10.26820
 Alpha  occ. eigenvalues --  -10.26775 -10.26756 -10.26715 -10.26605 -10.26567
 Alpha  occ. eigenvalues --  -10.26540 -10.26244 -10.26143 -10.26000 -10.25831
 Alpha  occ. eigenvalues --  -10.25774 -10.25679 -10.25513 -10.25443 -10.25342
 Alpha  occ. eigenvalues --  -10.25277 -10.25248 -10.25174 -10.24982 -10.24915
 Alpha  occ. eigenvalues --  -10.24787 -10.24696 -10.24652 -10.24648 -10.24545
 Alpha  occ. eigenvalues --  -10.24526 -10.24404 -10.24385 -10.24289 -10.24245
 Alpha  occ. eigenvalues --  -10.24195  -3.16072  -1.90988  -1.90491  -1.90415
 Alpha  occ. eigenvalues --   -1.18103  -1.17052  -1.11956  -1.10521  -1.08552
 Alpha  occ. eigenvalues --   -1.07975  -1.04738  -1.03721  -1.03336  -1.01655
 Alpha  occ. eigenvalues --   -0.94200  -0.91338  -0.90552  -0.89961  -0.88669
 Alpha  occ. eigenvalues --   -0.88493  -0.87795  -0.87632  -0.87577  -0.86942
 Alpha  occ. eigenvalues --   -0.86445  -0.85891  -0.84461  -0.83775  -0.83393
 Alpha  occ. eigenvalues --   -0.83000  -0.82049  -0.81511  -0.81178  -0.80521
 Alpha  occ. eigenvalues --   -0.79779  -0.78837  -0.78327  -0.77620  -0.76292
 Alpha  occ. eigenvalues --   -0.75824  -0.75434  -0.75048  -0.74787  -0.74393
 Alpha  occ. eigenvalues --   -0.74093  -0.72577  -0.71946  -0.70916  -0.69316
 Alpha  occ. eigenvalues --   -0.69143  -0.68742  -0.67378  -0.66444  -0.66091
 Alpha  occ. eigenvalues --   -0.65592  -0.65062  -0.64744  -0.64262  -0.64003
 Alpha  occ. eigenvalues --   -0.63182  -0.62961  -0.62161  -0.61538  -0.60200
 Alpha  occ. eigenvalues --   -0.60026  -0.59980  -0.59608  -0.59336  -0.58381
 Alpha  occ. eigenvalues --   -0.57706  -0.57200  -0.56198  -0.56098  -0.55850
 Alpha  occ. eigenvalues --   -0.55413  -0.54904  -0.54667  -0.54534  -0.54149
 Alpha  occ. eigenvalues --   -0.53674  -0.53538  -0.53230  -0.53085  -0.52820
 Alpha  occ. eigenvalues --   -0.52574  -0.52501  -0.52346  -0.52064  -0.52006
 Alpha  occ. eigenvalues --   -0.51723  -0.51549  -0.51225  -0.50931  -0.50727
 Alpha  occ. eigenvalues --   -0.50379  -0.50201  -0.50064  -0.49949  -0.49741
 Alpha  occ. eigenvalues --   -0.49679  -0.49397  -0.49357  -0.49067  -0.48913
 Alpha  occ. eigenvalues --   -0.48757  -0.48584  -0.48472  -0.48096  -0.47616
 Alpha  occ. eigenvalues --   -0.47435  -0.47310  -0.47175  -0.46966  -0.46753
 Alpha  occ. eigenvalues --   -0.46583  -0.46471  -0.46370  -0.46032  -0.45880
 Alpha  occ. eigenvalues --   -0.45664  -0.45569  -0.45553  -0.45234  -0.45111
 Alpha  occ. eigenvalues --   -0.44909  -0.44503  -0.44301  -0.44151  -0.44093
 Alpha  occ. eigenvalues --   -0.43997  -0.43798  -0.43704  -0.43532  -0.43394
 Alpha  occ. eigenvalues --   -0.42984  -0.42934  -0.42731  -0.42612  -0.42277
 Alpha  occ. eigenvalues --   -0.42224  -0.42091  -0.41296  -0.40978  -0.40856
 Alpha  occ. eigenvalues --   -0.40614  -0.40584  -0.40507  -0.40175  -0.39957
 Alpha  occ. eigenvalues --   -0.39777  -0.39342  -0.39322  -0.38973  -0.38689
 Alpha  occ. eigenvalues --   -0.38179  -0.38081  -0.37728  -0.37499  -0.37002
 Alpha  occ. eigenvalues --   -0.36910  -0.36626  -0.36539  -0.36375  -0.35901
 Alpha  occ. eigenvalues --   -0.35686  -0.35523  -0.35069  -0.34453  -0.34006
 Alpha  occ. eigenvalues --   -0.33885  -0.33745  -0.33070  -0.31547  -0.31358
 Alpha  occ. eigenvalues --   -0.31153  -0.30408  -0.30347  -0.29762  -0.24014
 Alpha  occ. eigenvalues --   -0.20744
 Alpha virt. eigenvalues --   -0.08302  -0.01834   0.00193   0.02786   0.03982
 Alpha virt. eigenvalues --    0.04728   0.05916   0.06098   0.06532   0.06914
 Alpha virt. eigenvalues --    0.08084   0.08163   0.08626   0.08976   0.09059

 Mulliken charges:
               1
     1  Mg   0.822836
     2  C   -0.030237
     3  C   -0.094116
     4  C   -0.052904
     5  C   -0.076915
     6  N   -0.311670
     7  C   -0.011422
     8  C   -0.017279
     9  C   -0.077930
    10  C    0.032660
    11  C    0.073470
    12  C    0.017171
    13  C    0.126285
    14  C    0.147947
    15  O   -0.264721
    16  O   -0.304939
    17  N   -0.405947
    18  C    0.177394
    19  C   -0.130018
    20  C   -0.039681
    21  C    0.124151
    22  C    0.113623
    23  C    0.031159
    24  O   -0.191297
    25  C    0.019824
    26  N   -0.252117
    27  C    0.038846
    28  C   -0.046209
    29  C   -0.001057
    30  C    0.005385
    31  C    0.073351
    32  C    0.009067
    33  C    0.011023
    34  N   -0.339314
    35  C    0.114749
    36  C   -0.175350
    37  C   -0.000384
    38  C    0.166903
    39  C    0.123157
    40  C    0.037979
    41  O   -0.122872
    42  C   -0.007843
    43  C    0.140627
    44  O   -0.182818
    45  O   -0.325424
    46  C    0.166661
    47  C    0.306706
    48  C   -0.138692
    49  C   -0.216129
    50  C    0.081651
    51  C    0.086643
    52  C    0.021088
    53  C    0.046027
    54  C   -0.179080
    55  C    0.059045
    56  C    0.080305
    57  C   -0.009667
    58  C    0.053331
    59  C   -0.124156
    60  C    0.075116
    61  C    0.013273
    62  C    0.010488
    63  C    0.029328
    64  C   -0.124866
    65  C    0.053861
    66  C    0.039970
    67  H   -0.042364
    68  H    0.001882
    69  H   -0.040976
    70  H    0.027700
    71  H    0.012854
    72  H    0.024396
    73  H    0.019971
    74  H    0.039569
    75  H   -0.010665
    76  H    0.025724
    77  H    0.010657
    78  H    0.005430
    79  H    0.025054
    80  H    0.007147
    81  H    0.033957
    82  H    0.040550
    83  H    0.035126
    84  H    0.019542
    85  H    0.004272
    86  H    0.004018
    87  H    0.019489
    88  H    0.009493
    89  H    0.020757
    90  H    0.010045
    91  H    0.003786
    92  H    0.019165
    93  H    0.013846
    94  H    0.019786
    95  H    0.027226
    96  H    0.024109
    97  H    0.029551
    98  H    0.029362
    99  H    0.039159
   100  H    0.038096
   101  H    0.055981
   102  H    0.038925
   103  H    0.056539
   104  H   -0.002450
   105  H    0.007135
   106  H    0.036305
   107  H    0.015095
   108  H    0.011760
   109  H   -0.009544
   110  H   -0.008983
   111  H   -0.000538
   112  H   -0.007663
   113  H   -0.017356
   114  H    0.004814
   115  H    0.002496
   116  H    0.003140
   117  H    0.033492
   118  H    0.007398
   119  H   -0.011650
   120  H   -0.010768
   121  H    0.004406
   122  H   -0.013208
   123  H   -0.003341
   124  H   -0.018348
   125  H    0.012670
   126  H   -0.000376
   127  H    0.009523
   128  H   -0.012404
   129  H   -0.009613
   130  H   -0.005657
   131  H   -0.009170
   132  H   -0.015769
   133  H   -0.005883
   134  H   -0.004089
   135  H    0.009800
   136  H    0.008481
   137  H    0.008775
   138  H    0.018422
   139  H   -0.002392
   140  H    0.000289
 Sum of Mulliken charges =  -0.00000

 Dipole moment (field-independent basis, Debye):
    X=             -3.0163    Y=              3.1007    Z=              2.0605  Tot=              4.7915
 Quadrupole moment (field-independent basis, Debye-Ang):
   XX=           -391.9609   YY=           -403.8066   ZZ=           -409.8376
   XY=              3.1955   XZ=              4.4353   YZ=             -7.4232

 Normal termination of Gaussian 16 at Thu May  5 01:22:42 2022.
