 Gaussian 16, Revision A.03,
 Gaussian 16:  ES64L-G16RevA.03 25-Dec-2016

 ---------------------------------
 #p PBE1PBE/Def2SVP td=(nstates=5)
 ---------------------------------

 ----------------------------------------------------
 step_51_chromophore_10 TDDFT with PBE1PBE functional
 ----------------------------------------------------
 Symbolic Z-matrix:
 Charge =  0 Multiplicity = 1

                         Standard orientation:
 ---------------------------------------------------------------------
 Center     Atomic      Atomic             Coordinates (Angstroms)
 Number     Number       Type             X           Y           Z
 ---------------------------------------------------------------------
      1         12           0        5.945784    0.423976    0.015903
      2          6           0        3.464131   -1.989116    0.048778
      3          6           0        3.783211    2.782221   -0.903385
      4          6           0        8.478278    2.729172    0.268097
      5          6           0        8.251079   -2.101902    0.448901
      6          7           0        3.858171    0.411145   -0.357548
      7          6           0        2.985728   -0.693076   -0.163494
      8          6           0        1.657255   -0.297939   -0.669869
      9          6           0        1.765880    1.232841   -0.992273
     10          6           0        3.269638    1.494405   -0.801444
     11          6           0        1.047404    1.720288   -2.316397
     12          6           0        0.484678   -0.644814    0.224039
     13          6           0       -0.846394   -0.033314   -0.057867
     14          6           0       -1.850077   -1.026947   -0.515159
     15          8           0       -2.032806   -1.295426   -1.714860
     16          8           0       -2.483632   -1.561793    0.541777
     17          7           0        6.091752    2.452436   -0.266540
     18          6           0        5.070228    3.286101   -0.633255
     19          6           0        5.476390    4.661988   -0.768723
     20          6           0        6.843499    4.692662   -0.361453
     21          6           0        7.223867    3.287636   -0.067477
     22          6           0        4.538862    5.777775   -1.203590
     23          6           0        7.851089    5.824591   -0.215635
     24          8           0        9.032416    5.609532    0.011984
     25          6           0        7.276628    7.267614   -0.323457
     26          7           0        8.139953    0.244536    0.069461
     27          6           0        8.857227    1.384503    0.312818
     28          6           0       10.337257    0.954654    0.596833
     29          6           0       10.171515   -0.617756    0.870814
     30          6           0        8.768166   -0.861595    0.412325
     31          6           0       11.278637    1.281975   -0.520296
     32          6           0       10.499022   -1.088960    2.343061
     33          6           0        9.408352   -1.017302    3.413138
     34          7           0        5.889522   -1.599030    0.278627
     35          6           0        6.885233   -2.508404    0.359239
     36          6           0        6.307328   -3.871375    0.377149
     37          6           0        4.941300   -3.682798    0.412297
     38          6           0        4.734431   -2.316403    0.256533
     39          6           0        7.131437   -5.089830    0.400599
     40          6           0        3.718882   -4.393511    0.353820
     41          8           0        3.428586   -5.538465    0.252302
     42          6           0        2.700775   -3.281694    0.163127
     43          6           0        1.945209   -3.597925   -1.105547
     44          8           0        2.529268   -3.658142   -2.131318
     45          8           0        0.698259   -4.063579   -0.891023
     46          6           0       -0.133948   -4.402674   -2.070292
     47          6           0       -3.326611   -2.705931    0.237444
     48          6           0       -4.766966   -2.299995    0.341873
     49          6           0       -5.872593   -3.026715    0.366243
     50          6           0       -5.893400   -4.493656    0.035078
     51          6           0       -7.265204   -2.325073    0.637474
     52          6           0       -7.863207   -1.647002   -0.608640
     53          6           0       -7.638782   -0.163517   -0.695638
     54          6           0       -8.904525    0.725359   -0.476215
     55          6           0       -9.624984    1.004767   -1.902362
     56          6           0       -8.659862    2.036897    0.340665
     57          6           0       -9.467082    1.988869    1.722350
     58          6           0      -10.729718    2.901884    1.740869
     59          6           0      -11.981858    2.293777    2.310697
     60          6           0      -11.860450    2.098313    3.839626
     61          6           0      -12.455342    0.988093    1.563654
     62          6           0      -13.972658    0.846261    1.306536
     63          6           0      -14.361808    1.449198   -0.031128
     64          6           0      -15.576061    0.887655   -0.824062
     65          6           0      -15.329647   -0.241447   -1.835047
     66          6           0      -16.488745    1.992315   -1.402950
     67          1           0        3.016753    3.508159   -1.184517
     68          1           0        9.335282    3.404460    0.328265
     69          1           0        8.981850   -2.856660    0.749572
     70          1           0        1.514923   -0.868445   -1.586525
     71          1           0        1.451892    1.812796   -0.124439
     72          1           0        1.674245    2.149148   -3.097890
     73          1           0        0.373602    2.505060   -1.972352
     74          1           0        0.504166    0.882583   -2.753409
     75          1           0        0.690469   -0.265072    1.224886
     76          1           0        0.339410   -1.716285    0.363761
     77          1           0       -0.778665    0.886010   -0.640349
     78          1           0       -1.142371    0.317886    0.930657
     79          1           0        3.708147    5.386987   -1.791963
     80          1           0        5.097365    6.444445   -1.861850
     81          1           0        4.207279    6.492127   -0.449917
     82          1           0        6.355020    7.451739    0.229131
     83          1           0        7.124207    7.490281   -1.379573
     84          1           0        8.001943    8.044776   -0.085220
     85          1           0       10.729816    1.394319    1.513917
     86          1           0       10.759286   -1.201779    0.161460
     87          1           0       10.800815    1.366979   -1.495777
     88          1           0       12.083907    0.557494   -0.647473
     89          1           0       11.749373    2.237847   -0.291124
     90          1           0       11.381280   -0.550756    2.687151
     91          1           0       10.731060   -2.154230    2.354323
     92          1           0        8.618293   -0.300045    3.187256
     93          1           0        9.894261   -0.678425    4.327908
     94          1           0        8.946587   -1.996141    3.546229
     95          1           0        7.529922   -5.182285   -0.610068
     96          1           0        6.459523   -5.939118    0.528152
     97          1           0        7.935296   -5.157194    1.132261
     98          1           0        1.980012   -3.296080    0.980558
     99          1           0        0.207688   -3.894663   -2.972994
    100          1           0       -1.112448   -3.929395   -2.001814
    101          1           0       -0.092605   -5.487029   -2.177440
    102          1           0       -3.149715   -3.380076    1.075123
    103          1           0       -3.228422   -3.192532   -0.732752
    104          1           0       -4.978662   -1.271705    0.635295
    105          1           0       -4.898810   -4.918754    0.174380
    106          1           0       -6.305074   -4.605354   -0.967488
    107          1           0       -6.493842   -5.052560    0.752301
    108          1           0       -7.190771   -1.557317    1.407271
    109          1           0       -8.001182   -3.116055    0.781917
    110          1           0       -8.950968   -1.709691   -0.582072
    111          1           0       -7.398775   -2.111945   -1.478591
    112          1           0       -7.234780    0.018176   -1.691678
    113          1           0       -6.838946    0.046830    0.014068
    114          1           0       -9.638519    0.080088    0.005361
    115          1           0      -10.203133    1.897121   -1.661078
    116          1           0      -10.395099    0.235135   -1.851987
    117          1           0       -8.868289    0.975798   -2.686533
    118          1           0       -8.849626    2.972670   -0.185640
    119          1           0       -7.617266    1.944853    0.644297
    120          1           0       -8.796639    2.440974    2.453125
    121          1           0       -9.603719    0.988838    2.134447
    122          1           0      -10.990615    3.173615    0.717491
    123          1           0      -10.544006    3.846145    2.251042
    124          1           0      -12.812965    2.948324    2.050514
    125          1           0      -12.634465    2.620951    4.401591
    126          1           0      -10.946416    2.580879    4.186304
    127          1           0      -11.815175    1.013332    3.938239
    128          1           0      -12.206687    0.078838    2.110124
    129          1           0      -11.951987    0.905495    0.600978
    130          1           0      -14.490035    1.426379    2.070739
    131          1           0      -14.247657   -0.203295    1.412874
    132          1           0      -13.478189    1.336100   -0.659859
    133          1           0      -14.422845    2.482436    0.311753
    134          1           0      -16.123850    0.416947   -0.008680
    135          1           0      -14.298819   -0.565653   -1.971811
    136          1           0      -15.749169   -0.044934   -2.821513
    137          1           0      -15.909154   -1.064156   -1.414292
    138          1           0      -17.494377    2.004098   -0.984481
    139          1           0      -16.510365    1.892485   -2.488255
    140          1           0      -16.066633    2.992819   -1.303568
 ---------------------------------------------------------------------

 SCF Done:  E(RPBE1PBE) =  -3005.35757745     A.U. after   15 cycles

 Excitation energies and oscillator strengths:

 Excited State   1:      Singlet-A      1.8604 eV  666.45 nm  f=0.3847  <S**2>=0.000
     245 -> 248       -0.17772
     246 -> 247        0.69177
     246 <- 247       -0.10910
 This state for optimization and/or second-order correction.
 Total Energy, E(TD-HF/TD-DFT) =  -3005.28920988
 Copying the excited state density for this state as the 1-particle RhoCI density.

 Excited State   2:      Singlet-A      2.2528 eV  550.36 nm  f=0.0734  <S**2>=0.000
     245 -> 247        0.63902
     246 -> 248        0.29191

 Excited State   3:      Singlet-A      3.1658 eV  391.63 nm  f=0.0004  <S**2>=0.000
     240 -> 247       -0.10946
     241 -> 247        0.11432
     242 -> 247        0.16769
     244 -> 247        0.65239

 Excited State   4:      Singlet-A      3.2104 eV  386.20 nm  f=0.1379  <S**2>=0.000
     242 -> 247        0.49933
     244 -> 247       -0.13238
     245 -> 247        0.15336
     246 -> 248       -0.41964

 Excited State   5:      Singlet-A      3.2600 eV  380.33 nm  f=0.1178  <S**2>=0.000
     240 -> 249        0.11722
     241 -> 247        0.46862
     242 -> 247        0.29406
     244 -> 247       -0.17651
     245 -> 247       -0.13512
     246 -> 248        0.30448

 The electronic state is 1-A.
 Alpha  occ. eigenvalues --  -46.90771 -19.27556 -19.25417 -19.20267 -19.19754
 Alpha  occ. eigenvalues --  -19.19152 -19.19098 -14.41296 -14.40420 -14.39101
 Alpha  occ. eigenvalues --  -14.38659 -10.36796 -10.35305 -10.33070 -10.31190
 Alpha  occ. eigenvalues --  -10.30218 -10.28620 -10.28452 -10.28284 -10.28213
 Alpha  occ. eigenvalues --  -10.28103 -10.27374 -10.27293 -10.26834 -10.26579
 Alpha  occ. eigenvalues --  -10.25926 -10.25278 -10.25265 -10.25259 -10.25245
 Alpha  occ. eigenvalues --  -10.24845 -10.24774 -10.24735 -10.24700 -10.24594
 Alpha  occ. eigenvalues --  -10.24491 -10.24395 -10.24250 -10.24095 -10.24093
 Alpha  occ. eigenvalues --  -10.23911 -10.23782 -10.23572 -10.23531 -10.23529
 Alpha  occ. eigenvalues --  -10.23519 -10.23348 -10.23172 -10.23028 -10.22998
 Alpha  occ. eigenvalues --  -10.22847 -10.22809 -10.22749 -10.22401 -10.22376
 Alpha  occ. eigenvalues --  -10.22245 -10.22237 -10.22231 -10.22196 -10.22099
 Alpha  occ. eigenvalues --  -10.22068 -10.21915 -10.21837 -10.21822 -10.21787
 Alpha  occ. eigenvalues --  -10.21586  -3.13051  -1.85909  -1.85389  -1.85319
 Alpha  occ. eigenvalues --   -1.12936  -1.11830  -1.06735  -1.05177  -1.03401
 Alpha  occ. eigenvalues --   -1.02815  -0.99420  -0.98346  -0.98009  -0.96264
 Alpha  occ. eigenvalues --   -0.88646  -0.85556  -0.84708  -0.84045  -0.82995
 Alpha  occ. eigenvalues --   -0.82628  -0.82138  -0.81929  -0.81713  -0.81158
 Alpha  occ. eigenvalues --   -0.80777  -0.80156  -0.78650  -0.78080  -0.77677
 Alpha  occ. eigenvalues --   -0.77184  -0.76308  -0.75737  -0.75395  -0.74803
 Alpha  occ. eigenvalues --   -0.73937  -0.73129  -0.72546  -0.71951  -0.70629
 Alpha  occ. eigenvalues --   -0.70040  -0.69533  -0.69411  -0.68915  -0.68560
 Alpha  occ. eigenvalues --   -0.68388  -0.67030  -0.66360  -0.65302  -0.63778
 Alpha  occ. eigenvalues --   -0.63353  -0.63070  -0.61812  -0.60821  -0.60403
 Alpha  occ. eigenvalues --   -0.60059  -0.59459  -0.59202  -0.58647  -0.58586
 Alpha  occ. eigenvalues --   -0.57353  -0.57140  -0.56757  -0.55746  -0.54697
 Alpha  occ. eigenvalues --   -0.54552  -0.54359  -0.54159  -0.53766  -0.52787
 Alpha  occ. eigenvalues --   -0.52366  -0.51749  -0.50757  -0.50617  -0.50368
 Alpha  occ. eigenvalues --   -0.49906  -0.49491  -0.49281  -0.49048  -0.48696
 Alpha  occ. eigenvalues --   -0.48087  -0.47988  -0.47852  -0.47511  -0.47346
 Alpha  occ. eigenvalues --   -0.47107  -0.47087  -0.46806  -0.46631  -0.46337
 Alpha  occ. eigenvalues --   -0.46305  -0.46034  -0.45748  -0.45462  -0.45375
 Alpha  occ. eigenvalues --   -0.44951  -0.44783  -0.44602  -0.44520  -0.44309
 Alpha  occ. eigenvalues --   -0.44224  -0.43962  -0.43896  -0.43669  -0.43444
 Alpha  occ. eigenvalues --   -0.43396  -0.43153  -0.43102  -0.42724  -0.42290
 Alpha  occ. eigenvalues --   -0.42105  -0.41933  -0.41800  -0.41638  -0.41409
 Alpha  occ. eigenvalues --   -0.41197  -0.41172  -0.41046  -0.40700  -0.40599
 Alpha  occ. eigenvalues --   -0.40369  -0.40263  -0.40233  -0.39996  -0.39809
 Alpha  occ. eigenvalues --   -0.39671  -0.39278  -0.39035  -0.38895  -0.38846
 Alpha  occ. eigenvalues --   -0.38637  -0.38626  -0.38528  -0.38258  -0.38216
 Alpha  occ. eigenvalues --   -0.37857  -0.37638  -0.37452  -0.37431  -0.37024
 Alpha  occ. eigenvalues --   -0.36959  -0.36931  -0.36106  -0.35755  -0.35717
 Alpha  occ. eigenvalues --   -0.35469  -0.35363  -0.35324  -0.35022  -0.34884
 Alpha  occ. eigenvalues --   -0.34746  -0.34254  -0.34151  -0.33804  -0.33484
 Alpha  occ. eigenvalues --   -0.33172  -0.32895  -0.32624  -0.32497  -0.32046
 Alpha  occ. eigenvalues --   -0.31802  -0.31563  -0.31448  -0.31299  -0.30792
 Alpha  occ. eigenvalues --   -0.30742  -0.30357  -0.29947  -0.29396  -0.29153
 Alpha  occ. eigenvalues --   -0.28971  -0.28651  -0.28357  -0.26967  -0.26314
 Alpha  occ. eigenvalues --   -0.26212  -0.25841  -0.25603  -0.25375  -0.20909
 Alpha  occ. eigenvalues --   -0.18412
 Alpha virt. eigenvalues --   -0.10824  -0.05317  -0.04022  -0.01606   0.00081
 Alpha virt. eigenvalues --    0.01278   0.01543   0.01814   0.02173   0.03183
 Alpha virt. eigenvalues --    0.04143   0.04843   0.05148   0.05392   0.05634

 Mulliken charges:
               1
     1  Mg   0.977887
     2  C   -0.043197
     3  C   -0.087384
     4  C   -0.044413
     5  C   -0.064120
     6  N   -0.429782
     7  C    0.086860
     8  C   -0.109110
     9  C   -0.155360
    10  C    0.085910
    11  C    0.012053
    12  C   -0.029548
    13  C    0.047329
    14  C    0.215502
    15  O   -0.298029
    16  O   -0.336608
    17  N   -0.518437
    18  C    0.197196
    19  C   -0.156426
    20  C   -0.086481
    21  C    0.153661
    22  C    0.056634
    23  C    0.081791
    24  O   -0.230291
    25  C   -0.051693
    26  N   -0.359594
    27  C    0.063667
    28  C   -0.125572
    29  C   -0.072471
    30  C    0.047371
    31  C    0.018470
    32  C   -0.054473
    33  C   -0.062574
    34  N   -0.470952
    35  C    0.143820
    36  C   -0.196142
    37  C   -0.043047
    38  C    0.202517
    39  C    0.068751
    40  C    0.140470
    41  O   -0.172615
    42  C   -0.122408
    43  C    0.237086
    44  O   -0.217152
    45  O   -0.361083
    46  C    0.110256
    47  C    0.255199
    48  C   -0.139701
    49  C   -0.263072
    50  C    0.019214
    51  C    0.017782
    52  C   -0.039892
    53  C   -0.005767
    54  C   -0.257398
    55  C   -0.004762
    56  C    0.019951
    57  C   -0.071601
    58  C   -0.006622
    59  C   -0.208308
    60  C    0.015584
    61  C   -0.043993
    62  C   -0.056258
    63  C   -0.021416
    64  C   -0.220480
    65  C   -0.005660
    66  C   -0.019375
    67  H   -0.009654
    68  H    0.034036
    69  H   -0.008167
    70  H    0.068736
    71  H    0.051797
    72  H    0.051979
    73  H    0.045882
    74  H    0.066230
    75  H    0.023320
    76  H    0.062494
    77  H    0.045633
    78  H    0.039850
    79  H    0.050743
    80  H    0.036043
    81  H    0.060180
    82  H    0.066387
    83  H    0.061671
    84  H    0.046967
    85  H    0.041039
    86  H    0.041549
    87  H    0.047231
    88  H    0.037274
    89  H    0.047997
    90  H    0.042672
    91  H    0.036192
    92  H    0.050210
    93  H    0.042399
    94  H    0.046798
    95  H    0.056716
    96  H    0.053297
    97  H    0.055423
    98  H    0.065831
    99  H    0.059396
   100  H    0.062997
   101  H    0.077400
   102  H    0.065937
   103  H    0.083882
   104  H    0.028660
   105  H    0.034461
   106  H    0.063488
   107  H    0.042798
   108  H    0.044235
   109  H    0.024131
   110  H    0.023706
   111  H    0.033081
   112  H    0.025376
   113  H    0.015830
   114  H    0.042143
   115  H    0.032129
   116  H    0.031165
   117  H    0.059129
   118  H    0.037658
   119  H    0.022842
   120  H    0.023054
   121  H    0.035043
   122  H    0.020987
   123  H    0.029867
   124  H    0.022420
   125  H    0.039901
   126  H    0.027517
   127  H    0.035816
   128  H    0.019289
   129  H    0.029254
   130  H    0.029048
   131  H    0.023472
   132  H    0.017652
   133  H    0.025809
   134  H    0.035959
   135  H    0.036029
   136  H    0.034854
   137  H    0.035870
   138  H    0.045048
   139  H    0.024668
   140  H    0.027550
 Sum of Mulliken charges =  -0.00000

 Dipole moment (field-independent basis, Debye):
    X=             -2.9471    Y=              2.8591    Z=              2.0917  Tot=              4.6081
 Quadrupole moment (field-independent basis, Debye-Ang):
   XX=           -385.9536   YY=           -401.3089   ZZ=           -407.4229
   XY=              0.9663   XZ=              5.0313   YZ=             -7.3697

 Normal termination of Gaussian 16 at Thu May  5 01:59:09 2022.
