 Gaussian 16, Revision A.03,
 Gaussian 16:  ES64L-G16RevA.03 25-Dec-2016

 --------------------------------
 #p wB97XD/Def2SVP td=(nstates=5)
 --------------------------------

 ---------------------------------------------------
 step_51_chromophore_10 TDDFT with wB97XD functional
 ---------------------------------------------------
 Symbolic Z-matrix:
 Charge =  0 Multiplicity = 1

                         Standard orientation:
 ---------------------------------------------------------------------
 Center     Atomic      Atomic             Coordinates (Angstroms)
 Number     Number       Type             X           Y           Z
 ---------------------------------------------------------------------
      1         12           0        5.945784    0.423976    0.015903
      2          6           0        3.464131   -1.989116    0.048778
      3          6           0        3.783211    2.782221   -0.903385
      4          6           0        8.478278    2.729172    0.268097
      5          6           0        8.251079   -2.101902    0.448901
      6          7           0        3.858171    0.411145   -0.357548
      7          6           0        2.985728   -0.693076   -0.163494
      8          6           0        1.657255   -0.297939   -0.669869
      9          6           0        1.765880    1.232841   -0.992273
     10          6           0        3.269638    1.494405   -0.801444
     11          6           0        1.047404    1.720288   -2.316397
     12          6           0        0.484678   -0.644814    0.224039
     13          6           0       -0.846394   -0.033314   -0.057867
     14          6           0       -1.850077   -1.026947   -0.515159
     15          8           0       -2.032806   -1.295426   -1.714860
     16          8           0       -2.483632   -1.561793    0.541777
     17          7           0        6.091752    2.452436   -0.266540
     18          6           0        5.070228    3.286101   -0.633255
     19          6           0        5.476390    4.661988   -0.768723
     20          6           0        6.843499    4.692662   -0.361453
     21          6           0        7.223867    3.287636   -0.067477
     22          6           0        4.538862    5.777775   -1.203590
     23          6           0        7.851089    5.824591   -0.215635
     24          8           0        9.032416    5.609532    0.011984
     25          6           0        7.276628    7.267614   -0.323457
     26          7           0        8.139953    0.244536    0.069461
     27          6           0        8.857227    1.384503    0.312818
     28          6           0       10.337257    0.954654    0.596833
     29          6           0       10.171515   -0.617756    0.870814
     30          6           0        8.768166   -0.861595    0.412325
     31          6           0       11.278637    1.281975   -0.520296
     32          6           0       10.499022   -1.088960    2.343061
     33          6           0        9.408352   -1.017302    3.413138
     34          7           0        5.889522   -1.599030    0.278627
     35          6           0        6.885233   -2.508404    0.359239
     36          6           0        6.307328   -3.871375    0.377149
     37          6           0        4.941300   -3.682798    0.412297
     38          6           0        4.734431   -2.316403    0.256533
     39          6           0        7.131437   -5.089830    0.400599
     40          6           0        3.718882   -4.393511    0.353820
     41          8           0        3.428586   -5.538465    0.252302
     42          6           0        2.700775   -3.281694    0.163127
     43          6           0        1.945209   -3.597925   -1.105547
     44          8           0        2.529268   -3.658142   -2.131318
     45          8           0        0.698259   -4.063579   -0.891023
     46          6           0       -0.133948   -4.402674   -2.070292
     47          6           0       -3.326611   -2.705931    0.237444
     48          6           0       -4.766966   -2.299995    0.341873
     49          6           0       -5.872593   -3.026715    0.366243
     50          6           0       -5.893400   -4.493656    0.035078
     51          6           0       -7.265204   -2.325073    0.637474
     52          6           0       -7.863207   -1.647002   -0.608640
     53          6           0       -7.638782   -0.163517   -0.695638
     54          6           0       -8.904525    0.725359   -0.476215
     55          6           0       -9.624984    1.004767   -1.902362
     56          6           0       -8.659862    2.036897    0.340665
     57          6           0       -9.467082    1.988869    1.722350
     58          6           0      -10.729718    2.901884    1.740869
     59          6           0      -11.981858    2.293777    2.310697
     60          6           0      -11.860450    2.098313    3.839626
     61          6           0      -12.455342    0.988093    1.563654
     62          6           0      -13.972658    0.846261    1.306536
     63          6           0      -14.361808    1.449198   -0.031128
     64          6           0      -15.576061    0.887655   -0.824062
     65          6           0      -15.329647   -0.241447   -1.835047
     66          6           0      -16.488745    1.992315   -1.402950
     67          1           0        3.016753    3.508159   -1.184517
     68          1           0        9.335282    3.404460    0.328265
     69          1           0        8.981850   -2.856660    0.749572
     70          1           0        1.514923   -0.868445   -1.586525
     71          1           0        1.451892    1.812796   -0.124439
     72          1           0        1.674245    2.149148   -3.097890
     73          1           0        0.373602    2.505060   -1.972352
     74          1           0        0.504166    0.882583   -2.753409
     75          1           0        0.690469   -0.265072    1.224886
     76          1           0        0.339410   -1.716285    0.363761
     77          1           0       -0.778665    0.886010   -0.640349
     78          1           0       -1.142371    0.317886    0.930657
     79          1           0        3.708147    5.386987   -1.791963
     80          1           0        5.097365    6.444445   -1.861850
     81          1           0        4.207279    6.492127   -0.449917
     82          1           0        6.355020    7.451739    0.229131
     83          1           0        7.124207    7.490281   -1.379573
     84          1           0        8.001943    8.044776   -0.085220
     85          1           0       10.729816    1.394319    1.513917
     86          1           0       10.759286   -1.201779    0.161460
     87          1           0       10.800815    1.366979   -1.495777
     88          1           0       12.083907    0.557494   -0.647473
     89          1           0       11.749373    2.237847   -0.291124
     90          1           0       11.381280   -0.550756    2.687151
     91          1           0       10.731060   -2.154230    2.354323
     92          1           0        8.618293   -0.300045    3.187256
     93          1           0        9.894261   -0.678425    4.327908
     94          1           0        8.946587   -1.996141    3.546229
     95          1           0        7.529922   -5.182285   -0.610068
     96          1           0        6.459523   -5.939118    0.528152
     97          1           0        7.935296   -5.157194    1.132261
     98          1           0        1.980012   -3.296080    0.980558
     99          1           0        0.207688   -3.894663   -2.972994
    100          1           0       -1.112448   -3.929395   -2.001814
    101          1           0       -0.092605   -5.487029   -2.177440
    102          1           0       -3.149715   -3.380076    1.075123
    103          1           0       -3.228422   -3.192532   -0.732752
    104          1           0       -4.978662   -1.271705    0.635295
    105          1           0       -4.898810   -4.918754    0.174380
    106          1           0       -6.305074   -4.605354   -0.967488
    107          1           0       -6.493842   -5.052560    0.752301
    108          1           0       -7.190771   -1.557317    1.407271
    109          1           0       -8.001182   -3.116055    0.781917
    110          1           0       -8.950968   -1.709691   -0.582072
    111          1           0       -7.398775   -2.111945   -1.478591
    112          1           0       -7.234780    0.018176   -1.691678
    113          1           0       -6.838946    0.046830    0.014068
    114          1           0       -9.638519    0.080088    0.005361
    115          1           0      -10.203133    1.897121   -1.661078
    116          1           0      -10.395099    0.235135   -1.851987
    117          1           0       -8.868289    0.975798   -2.686533
    118          1           0       -8.849626    2.972670   -0.185640
    119          1           0       -7.617266    1.944853    0.644297
    120          1           0       -8.796639    2.440974    2.453125
    121          1           0       -9.603719    0.988838    2.134447
    122          1           0      -10.990615    3.173615    0.717491
    123          1           0      -10.544006    3.846145    2.251042
    124          1           0      -12.812965    2.948324    2.050514
    125          1           0      -12.634465    2.620951    4.401591
    126          1           0      -10.946416    2.580879    4.186304
    127          1           0      -11.815175    1.013332    3.938239
    128          1           0      -12.206687    0.078838    2.110124
    129          1           0      -11.951987    0.905495    0.600978
    130          1           0      -14.490035    1.426379    2.070739
    131          1           0      -14.247657   -0.203295    1.412874
    132          1           0      -13.478189    1.336100   -0.659859
    133          1           0      -14.422845    2.482436    0.311753
    134          1           0      -16.123850    0.416947   -0.008680
    135          1           0      -14.298819   -0.565653   -1.971811
    136          1           0      -15.749169   -0.044934   -2.821513
    137          1           0      -15.909154   -1.064156   -1.414292
    138          1           0      -17.494377    2.004098   -0.984481
    139          1           0      -16.510365    1.892485   -2.488255
    140          1           0      -16.066633    2.992819   -1.303568
 ---------------------------------------------------------------------

 SCF Done:  E(RwB97XD) =  -3007.87016448     A.U. after   18 cycles

 Excitation energies and oscillator strengths:

 Excited State   1:      Singlet-A      1.6545 eV  749.36 nm  f=0.3946  <S**2>=0.000
     245 -> 248       -0.18973
     246 -> 247        0.68162
     245 <- 248       -0.11617
 This state for optimization and/or second-order correction.
 Total Energy, E(TD-HF/TD-DFT) =  -3007.80936142
 Copying the excited state density for this state as the 1-particle RhoCI density.

 Excited State   2:      Singlet-A      2.2025 eV  562.92 nm  f=0.0695  <S**2>=0.000
     245 -> 247        0.62164
     246 -> 248        0.32326

 Excited State   3:      Singlet-A      3.4260 eV  361.89 nm  f=0.5202  <S**2>=0.000
     242 -> 247       -0.24422
     244 -> 247        0.20322
     245 -> 247       -0.26833
     246 -> 248        0.56581
     245 <- 247        0.10695

 Excited State   4:      Singlet-A      3.5503 eV  349.22 nm  f=0.1316  <S**2>=0.000
     244 -> 247        0.63278
     245 -> 247        0.13267
     246 -> 248       -0.21382

 Excited State   5:      Singlet-A      3.7582 eV  329.91 nm  f=0.0614  <S**2>=0.000
     241 -> 247        0.38312
     241 -> 248        0.11070
     241 -> 249       -0.28913
     241 -> 250        0.21341
     242 -> 247        0.36843
     242 -> 249       -0.11514

 The electronic state is 1-A.
 Alpha  occ. eigenvalues --  -46.93720 -19.32114 -19.29983 -19.24935 -19.24659
 Alpha  occ. eigenvalues --  -19.23962 -19.23804 -14.46436 -14.45418 -14.44078
 Alpha  occ. eigenvalues --  -14.43584 -10.43596 -10.42112 -10.40002 -10.38041
 Alpha  occ. eigenvalues --  -10.36706 -10.35132 -10.34672 -10.34639 -10.34607
 Alpha  occ. eigenvalues --  -10.34443 -10.33806 -10.33514 -10.33232 -10.33058
 Alpha  occ. eigenvalues --  -10.32161 -10.31740 -10.31605 -10.31470 -10.31469
 Alpha  occ. eigenvalues --  -10.31461 -10.31113 -10.31091 -10.30988 -10.30816
 Alpha  occ. eigenvalues --  -10.30756 -10.30753 -10.30675 -10.30631 -10.30504
 Alpha  occ. eigenvalues --  -10.30450 -10.30171 -10.29968 -10.29940 -10.29871
 Alpha  occ. eigenvalues --  -10.29784 -10.29630 -10.29440 -10.29369 -10.29308
 Alpha  occ. eigenvalues --  -10.29199 -10.29198 -10.29113 -10.28779 -10.28748
 Alpha  occ. eigenvalues --  -10.28642 -10.28597 -10.28593 -10.28569 -10.28438
 Alpha  occ. eigenvalues --  -10.28393 -10.28333 -10.28222 -10.28205 -10.28173
 Alpha  occ. eigenvalues --  -10.28007  -3.19832  -1.93443  -1.92926  -1.92852
 Alpha  occ. eigenvalues --   -1.20311  -1.19211  -1.14180  -1.12749  -1.10747
 Alpha  occ. eigenvalues --   -1.10167  -1.06742  -1.05716  -1.05350  -1.03715
 Alpha  occ. eigenvalues --   -0.96199  -0.93186  -0.92362  -0.91713  -0.90592
 Alpha  occ. eigenvalues --   -0.90284  -0.89707  -0.89493  -0.89365  -0.88896
 Alpha  occ. eigenvalues --   -0.88391  -0.87775  -0.86299  -0.85700  -0.85266
 Alpha  occ. eigenvalues --   -0.84832  -0.83949  -0.83405  -0.83103  -0.82483
 Alpha  occ. eigenvalues --   -0.81602  -0.80755  -0.80282  -0.79545  -0.78212
 Alpha  occ. eigenvalues --   -0.77687  -0.77224  -0.76989  -0.76605  -0.76222
 Alpha  occ. eigenvalues --   -0.76000  -0.74560  -0.73899  -0.72867  -0.71308
 Alpha  occ. eigenvalues --   -0.71005  -0.70643  -0.69370  -0.68367  -0.67992
 Alpha  occ. eigenvalues --   -0.67551  -0.66996  -0.66662  -0.66194  -0.66006
 Alpha  occ. eigenvalues --   -0.64997  -0.64791  -0.64146  -0.63372  -0.62180
 Alpha  occ. eigenvalues --   -0.61988  -0.61888  -0.61597  -0.61247  -0.60330
 Alpha  occ. eigenvalues --   -0.59702  -0.59181  -0.58148  -0.58037  -0.57781
 Alpha  occ. eigenvalues --   -0.57317  -0.56902  -0.56627  -0.56448  -0.56076
 Alpha  occ. eigenvalues --   -0.55530  -0.55414  -0.55193  -0.54933  -0.54764
 Alpha  occ. eigenvalues --   -0.54452  -0.54412  -0.54192  -0.54006  -0.53944
 Alpha  occ. eigenvalues --   -0.53660  -0.53439  -0.53114  -0.52803  -0.52641
 Alpha  occ. eigenvalues --   -0.52339  -0.52103  -0.52001  -0.51859  -0.51648
 Alpha  occ. eigenvalues --   -0.51568  -0.51324  -0.51282  -0.50973  -0.50863
 Alpha  occ. eigenvalues --   -0.50646  -0.50446  -0.50381  -0.50003  -0.49545
 Alpha  occ. eigenvalues --   -0.49351  -0.49213  -0.49076  -0.48894  -0.48699
 Alpha  occ. eigenvalues --   -0.48455  -0.48420  -0.48309  -0.47860  -0.47788
 Alpha  occ. eigenvalues --   -0.47619  -0.47463  -0.47432  -0.47142  -0.46983
 Alpha  occ. eigenvalues --   -0.46805  -0.46462  -0.46228  -0.46092  -0.46039
 Alpha  occ. eigenvalues --   -0.45859  -0.45735  -0.45619  -0.45410  -0.45303
 Alpha  occ. eigenvalues --   -0.44861  -0.44795  -0.44611  -0.44580  -0.44192
 Alpha  occ. eigenvalues --   -0.44126  -0.44034  -0.43212  -0.42833  -0.42766
 Alpha  occ. eigenvalues --   -0.42512  -0.42446  -0.42429  -0.42056  -0.41856
 Alpha  occ. eigenvalues --   -0.41689  -0.41212  -0.41194  -0.40848  -0.40552
 Alpha  occ. eigenvalues --   -0.40101  -0.39928  -0.39659  -0.39381  -0.39084
 Alpha  occ. eigenvalues --   -0.38762  -0.38617  -0.38448  -0.38264  -0.37751
 Alpha  occ. eigenvalues --   -0.37608  -0.37367  -0.36910  -0.36311  -0.36020
 Alpha  occ. eigenvalues --   -0.35843  -0.35700  -0.35214  -0.33581  -0.33474
 Alpha  occ. eigenvalues --   -0.33165  -0.32573  -0.32377  -0.31954  -0.25949
 Alpha  occ. eigenvalues --   -0.22547
 Alpha virt. eigenvalues --   -0.06653   0.00096   0.02261   0.04881   0.06919
 Alpha virt. eigenvalues --    0.07060   0.08255   0.08627   0.08852   0.09472
 Alpha virt. eigenvalues --    0.10751   0.11443   0.11926   0.12234   0.12320

 Mulliken charges:
               1
     1  Mg   0.965570
     2  C   -0.041839
     3  C   -0.102144
     4  C   -0.062948
     5  C   -0.082710
     6  N   -0.389494
     7  C    0.039367
     8  C   -0.070864
     9  C   -0.127111
    10  C    0.065302
    11  C    0.020246
    12  C   -0.016060
    13  C    0.064314
    14  C    0.203868
    15  O   -0.293887
    16  O   -0.335379
    17  N   -0.489115
    18  C    0.192162
    19  C   -0.147188
    20  C   -0.081164
    21  C    0.147166
    22  C    0.068891
    23  C    0.077777
    24  O   -0.223729
    25  C   -0.041459
    26  N   -0.324078
    27  C    0.055478
    28  C   -0.098540
    29  C   -0.050030
    30  C    0.034552
    31  C    0.024836
    32  C   -0.039199
    33  C   -0.044851
    34  N   -0.431179
    35  C    0.130833
    36  C   -0.190159
    37  C   -0.042112
    38  C    0.189827
    39  C    0.076582
    40  C    0.122416
    41  O   -0.162132
    42  C   -0.082660
    43  C    0.209744
    44  O   -0.212085
    45  O   -0.357516
    46  C    0.129314
    47  C    0.272706
    48  C   -0.151455
    49  C   -0.248096
    50  C    0.032424
    51  C    0.040040
    52  C   -0.023462
    53  C    0.012085
    54  C   -0.226286
    55  C    0.013320
    56  C    0.036583
    57  C   -0.057023
    58  C    0.014682
    59  C   -0.179968
    60  C    0.026324
    61  C   -0.020537
    62  C   -0.038334
    63  C   -0.004241
    64  C   -0.190581
    65  C    0.005422
    66  C   -0.006053
    67  H   -0.018039
    68  H    0.029586
    69  H   -0.016037
    70  H    0.053971
    71  H    0.038351
    72  H    0.047668
    73  H    0.040372
    74  H    0.061894
    75  H    0.015670
    76  H    0.045826
    77  H    0.036095
    78  H    0.034825
    79  H    0.047447
    80  H    0.028944
    81  H    0.056976
    82  H    0.061643
    83  H    0.056593
    84  H    0.046027
    85  H    0.031752
    86  H    0.031382
    87  H    0.041730
    88  H    0.031783
    89  H    0.042749
    90  H    0.034850
    91  H    0.028278
    92  H    0.039911
    93  H    0.037397
    94  H    0.040945
    95  H    0.051041
    96  H    0.049212
    97  H    0.051122
    98  H    0.060505
    99  H    0.055692
   100  H    0.055228
   101  H    0.074526
   102  H    0.061662
   103  H    0.077306
   104  H    0.022386
   105  H    0.028723
   106  H    0.058075
   107  H    0.037386
   108  H    0.035352
   109  H    0.016683
   110  H    0.014222
   111  H    0.024302
   112  H    0.016603
   113  H   -0.000826
   114  H    0.020955
   115  H    0.022597
   116  H    0.024190
   117  H    0.054210
   118  H    0.031021
   119  H    0.013853
   120  H    0.015169
   121  H    0.025571
   122  H    0.007848
   123  H    0.022456
   124  H    0.007991
   125  H    0.035543
   126  H    0.020903
   127  H    0.029028
   128  H    0.010184
   129  H    0.007057
   130  H    0.018901
   131  H    0.016013
   132  H    0.005361
   133  H    0.015261
   134  H    0.023246
   135  H    0.030842
   136  H    0.028694
   137  H    0.030129
   138  H    0.040390
   139  H    0.017345
   140  H    0.021291
 Sum of Mulliken charges =  -0.00000

 Dipole moment (field-independent basis, Debye):
    X=             -3.0462    Y=              3.1924    Z=              2.0610  Tot=              4.8702
 Quadrupole moment (field-independent basis, Debye-Ang):
   XX=           -387.2634   YY=           -398.9491   ZZ=           -407.0469
   XY=              3.4617   XZ=              4.8426   YZ=             -7.6014

 Normal termination of Gaussian 16 at Thu May  5 02:55:54 2022.
