 Gaussian 16, Revision A.03,
 Gaussian 16:  ES64L-G16RevA.03 25-Dec-2016

 --------------------
 #p ZINDO=(nstates=5)
 --------------------

 ----------------------------
 step_51_chromophore_10 ZINDO
 ----------------------------
 Symbolic Z-matrix:
 Charge =  0 Multiplicity = 1

                         Standard orientation:
 ---------------------------------------------------------------------
 Center     Atomic      Atomic             Coordinates (Angstroms)
 Number     Number       Type             X           Y           Z
 ---------------------------------------------------------------------
      1         12           0        5.945784    0.423976    0.015903
      2          6           0        3.464131   -1.989116    0.048778
      3          6           0        3.783211    2.782221   -0.903385
      4          6           0        8.478278    2.729172    0.268097
      5          6           0        8.251079   -2.101902    0.448901
      6          7           0        3.858171    0.411145   -0.357548
      7          6           0        2.985728   -0.693076   -0.163494
      8          6           0        1.657255   -0.297939   -0.669869
      9          6           0        1.765880    1.232841   -0.992273
     10          6           0        3.269638    1.494405   -0.801444
     11          6           0        1.047404    1.720288   -2.316397
     12          6           0        0.484678   -0.644814    0.224039
     13          6           0       -0.846394   -0.033314   -0.057867
     14          6           0       -1.850077   -1.026947   -0.515159
     15          8           0       -2.032806   -1.295426   -1.714860
     16          8           0       -2.483632   -1.561793    0.541777
     17          7           0        6.091752    2.452436   -0.266540
     18          6           0        5.070228    3.286101   -0.633255
     19          6           0        5.476390    4.661988   -0.768723
     20          6           0        6.843499    4.692662   -0.361453
     21          6           0        7.223867    3.287636   -0.067477
     22          6           0        4.538862    5.777775   -1.203590
     23          6           0        7.851089    5.824591   -0.215635
     24          8           0        9.032416    5.609532    0.011984
     25          6           0        7.276628    7.267614   -0.323457
     26          7           0        8.139953    0.244536    0.069461
     27          6           0        8.857227    1.384503    0.312818
     28          6           0       10.337257    0.954654    0.596833
     29          6           0       10.171515   -0.617756    0.870814
     30          6           0        8.768166   -0.861595    0.412325
     31          6           0       11.278637    1.281975   -0.520296
     32          6           0       10.499022   -1.088960    2.343061
     33          6           0        9.408352   -1.017302    3.413138
     34          7           0        5.889522   -1.599030    0.278627
     35          6           0        6.885233   -2.508404    0.359239
     36          6           0        6.307328   -3.871375    0.377149
     37          6           0        4.941300   -3.682798    0.412297
     38          6           0        4.734431   -2.316403    0.256533
     39          6           0        7.131437   -5.089830    0.400599
     40          6           0        3.718882   -4.393511    0.353820
     41          8           0        3.428586   -5.538465    0.252302
     42          6           0        2.700775   -3.281694    0.163127
     43          6           0        1.945209   -3.597925   -1.105547
     44          8           0        2.529268   -3.658142   -2.131318
     45          8           0        0.698259   -4.063579   -0.891023
     46          6           0       -0.133948   -4.402674   -2.070292
     47          6           0       -3.326611   -2.705931    0.237444
     48          6           0       -4.766966   -2.299995    0.341873
     49          6           0       -5.872593   -3.026715    0.366243
     50          6           0       -5.893400   -4.493656    0.035078
     51          6           0       -7.265204   -2.325073    0.637474
     52          6           0       -7.863207   -1.647002   -0.608640
     53          6           0       -7.638782   -0.163517   -0.695638
     54          6           0       -8.904525    0.725359   -0.476215
     55          6           0       -9.624984    1.004767   -1.902362
     56          6           0       -8.659862    2.036897    0.340665
     57          6           0       -9.467082    1.988869    1.722350
     58          6           0      -10.729718    2.901884    1.740869
     59          6           0      -11.981858    2.293777    2.310697
     60          6           0      -11.860450    2.098313    3.839626
     61          6           0      -12.455342    0.988093    1.563654
     62          6           0      -13.972658    0.846261    1.306536
     63          6           0      -14.361808    1.449198   -0.031128
     64          6           0      -15.576061    0.887655   -0.824062
     65          6           0      -15.329647   -0.241447   -1.835047
     66          6           0      -16.488745    1.992315   -1.402950
     67          1           0        3.016753    3.508159   -1.184517
     68          1           0        9.335282    3.404460    0.328265
     69          1           0        8.981850   -2.856660    0.749572
     70          1           0        1.514923   -0.868445   -1.586525
     71          1           0        1.451892    1.812796   -0.124439
     72          1           0        1.674245    2.149148   -3.097890
     73          1           0        0.373602    2.505060   -1.972352
     74          1           0        0.504166    0.882583   -2.753409
     75          1           0        0.690469   -0.265072    1.224886
     76          1           0        0.339410   -1.716285    0.363761
     77          1           0       -0.778665    0.886010   -0.640349
     78          1           0       -1.142371    0.317886    0.930657
     79          1           0        3.708147    5.386987   -1.791963
     80          1           0        5.097365    6.444445   -1.861850
     81          1           0        4.207279    6.492127   -0.449917
     82          1           0        6.355020    7.451739    0.229131
     83          1           0        7.124207    7.490281   -1.379573
     84          1           0        8.001943    8.044776   -0.085220
     85          1           0       10.729816    1.394319    1.513917
     86          1           0       10.759286   -1.201779    0.161460
     87          1           0       10.800815    1.366979   -1.495777
     88          1           0       12.083907    0.557494   -0.647473
     89          1           0       11.749373    2.237847   -0.291124
     90          1           0       11.381280   -0.550756    2.687151
     91          1           0       10.731060   -2.154230    2.354323
     92          1           0        8.618293   -0.300045    3.187256
     93          1           0        9.894261   -0.678425    4.327908
     94          1           0        8.946587   -1.996141    3.546229
     95          1           0        7.529922   -5.182285   -0.610068
     96          1           0        6.459523   -5.939118    0.528152
     97          1           0        7.935296   -5.157194    1.132261
     98          1           0        1.980012   -3.296080    0.980558
     99          1           0        0.207688   -3.894663   -2.972994
    100          1           0       -1.112448   -3.929395   -2.001814
    101          1           0       -0.092605   -5.487029   -2.177440
    102          1           0       -3.149715   -3.380076    1.075123
    103          1           0       -3.228422   -3.192532   -0.732752
    104          1           0       -4.978662   -1.271705    0.635295
    105          1           0       -4.898810   -4.918754    0.174380
    106          1           0       -6.305074   -4.605354   -0.967488
    107          1           0       -6.493842   -5.052560    0.752301
    108          1           0       -7.190771   -1.557317    1.407271
    109          1           0       -8.001182   -3.116055    0.781917
    110          1           0       -8.950968   -1.709691   -0.582072
    111          1           0       -7.398775   -2.111945   -1.478591
    112          1           0       -7.234780    0.018176   -1.691678
    113          1           0       -6.838946    0.046830    0.014068
    114          1           0       -9.638519    0.080088    0.005361
    115          1           0      -10.203133    1.897121   -1.661078
    116          1           0      -10.395099    0.235135   -1.851987
    117          1           0       -8.868289    0.975798   -2.686533
    118          1           0       -8.849626    2.972670   -0.185640
    119          1           0       -7.617266    1.944853    0.644297
    120          1           0       -8.796639    2.440974    2.453125
    121          1           0       -9.603719    0.988838    2.134447
    122          1           0      -10.990615    3.173615    0.717491
    123          1           0      -10.544006    3.846145    2.251042
    124          1           0      -12.812965    2.948324    2.050514
    125          1           0      -12.634465    2.620951    4.401591
    126          1           0      -10.946416    2.580879    4.186304
    127          1           0      -11.815175    1.013332    3.938239
    128          1           0      -12.206687    0.078838    2.110124
    129          1           0      -11.951987    0.905495    0.600978
    130          1           0      -14.490035    1.426379    2.070739
    131          1           0      -14.247657   -0.203295    1.412874
    132          1           0      -13.478189    1.336100   -0.659859
    133          1           0      -14.422845    2.482436    0.311753
    134          1           0      -16.123850    0.416947   -0.008680
    135          1           0      -14.298819   -0.565653   -1.971811
    136          1           0      -15.749169   -0.044934   -2.821513
    137          1           0      -15.909154   -1.064156   -1.414292
    138          1           0      -17.494377    2.004098   -0.984481
    139          1           0      -16.510365    1.892485   -2.488255
    140          1           0      -16.066633    2.992819   -1.303568
 ---------------------------------------------------------------------

 SCF Done:  E(RZINDO/S) =  -474.809471705     A.U. after   20 cycles

 Excitation energies and oscillator strengths:

 Excited State   1:      Singlet-A      1.2700 eV  976.22 nm  f=0.6092  <S**2>=0.000
     175 ->178        -0.19658
     176 ->177         0.66009
 This state for optimization and/or second-order correction.
 Total Energy, E(CIS/TDA) =  -474.762798624
 Copying the excited state density for this state as the 1-particle RhoCI density.

 Excited State   2:      Singlet-A      1.9226 eV  644.88 nm  f=0.0084  <S**2>=0.000
     175 ->177         0.50708
     176 ->178         0.46974

 Excited State   3:      Singlet-A      2.9249 eV  423.89 nm  f=0.3292  <S**2>=0.000
     170 ->177        -0.14044
     170 ->178        -0.12013
     170 ->179        -0.15638
     170 ->181        -0.16535
     175 ->177        -0.23707
     176 ->178         0.29092
     176 ->179         0.42821

 Excited State   4:      Singlet-A      2.9748 eV  416.78 nm  f=0.2023  <S**2>=0.000
     169 ->177         0.13099
     169 ->178         0.10897
     169 ->179         0.14653
     169 ->181         0.15678
     170 ->177         0.21459
     170 ->178         0.16266
     170 ->179         0.23873
     170 ->181         0.22045
     170 ->185         0.14117
     175 ->177        -0.16897
     176 ->178         0.20479
     176 ->179         0.23705

 Excited State   5:      Singlet-A      3.0330 eV  408.79 nm  f=0.5510  <S**2>=0.000
     168 ->177        -0.12714
     168 ->179         0.17364
     168 ->181        -0.10904
     171 ->177         0.10923
     175 ->177         0.29695
     176 ->178        -0.31583
     176 ->179         0.41468

 The electronic state is 1-A.
 Alpha  occ. eigenvalues --   -1.88205  -1.82300  -1.80283  -1.75638  -1.74652
 Alpha  occ. eigenvalues --   -1.71164  -1.65716  -1.61682  -1.61284  -1.57584
 Alpha  occ. eigenvalues --   -1.54892  -1.52818  -1.50799  -1.48893  -1.45642
 Alpha  occ. eigenvalues --   -1.45317  -1.44844  -1.40996  -1.39745  -1.38822
 Alpha  occ. eigenvalues --   -1.36942  -1.34807  -1.34291  -1.32187  -1.28934
 Alpha  occ. eigenvalues --   -1.26654  -1.24863  -1.23203  -1.21231  -1.19543
 Alpha  occ. eigenvalues --   -1.18196  -1.15540  -1.15188  -1.13682  -1.13503
 Alpha  occ. eigenvalues --   -1.12110  -1.11231  -1.10937  -1.04740  -1.04408
 Alpha  occ. eigenvalues --   -1.03658  -1.01475  -1.00330  -0.98088  -0.97217
 Alpha  occ. eigenvalues --   -0.96346  -0.94408  -0.94035  -0.92857  -0.91012
 Alpha  occ. eigenvalues --   -0.90060  -0.89624  -0.89362  -0.87557  -0.86304
 Alpha  occ. eigenvalues --   -0.85847  -0.84360  -0.83082  -0.81587  -0.80884
 Alpha  occ. eigenvalues --   -0.80031  -0.78647  -0.78207  -0.76186  -0.75784
 Alpha  occ. eigenvalues --   -0.75482  -0.75308  -0.75261  -0.74458  -0.74095
 Alpha  occ. eigenvalues --   -0.73393  -0.73085  -0.72195  -0.71695  -0.70946
 Alpha  occ. eigenvalues --   -0.70074  -0.69524  -0.68607  -0.68107  -0.67702
 Alpha  occ. eigenvalues --   -0.67207  -0.66743  -0.65964  -0.65798  -0.65188
 Alpha  occ. eigenvalues --   -0.65128  -0.64769  -0.64441  -0.63606  -0.63172
 Alpha  occ. eigenvalues --   -0.63058  -0.62602  -0.62445  -0.61967  -0.61607
 Alpha  occ. eigenvalues --   -0.61312  -0.60818  -0.60259  -0.59967  -0.59884
 Alpha  occ. eigenvalues --   -0.59445  -0.59145  -0.58661  -0.58416  -0.58234
 Alpha  occ. eigenvalues --   -0.57805  -0.57538  -0.57179  -0.56880  -0.56229
 Alpha  occ. eigenvalues --   -0.55879  -0.55641  -0.55172  -0.54862  -0.54751
 Alpha  occ. eigenvalues --   -0.54122  -0.54078  -0.53695  -0.53340  -0.52850
 Alpha  occ. eigenvalues --   -0.52206  -0.52153  -0.51947  -0.51741  -0.51239
 Alpha  occ. eigenvalues --   -0.51060  -0.50623  -0.50497  -0.50383  -0.50011
 Alpha  occ. eigenvalues --   -0.49562  -0.49376  -0.49300  -0.48972  -0.48440
 Alpha  occ. eigenvalues --   -0.48366  -0.48226  -0.47982  -0.47786  -0.47376
 Alpha  occ. eigenvalues --   -0.47265  -0.47092  -0.46672  -0.46468  -0.46020
 Alpha  occ. eigenvalues --   -0.45953  -0.45741  -0.45490  -0.45280  -0.45022
 Alpha  occ. eigenvalues --   -0.44989  -0.44303  -0.44203  -0.43925  -0.43645
 Alpha  occ. eigenvalues --   -0.43404  -0.42991  -0.42365  -0.42252  -0.42204
 Alpha  occ. eigenvalues --   -0.41645  -0.41328  -0.41001  -0.38870  -0.38497
 Alpha  occ. eigenvalues --   -0.37405  -0.36530  -0.35714  -0.35117  -0.34529
 Alpha  occ. eigenvalues --   -0.33450  -0.32644  -0.32409  -0.32338  -0.26608
 Alpha  occ. eigenvalues --   -0.21374
 Alpha virt. eigenvalues --   -0.08017  -0.02217  -0.00343   0.01685   0.01741
 Alpha virt. eigenvalues --    0.03268   0.03684   0.03712   0.05154   0.05461
 Alpha virt. eigenvalues --    0.06589   0.07085   0.07564   0.08454   0.08717

 Mulliken charges:
               1
     1  Mg   0.418036
     2  C   -0.009939
     3  C   -0.082039
     4  C   -0.066823
     5  C   -0.085388
     6  N   -0.269916
     7  C    0.073974
     8  C    0.016742
     9  C   -0.009377
    10  C    0.143705
    11  C   -0.051105
    12  C   -0.013938
    13  C    0.004779
    14  C    0.482092
    15  O   -0.544190
    16  O   -0.252807
    17  N   -0.339895
    18  C    0.115696
    19  C    0.012799
    20  C   -0.047899
    21  C    0.132105
    22  C   -0.042630
    23  C    0.331729
    24  O   -0.510391
    25  C   -0.036454
    26  N   -0.276257
    27  C    0.141514
    28  C    0.004648
    29  C   -0.007704
    30  C    0.156112
    31  C   -0.042076
    32  C   -0.027290
    33  C   -0.051751
    34  N   -0.317952
    35  C    0.103460
    36  C    0.030331
    37  C   -0.040418
    38  C    0.106518
    39  C   -0.037416
    40  C    0.350832
    41  O   -0.502899
    42  C    0.052175
    43  C    0.492485
    44  O   -0.512805
    45  O   -0.275177
    46  C    0.069194
    47  C    0.110110
    48  C   -0.083702
    49  C   -0.018251
    50  C   -0.042749
    51  C   -0.030371
    52  C   -0.035576
    53  C   -0.036663
    54  C   -0.029428
    55  C   -0.081317
    56  C   -0.036912
    57  C   -0.042056
    58  C   -0.023424
    59  C   -0.010916
    60  C   -0.061171
    61  C   -0.042036
    62  C   -0.034515
    63  C   -0.037182
    64  C   -0.007289
    65  C   -0.053148
    66  C   -0.058055
    67  H    0.017643
    68  H    0.047651
    69  H    0.016707
    70  H    0.041226
    71  H    0.029888
    72  H    0.029199
    73  H    0.017414
    74  H    0.031532
    75  H    0.011965
    76  H    0.026948
    77  H    0.044657
    78  H    0.019965
    79  H    0.029210
    80  H    0.019264
    81  H    0.036577
    82  H    0.036927
    83  H    0.035283
    84  H    0.031884
    85  H    0.028234
    86  H    0.028868
    87  H    0.024701
    88  H    0.015994
    89  H    0.019019
    90  H    0.018722
    91  H    0.016368
    92  H    0.022029
    93  H    0.016362
    94  H    0.022503
    95  H    0.034053
    96  H    0.025672
    97  H    0.033451
    98  H    0.042149
    99  H    0.044423
   100  H    0.042509
   101  H    0.051295
   102  H    0.040132
   103  H    0.068471
   104  H    0.023723
   105  H    0.020213
   106  H    0.037385
   107  H    0.020911
   108  H    0.034909
   109  H    0.018887
   110  H    0.019810
   111  H    0.022384
   112  H    0.014068
   113  H    0.016521
   114  H    0.021095
   115  H    0.024326
   116  H    0.021218
   117  H    0.046241
   118  H    0.034493
   119  H    0.014932
   120  H    0.003601
   121  H    0.031338
   122  H    0.007531
   123  H    0.016737
   124  H    0.013687
   125  H    0.022795
   126  H    0.015775
   127  H    0.029441
   128  H    0.010879
   129  H    0.017677
   130  H    0.014623
   131  H    0.016160
   132  H    0.013929
   133  H    0.022354
   134  H    0.011865
   135  H    0.022827
   136  H    0.020907
   137  H    0.014375
   138  H    0.024341
   139  H    0.015473
   140  H    0.013938
 Sum of Mulliken charges =  -0.00000

 Dipole moment (field-independent basis, Debye):
    X=             -3.7804    Y=              4.8114    Z=              3.8209  Tot=              7.2139
 N-N= 4.307838321275D+03 E-N= 0.000000000000D+00  KE=-9.290851725842D+03
 Leave Link  601 at Thu May  5 03:13:10 2022, MaxMem=  6710886400 cpu:               1.0 elap:               0.1
 (Enter /sw/apps/gaussian-16.0/g16/l9999.exe)
 1\1\GINC-BP1-COMPUTE135\SP\RZINDO CIS\STO-3G\C55H74Mg1N4O6\OF15641\05-
 May-2022\0\\#p ZINDO=(nstates=5)\\step_51_chromophore_10 ZINDO\\0,1\Mg
 ,0,41.159,7.966,29.632\C,0,42.672,9.648,32.252\C,0,38.906,6.606,31.671
 \C,0,39.641,6.567,26.888\C,0,43.788,8.949,27.631\N,0,40.806,8.127,31.7
 17\C,0,41.492,8.991,32.612\C,0,41.017,8.68,33.974\C,0,39.817,7.688,33.
 787\C,0,39.879,7.391,32.279\C,0,39.734,6.49,34.819\C,0,40.682,9.876,34
 .841\C,0,39.926,9.662,36.109\C,0,40.74,9.944,37.318\O,0,41.408,9.071,3

 Normal termination of Gaussian 16 at Thu May  5 03:13:10 2022.
