 Gaussian 16, Revision A.03,
 Gaussian 16:  ES64L-G16RevA.03 25-Dec-2016

 ------------------------------
 #p blyp/Def2SVP td=(nstates=5)
 ------------------------------

 ---------------------------------------------------
 step_1851_chromophore_10 TDDFT with blyp functional
 ---------------------------------------------------
 Symbolic Z-matrix:
 Charge =  0 Multiplicity = 1

                         Standard orientation:
 ---------------------------------------------------------------------
 Center     Atomic      Atomic             Coordinates (Angstroms)
 Number     Number       Type             X           Y           Z
 ---------------------------------------------------------------------
      1         12           0        6.117436    0.730968    0.210569
      2          6           0        4.092659   -2.178793    0.149638
      3          6           0        3.589418    2.200168   -1.825762
      4          6           0        8.077685    3.354562   -0.222673
      5          6           0        8.674404   -1.070881    1.548045
      6          7           0        4.222611   -0.010428   -0.880973
      7          6           0        3.548950   -1.166855   -0.626235
      8          6           0        2.143392   -1.151297   -1.190541
      9          6           0        2.142575    0.147300   -2.079811
     10          6           0        3.385802    0.873102   -1.610904
     11          6           0        2.269215   -0.039802   -3.632597
     12          6           0        1.098803   -1.071518    0.001656
     13          6           0       -0.368504   -0.782692   -0.409149
     14          6           0       -1.318212   -1.996990   -0.330118
     15          8           0       -1.133776   -3.067474   -0.941684
     16          8           0       -2.389435   -1.707623    0.464061
     17          7           0        5.785404    2.654366   -0.649271
     18          6           0        4.673999    3.091953   -1.302379
     19          6           0        4.890287    4.587463   -1.413531
     20          6           0        6.163062    4.916885   -0.854348
     21          6           0        6.738994    3.598954   -0.572779
     22          6           0        3.858625    5.325047   -2.016885
     23          6           0        6.859458    6.267140   -0.691546
     24          8           0        7.871326    6.470115   -0.025423
     25          6           0        6.180683    7.422883   -1.280425
     26          7           0        8.099940    1.031435    0.517968
     27          6           0        8.661625    2.208893    0.286847
     28          6           0       10.118814    2.214086    0.672904
     29          6           0       10.197455    0.898854    1.464340
     30          6           0        8.889168    0.228259    1.187688
     31          6           0       11.204847    2.351475   -0.480239
     32          6           0       10.564977    1.097620    2.945594
     33          6           0        9.394539    1.418727    3.953497
     34          7           0        6.497672   -1.247163    0.766049
     35          6           0        7.566876   -1.860865    1.324461
     36          6           0        7.281509   -3.235593    1.728459
     37          6           0        5.905946   -3.396021    1.298162
     38          6           0        5.473526   -2.169398    0.708877
     39          6           0        8.123967   -4.268653    2.475214
     40          6           0        4.814932   -4.351253    1.291851
     41          8           0        4.682523   -5.508523    1.638924
     42          6           0        3.570240   -3.551388    0.642921
     43          6           0        2.999837   -4.361533   -0.438968
     44          8           0        3.628497   -4.735701   -1.431455
     45          8           0        1.735967   -4.714400   -0.109104
     46          6           0        1.151446   -5.858284   -0.858661
     47          6           0       -3.298202   -2.792180    0.829227
     48          6           0       -4.481497   -2.490463   -0.016008
     49          6           0       -5.398266   -3.325574   -0.597088
     50          6           0       -5.543785   -4.885309   -0.538436
     51          6           0       -6.326821   -2.724148   -1.750449
     52          6           0       -7.672119   -2.132251   -1.354900
     53          6           0       -7.915092   -0.720150   -1.944059
     54          6           0       -9.448311   -0.383488   -2.032509
     55          6           0      -10.020303   -0.547747   -3.435075
     56          6           0       -9.806427    1.054348   -1.390332
     57          6           0      -10.612505    1.122427   -0.047744
     58          6           0      -12.075003    1.564132   -0.448458
     59          6           0      -13.125212    0.580373    0.031315
     60          6           0      -13.276513   -0.491885   -0.984593
     61          6           0      -14.406067    1.351608    0.445601
     62          6           0      -14.639292    1.344118    2.003907
     63          6           0      -14.924575    2.761664    2.576279
     64          6           0      -16.341010    2.833981    3.140415
     65          6           0      -17.355128    2.982844    1.997636
     66          6           0      -16.386795    4.028367    4.103197
     67          1           0        2.727118    2.544255   -2.400477
     68          1           0        8.732153    4.228788   -0.236798
     69          1           0        9.434813   -1.606522    2.120949
     70          1           0        1.898369   -2.018855   -1.804159
     71          1           0        1.282450    0.768926   -1.832239
     72          1           0        1.437272    0.557297   -4.007161
     73          1           0        2.122128   -1.096281   -3.856853
     74          1           0        3.154892    0.256618   -4.192915
     75          1           0        1.418615   -0.373364    0.775383
     76          1           0        1.023035   -2.033768    0.508395
     77          1           0       -0.452361   -0.209586   -1.332613
     78          1           0       -0.603906   -0.047389    0.360613
     79          1           0        2.943098    4.802452   -2.293850
     80          1           0        4.340117    5.809134   -2.867212
     81          1           0        3.571001    6.098784   -1.305849
     82          1           0        6.790384    8.323685   -1.202660
     83          1           0        5.243236    7.525074   -0.733921
     84          1           0        5.867744    7.264990   -2.313179
     85          1           0       10.159533    3.080907    1.331747
     86          1           0       10.951796    0.253019    1.016187
     87          1           0       11.938752    1.546579   -0.435629
     88          1           0       11.687877    3.318236   -0.342365
     89          1           0       10.715054    2.160042   -1.435267
     90          1           0       11.100418    2.044369    3.009564
     91          1           0       11.125983    0.249095    3.337093
     92          1           0        9.589176    2.351997    4.482806
     93          1           0        9.264156    0.480763    4.493706
     94          1           0        8.413468    1.669129    3.549693
     95          1           0        8.733042   -3.693081    3.171153
     96          1           0        8.826984   -4.686992    1.754485
     97          1           0        7.538877   -5.027913    2.994799
     98          1           0        2.880396   -3.302494    1.449210
     99          1           0        1.920727   -6.416882   -1.392882
    100          1           0        0.341519   -5.495502   -1.491536
    101          1           0        0.817733   -6.613483   -0.147308
    102          1           0       -3.625632   -2.695268    1.864305
    103          1           0       -2.944603   -3.785540    0.549802
    104          1           0       -4.436449   -1.452561   -0.345041
    105          1           0       -6.278301   -5.149380    0.221615
    106          1           0       -4.628870   -5.353731   -0.175271
    107          1           0       -5.675462   -5.303264   -1.536658
    108          1           0       -6.462548   -3.511049   -2.492557
    109          1           0       -5.682398   -1.958609   -2.183449
    110          1           0       -7.639642   -2.005045   -0.272768
    111          1           0       -8.451010   -2.854048   -1.599196
    112          1           0       -7.500387   -0.614009   -2.946180
    113          1           0       -7.443366   -0.011915   -1.262979
    114          1           0       -9.937266   -1.201666   -1.502634
    115          1           0       -9.875484    0.245539   -4.169243
    116          1           0      -11.020899   -0.979615   -3.420608
    117          1           0       -9.422187   -1.334075   -3.895545
    118          1           0      -10.207774    1.559833   -2.267837
    119          1           0       -8.851985    1.562986   -1.254525
    120          1           0      -10.193401    1.925103    0.557727
    121          1           0      -10.667237    0.209012    0.545097
    122          1           0      -12.159942    1.760056   -1.517056
    123          1           0      -12.280078    2.531655    0.011582
    124          1           0      -12.769482   -0.040690    0.853804
    125          1           0      -13.658649   -0.016356   -1.888128
    126          1           0      -14.090975   -1.199756   -0.830208
    127          1           0      -12.389876   -1.018812   -1.336105
    128          1           0      -15.224297    0.895472   -0.112036
    129          1           0      -14.341791    2.352490    0.017771
    130          1           0      -13.759118    0.971684    2.527163
    131          1           0      -15.529146    0.748545    2.206604
    132          1           0      -14.942656    3.481353    1.758559
    133          1           0      -14.209399    2.888818    3.388602
    134          1           0      -16.563035    1.920934    3.692958
    135          1           0      -17.054135    3.059461    0.952869
    136          1           0      -17.956885    3.888965    2.066528
    137          1           0      -18.048692    2.145783    1.914394
    138          1           0      -17.377149    4.480778    4.165028
    139          1           0      -15.703927    4.775452    3.697682
    140          1           0      -16.149395    3.775872    5.136052
 ---------------------------------------------------------------------

 SCF Done:  E(RB-LYP) =  -3007.33757326     A.U. after   21 cycles

 Excitation energies and oscillator strengths:

 Excited State   1:      Singlet-A      1.7995 eV  688.99 nm  f=0.3198  <S**2>=0.000
     245 -> 248        0.15482
     245 -> 249       -0.10528
     246 -> 247        0.69016
     246 <- 247       -0.16205
 This state for optimization and/or second-order correction.
 Total Energy, E(TD-HF/TD-DFT) =  -3007.27144302
 Copying the excited state density for this state as the 1-particle RhoCI density.

 Excited State   2:      Singlet-A      1.8892 eV  656.28 nm  f=0.0641  <S**2>=0.000
     244 -> 247        0.39516
     245 -> 247        0.55351
     246 -> 248       -0.10931

 Excited State   3:      Singlet-A      2.0333 eV  609.76 nm  f=0.0135  <S**2>=0.000
     243 -> 247        0.51143
     244 -> 247       -0.43046
     245 -> 247        0.20347

 Excited State   4:      Singlet-A      2.0712 eV  598.62 nm  f=0.0286  <S**2>=0.000
     243 -> 247        0.47828
     244 -> 247        0.38879
     245 -> 247       -0.30551
     246 -> 248        0.10252

 Excited State   5:      Singlet-A      2.4192 eV  512.51 nm  f=0.0001  <S**2>=0.000
     240 -> 247        0.70673

 The electronic state is 1-A.
 Alpha  occ. eigenvalues --  -46.27136 -18.83301 -18.81140 -18.77530 -18.75690
 Alpha  occ. eigenvalues --  -18.75684 -18.75039 -14.02633 -14.02613 -14.01091
 Alpha  occ. eigenvalues --  -14.00403 -10.05266 -10.02423  -9.99976  -9.99449
 Alpha  occ. eigenvalues --   -9.98557  -9.96621  -9.96290  -9.96202  -9.95967
 Alpha  occ. eigenvalues --   -9.95559  -9.95469  -9.95370  -9.94856  -9.94834
 Alpha  occ. eigenvalues --   -9.94101  -9.94017  -9.94009  -9.93991  -9.93980
 Alpha  occ. eigenvalues --   -9.93696  -9.93674  -9.93586  -9.93361  -9.92965
 Alpha  occ. eigenvalues --   -9.92866  -9.92802  -9.92754  -9.92671  -9.92622
 Alpha  occ. eigenvalues --   -9.92605  -9.92569  -9.92453  -9.92433  -9.91930
 Alpha  occ. eigenvalues --   -9.91922  -9.91888  -9.91818  -9.91772  -9.91769
 Alpha  occ. eigenvalues --   -9.91734  -9.91706  -9.91588  -9.91433  -9.91258
 Alpha  occ. eigenvalues --   -9.91215  -9.91145  -9.91058  -9.90911  -9.90894
 Alpha  occ. eigenvalues --   -9.90784  -9.90698  -9.90649  -9.90551  -9.90420
 Alpha  occ. eigenvalues --   -9.90183  -2.91786  -1.72191  -1.71676  -1.71500
 Alpha  occ. eigenvalues --   -0.98478  -0.96366  -0.91433  -0.91339  -0.89943
 Alpha  occ. eigenvalues --   -0.88411  -0.87998  -0.85641  -0.85232  -0.84298
 Alpha  occ. eigenvalues --   -0.74241  -0.73284  -0.72912  -0.72399  -0.72321
 Alpha  occ. eigenvalues --   -0.72026  -0.71913  -0.71434  -0.71166  -0.70936
 Alpha  occ. eigenvalues --   -0.69152  -0.68958  -0.68044  -0.67206  -0.66993
 Alpha  occ. eigenvalues --   -0.66442  -0.66267  -0.65259  -0.64912  -0.64368
 Alpha  occ. eigenvalues --   -0.64126  -0.62770  -0.62156  -0.61619  -0.60351
 Alpha  occ. eigenvalues --   -0.60216  -0.60069  -0.59877  -0.59547  -0.58772
 Alpha  occ. eigenvalues --   -0.58026  -0.57666  -0.56589  -0.55436  -0.55129
 Alpha  occ. eigenvalues --   -0.53824  -0.53579  -0.52401  -0.51955  -0.51765
 Alpha  occ. eigenvalues --   -0.51282  -0.50821  -0.50750  -0.50167  -0.49886
 Alpha  occ. eigenvalues --   -0.49699  -0.49253  -0.49006  -0.47470  -0.46642
 Alpha  occ. eigenvalues --   -0.46368  -0.45811  -0.45518  -0.45157  -0.44803
 Alpha  occ. eigenvalues --   -0.44028  -0.43646  -0.42962  -0.42434  -0.42265
 Alpha  occ. eigenvalues --   -0.42186  -0.41734  -0.41592  -0.41354  -0.41226
 Alpha  occ. eigenvalues --   -0.40977  -0.40539  -0.40452  -0.40272  -0.40236
 Alpha  occ. eigenvalues --   -0.39930  -0.39817  -0.39533  -0.39156  -0.38828
 Alpha  occ. eigenvalues --   -0.38714  -0.38607  -0.38368  -0.38202  -0.38153
 Alpha  occ. eigenvalues --   -0.38047  -0.37620  -0.37423  -0.37398  -0.37233
 Alpha  occ. eigenvalues --   -0.37148  -0.36861  -0.36802  -0.36473  -0.36320
 Alpha  occ. eigenvalues --   -0.36173  -0.35858  -0.35759  -0.35623  -0.35408
 Alpha  occ. eigenvalues --   -0.35266  -0.34983  -0.34858  -0.34502  -0.34480
 Alpha  occ. eigenvalues --   -0.34340  -0.34269  -0.34162  -0.33919  -0.33767
 Alpha  occ. eigenvalues --   -0.33693  -0.33487  -0.33261  -0.33017  -0.32842
 Alpha  occ. eigenvalues --   -0.32719  -0.32660  -0.32510  -0.32375  -0.32172
 Alpha  occ. eigenvalues --   -0.31943  -0.31794  -0.31660  -0.31646  -0.31409
 Alpha  occ. eigenvalues --   -0.31316  -0.31163  -0.30805  -0.30750  -0.30377
 Alpha  occ. eigenvalues --   -0.30293  -0.30015  -0.29841  -0.29573  -0.29533
 Alpha  occ. eigenvalues --   -0.29414  -0.29089  -0.29047  -0.28899  -0.28486
 Alpha  occ. eigenvalues --   -0.28327  -0.28175  -0.28151  -0.27752  -0.27748
 Alpha  occ. eigenvalues --   -0.27492  -0.27456  -0.27028  -0.26517  -0.26406
 Alpha  occ. eigenvalues --   -0.26260  -0.25818  -0.25576  -0.25249  -0.25042
 Alpha  occ. eigenvalues --   -0.24734  -0.24582  -0.23761  -0.23430  -0.22982
 Alpha  occ. eigenvalues --   -0.22824  -0.22393  -0.21857  -0.20539  -0.20394
 Alpha  occ. eigenvalues --   -0.20217  -0.19979  -0.18955  -0.18704  -0.16853
 Alpha  occ. eigenvalues --   -0.15602
 Alpha virt. eigenvalues --   -0.11504  -0.06376  -0.05600  -0.04390  -0.03812
 Alpha virt. eigenvalues --   -0.03065  -0.02228  -0.01521  -0.00971   0.00392
 Alpha virt. eigenvalues --    0.01568   0.01837   0.02333   0.02956   0.03020

 Mulliken charges:
               1
     1  Mg   0.689640
     2  C    0.005866
     3  C    0.002894
     4  C   -0.040278
     5  C   -0.119128
     6  N   -0.214085
     7  C   -0.044545
     8  C    0.040037
     9  C   -0.009370
    10  C   -0.037409
    11  C    0.130554
    12  C    0.059672
    13  C    0.127022
    14  C    0.099309
    15  O   -0.207026
    16  O   -0.260633
    17  N   -0.257230
    18  C    0.113134
    19  C   -0.153875
    20  C    0.024272
    21  C    0.086484
    22  C    0.180640
    23  C   -0.064367
    24  O   -0.168965
    25  C    0.142141
    26  N   -0.201156
    27  C    0.006865
    28  C    0.000023
    29  C    0.059465
    30  C    0.063932
    31  C    0.146377
    32  C    0.082020
    33  C    0.043611
    34  N   -0.264912
    35  C    0.103384
    36  C   -0.161960
    37  C    0.050573
    38  C    0.053650
    39  C    0.187954
    40  C   -0.029537
    41  O   -0.120210
    42  C    0.064187
    43  C    0.119569
    44  O   -0.197535
    45  O   -0.265289
    46  C    0.201566
    47  C    0.354273
    48  C   -0.155336
    49  C   -0.141854
    50  C    0.131841
    51  C    0.095941
    52  C    0.088861
    53  C    0.105436
    54  C   -0.107011
    55  C    0.106523
    56  C    0.106886
    57  C    0.118475
    58  C    0.091134
    59  C   -0.073711
    60  C    0.096661
    61  C    0.116883
    62  C    0.094963
    63  C    0.097590
    64  C   -0.091768
    65  C    0.087710
    66  C    0.115520
    67  H   -0.073732
    68  H   -0.051235
    69  H   -0.079592
    70  H   -0.008441
    71  H   -0.023919
    72  H   -0.010416
    73  H   -0.002411
    74  H    0.012651
    75  H   -0.019697
    76  H    0.005531
    77  H    0.007014
    78  H   -0.022836
    79  H   -0.010766
    80  H    0.005851
    81  H   -0.005936
    82  H   -0.002291
    83  H    0.003809
    84  H   -0.006374
    85  H   -0.023965
    86  H   -0.038764
    87  H   -0.014325
    88  H    0.010663
    89  H   -0.004332
    90  H   -0.022791
    91  H   -0.011991
    92  H   -0.005135
    93  H    0.001440
    94  H   -0.011117
    95  H   -0.013263
    96  H    0.006751
    97  H    0.020162
    98  H   -0.002487
    99  H    0.018213
   100  H    0.037449
   101  H    0.006417
   102  H    0.010209
   103  H    0.012167
   104  H   -0.021492
   105  H    0.009506
   106  H   -0.025777
   107  H    0.008073
   108  H   -0.033026
   109  H   -0.024486
   110  H   -0.030102
   111  H   -0.023823
   112  H   -0.030560
   113  H   -0.031734
   114  H   -0.028334
   115  H   -0.012702
   116  H   -0.011653
   117  H   -0.043175
   118  H   -0.041125
   119  H   -0.051360
   120  H   -0.033702
   121  H   -0.016464
   122  H   -0.029541
   123  H   -0.042466
   124  H   -0.034869
   125  H   -0.046895
   126  H   -0.030673
   127  H   -0.014448
   128  H   -0.052091
   129  H   -0.034550
   130  H   -0.023586
   131  H   -0.025274
   132  H   -0.021447
   133  H   -0.034764
   134  H   -0.035872
   135  H   -0.023779
   136  H   -0.026937
   137  H   -0.019860
   138  H   -0.027828
   139  H   -0.016196
   140  H   -0.015842
 Sum of Mulliken charges =  -0.00000

 Dipole moment (field-independent basis, Debye):
    X=             -3.6205    Y=              3.4007    Z=              0.8438  Tot=              5.0383
 Quadrupole moment (field-independent basis, Debye-Ang):
   XX=           -389.4524   YY=           -431.2867   ZZ=           -400.7211
   XY=             14.6747   XZ=              8.0736   YZ=            -10.6752

 Normal termination of Gaussian 16 at Fri Apr 29 03:40:29 2022.
