 Gaussian 16, Revision A.03,
 Gaussian 16:  ES64L-G16RevA.03 25-Dec-2016

 -----------------------------------
 #p cam-b3lyp/Def2SVP td=(nstates=5)
 -----------------------------------

 --------------------------------------------------------
 step_1851_chromophore_10 TDDFT with cam-b3lyp functional
 --------------------------------------------------------
 Symbolic Z-matrix:
 Charge =  0 Multiplicity = 1

                         Standard orientation:
 ---------------------------------------------------------------------
 Center     Atomic      Atomic             Coordinates (Angstroms)
 Number     Number       Type             X           Y           Z
 ---------------------------------------------------------------------
      1         12           0        6.117436    0.730968    0.210569
      2          6           0        4.092659   -2.178793    0.149638
      3          6           0        3.589418    2.200168   -1.825762
      4          6           0        8.077685    3.354562   -0.222673
      5          6           0        8.674404   -1.070881    1.548045
      6          7           0        4.222611   -0.010428   -0.880973
      7          6           0        3.548950   -1.166855   -0.626235
      8          6           0        2.143392   -1.151297   -1.190541
      9          6           0        2.142575    0.147300   -2.079811
     10          6           0        3.385802    0.873102   -1.610904
     11          6           0        2.269215   -0.039802   -3.632597
     12          6           0        1.098803   -1.071518    0.001656
     13          6           0       -0.368504   -0.782692   -0.409149
     14          6           0       -1.318212   -1.996990   -0.330118
     15          8           0       -1.133776   -3.067474   -0.941684
     16          8           0       -2.389435   -1.707623    0.464061
     17          7           0        5.785404    2.654366   -0.649271
     18          6           0        4.673999    3.091953   -1.302379
     19          6           0        4.890287    4.587463   -1.413531
     20          6           0        6.163062    4.916885   -0.854348
     21          6           0        6.738994    3.598954   -0.572779
     22          6           0        3.858625    5.325047   -2.016885
     23          6           0        6.859458    6.267140   -0.691546
     24          8           0        7.871326    6.470115   -0.025423
     25          6           0        6.180683    7.422883   -1.280425
     26          7           0        8.099940    1.031435    0.517968
     27          6           0        8.661625    2.208893    0.286847
     28          6           0       10.118814    2.214086    0.672904
     29          6           0       10.197455    0.898854    1.464340
     30          6           0        8.889168    0.228259    1.187688
     31          6           0       11.204847    2.351475   -0.480239
     32          6           0       10.564977    1.097620    2.945594
     33          6           0        9.394539    1.418727    3.953497
     34          7           0        6.497672   -1.247163    0.766049
     35          6           0        7.566876   -1.860865    1.324461
     36          6           0        7.281509   -3.235593    1.728459
     37          6           0        5.905946   -3.396021    1.298162
     38          6           0        5.473526   -2.169398    0.708877
     39          6           0        8.123967   -4.268653    2.475214
     40          6           0        4.814932   -4.351253    1.291851
     41          8           0        4.682523   -5.508523    1.638924
     42          6           0        3.570240   -3.551388    0.642921
     43          6           0        2.999837   -4.361533   -0.438968
     44          8           0        3.628497   -4.735701   -1.431455
     45          8           0        1.735967   -4.714400   -0.109104
     46          6           0        1.151446   -5.858284   -0.858661
     47          6           0       -3.298202   -2.792180    0.829227
     48          6           0       -4.481497   -2.490463   -0.016008
     49          6           0       -5.398266   -3.325574   -0.597088
     50          6           0       -5.543785   -4.885309   -0.538436
     51          6           0       -6.326821   -2.724148   -1.750449
     52          6           0       -7.672119   -2.132251   -1.354900
     53          6           0       -7.915092   -0.720150   -1.944059
     54          6           0       -9.448311   -0.383488   -2.032509
     55          6           0      -10.020303   -0.547747   -3.435075
     56          6           0       -9.806427    1.054348   -1.390332
     57          6           0      -10.612505    1.122427   -0.047744
     58          6           0      -12.075003    1.564132   -0.448458
     59          6           0      -13.125212    0.580373    0.031315
     60          6           0      -13.276513   -0.491885   -0.984593
     61          6           0      -14.406067    1.351608    0.445601
     62          6           0      -14.639292    1.344118    2.003907
     63          6           0      -14.924575    2.761664    2.576279
     64          6           0      -16.341010    2.833981    3.140415
     65          6           0      -17.355128    2.982844    1.997636
     66          6           0      -16.386795    4.028367    4.103197
     67          1           0        2.727118    2.544255   -2.400477
     68          1           0        8.732153    4.228788   -0.236798
     69          1           0        9.434813   -1.606522    2.120949
     70          1           0        1.898369   -2.018855   -1.804159
     71          1           0        1.282450    0.768926   -1.832239
     72          1           0        1.437272    0.557297   -4.007161
     73          1           0        2.122128   -1.096281   -3.856853
     74          1           0        3.154892    0.256618   -4.192915
     75          1           0        1.418615   -0.373364    0.775383
     76          1           0        1.023035   -2.033768    0.508395
     77          1           0       -0.452361   -0.209586   -1.332613
     78          1           0       -0.603906   -0.047389    0.360613
     79          1           0        2.943098    4.802452   -2.293850
     80          1           0        4.340117    5.809134   -2.867212
     81          1           0        3.571001    6.098784   -1.305849
     82          1           0        6.790384    8.323685   -1.202660
     83          1           0        5.243236    7.525074   -0.733921
     84          1           0        5.867744    7.264990   -2.313179
     85          1           0       10.159533    3.080907    1.331747
     86          1           0       10.951796    0.253019    1.016187
     87          1           0       11.938752    1.546579   -0.435629
     88          1           0       11.687877    3.318236   -0.342365
     89          1           0       10.715054    2.160042   -1.435267
     90          1           0       11.100418    2.044369    3.009564
     91          1           0       11.125983    0.249095    3.337093
     92          1           0        9.589176    2.351997    4.482806
     93          1           0        9.264156    0.480763    4.493706
     94          1           0        8.413468    1.669129    3.549693
     95          1           0        8.733042   -3.693081    3.171153
     96          1           0        8.826984   -4.686992    1.754485
     97          1           0        7.538877   -5.027913    2.994799
     98          1           0        2.880396   -3.302494    1.449210
     99          1           0        1.920727   -6.416882   -1.392882
    100          1           0        0.341519   -5.495502   -1.491536
    101          1           0        0.817733   -6.613483   -0.147308
    102          1           0       -3.625632   -2.695268    1.864305
    103          1           0       -2.944603   -3.785540    0.549802
    104          1           0       -4.436449   -1.452561   -0.345041
    105          1           0       -6.278301   -5.149380    0.221615
    106          1           0       -4.628870   -5.353731   -0.175271
    107          1           0       -5.675462   -5.303264   -1.536658
    108          1           0       -6.462548   -3.511049   -2.492557
    109          1           0       -5.682398   -1.958609   -2.183449
    110          1           0       -7.639642   -2.005045   -0.272768
    111          1           0       -8.451010   -2.854048   -1.599196
    112          1           0       -7.500387   -0.614009   -2.946180
    113          1           0       -7.443366   -0.011915   -1.262979
    114          1           0       -9.937266   -1.201666   -1.502634
    115          1           0       -9.875484    0.245539   -4.169243
    116          1           0      -11.020899   -0.979615   -3.420608
    117          1           0       -9.422187   -1.334075   -3.895545
    118          1           0      -10.207774    1.559833   -2.267837
    119          1           0       -8.851985    1.562986   -1.254525
    120          1           0      -10.193401    1.925103    0.557727
    121          1           0      -10.667237    0.209012    0.545097
    122          1           0      -12.159942    1.760056   -1.517056
    123          1           0      -12.280078    2.531655    0.011582
    124          1           0      -12.769482   -0.040690    0.853804
    125          1           0      -13.658649   -0.016356   -1.888128
    126          1           0      -14.090975   -1.199756   -0.830208
    127          1           0      -12.389876   -1.018812   -1.336105
    128          1           0      -15.224297    0.895472   -0.112036
    129          1           0      -14.341791    2.352490    0.017771
    130          1           0      -13.759118    0.971684    2.527163
    131          1           0      -15.529146    0.748545    2.206604
    132          1           0      -14.942656    3.481353    1.758559
    133          1           0      -14.209399    2.888818    3.388602
    134          1           0      -16.563035    1.920934    3.692958
    135          1           0      -17.054135    3.059461    0.952869
    136          1           0      -17.956885    3.888965    2.066528
    137          1           0      -18.048692    2.145783    1.914394
    138          1           0      -17.377149    4.480778    4.165028
    139          1           0      -15.703927    4.775452    3.697682
    140          1           0      -16.149395    3.775872    5.136052
 ---------------------------------------------------------------------

 SCF Done:  E(RCAM-B3LYP) =  -3007.12934417     A.U. after   17 cycles

 Excitation energies and oscillator strengths:

 Excited State   1:      Singlet-A      1.6745 eV  740.41 nm  f=0.4164  <S**2>=0.000
     245 -> 248        0.16026
     246 -> 247        0.68969
     245 <- 248        0.10164
 This state for optimization and/or second-order correction.
 Total Energy, E(TD-HF/TD-DFT) =  -3007.06780592
 Copying the excited state density for this state as the 1-particle RhoCI density.

 Excited State   2:      Singlet-A      2.1668 eV  572.20 nm  f=0.1516  <S**2>=0.000
     245 -> 247        0.66069
     246 -> 248       -0.23292

 Excited State   3:      Singlet-A      3.2726 eV  378.86 nm  f=0.0006  <S**2>=0.000
     243 -> 247       -0.19837
     244 -> 247        0.65839

 Excited State   4:      Singlet-A      3.3863 eV  366.14 nm  f=0.0008  <S**2>=0.000
     243 -> 247        0.63440
     244 -> 247        0.17152
     246 -> 248        0.20509

 Excited State   5:      Singlet-A      3.5115 eV  353.08 nm  f=0.0697  <S**2>=0.000
     240 -> 247        0.17737
     240 -> 249        0.10255
     241 -> 247        0.52937
     241 -> 249        0.20676
     241 -> 251       -0.16039
     243 -> 247       -0.11232
     244 -> 247       -0.11535
     246 -> 248        0.20992

 The electronic state is 1-A.
 Alpha  occ. eigenvalues --  -46.88743 -19.26121 -19.24040 -19.20441 -19.19020
 Alpha  occ. eigenvalues --  -19.18779 -19.18043 -14.41567 -14.41301 -14.39714
 Alpha  occ. eigenvalues --  -14.38765 -10.40588 -10.37794 -10.35305 -10.34758
 Alpha  occ. eigenvalues --  -10.32534 -10.31248 -10.30608 -10.30458 -10.30280
 Alpha  occ. eigenvalues --  -10.29996 -10.29934 -10.29586 -10.29242 -10.28945
 Alpha  occ. eigenvalues --  -10.28747 -10.28543 -10.28068 -10.28024 -10.27949
 Alpha  occ. eigenvalues --  -10.27866 -10.27719 -10.27623 -10.27414 -10.27140
 Alpha  occ. eigenvalues --  -10.27138 -10.26869 -10.26511 -10.26481 -10.26468
 Alpha  occ. eigenvalues --  -10.26381 -10.26375 -10.26139 -10.26085 -10.26029
 Alpha  occ. eigenvalues --  -10.26023 -10.25871 -10.25848 -10.25664 -10.25458
 Alpha  occ. eigenvalues --  -10.25447 -10.25372 -10.25277 -10.25245 -10.25054
 Alpha  occ. eigenvalues --  -10.24938 -10.24792 -10.24777 -10.24580 -10.24508
 Alpha  occ. eigenvalues --  -10.24383 -10.24314 -10.24223 -10.24121 -10.24052
 Alpha  occ. eigenvalues --  -10.23761  -3.17294  -1.92176  -1.91757  -1.91593
 Alpha  occ. eigenvalues --   -1.16829  -1.14838  -1.09966  -1.09670  -1.07756
 Alpha  occ. eigenvalues --   -1.06266  -1.05880  -1.03372  -1.02779  -1.01788
 Alpha  occ. eigenvalues --   -0.91277  -0.90098  -0.89650  -0.89242  -0.89034
 Alpha  occ. eigenvalues --   -0.88732  -0.88577  -0.88138  -0.87754  -0.87531
 Alpha  occ. eigenvalues --   -0.85586  -0.85293  -0.84303  -0.83424  -0.83235
 Alpha  occ. eigenvalues --   -0.82626  -0.82296  -0.81167  -0.80791  -0.80171
 Alpha  occ. eigenvalues --   -0.79895  -0.78565  -0.77725  -0.77108  -0.75702
 Alpha  occ. eigenvalues --   -0.75535  -0.75367  -0.75228  -0.74838  -0.73929
 Alpha  occ. eigenvalues --   -0.73077  -0.72663  -0.71478  -0.70201  -0.69760
 Alpha  occ. eigenvalues --   -0.68407  -0.68118  -0.66894  -0.66292  -0.65914
 Alpha  occ. eigenvalues --   -0.65453  -0.64937  -0.64840  -0.64069  -0.63919
 Alpha  occ. eigenvalues --   -0.63557  -0.63204  -0.62926  -0.61107  -0.60145
 Alpha  occ. eigenvalues --   -0.60055  -0.59396  -0.59006  -0.58641  -0.58142
 Alpha  occ. eigenvalues --   -0.57460  -0.57213  -0.56181  -0.55598  -0.55308
 Alpha  occ. eigenvalues --   -0.55178  -0.54927  -0.54414  -0.54190  -0.53946
 Alpha  occ. eigenvalues --   -0.53647  -0.53331  -0.53197  -0.53141  -0.52981
 Alpha  occ. eigenvalues --   -0.52853  -0.52540  -0.51956  -0.51887  -0.51663
 Alpha  occ. eigenvalues --   -0.51215  -0.51152  -0.50949  -0.50640  -0.50493
 Alpha  occ. eigenvalues --   -0.50364  -0.50096  -0.49887  -0.49724  -0.49531
 Alpha  occ. eigenvalues --   -0.49374  -0.49196  -0.48995  -0.48959  -0.48695
 Alpha  occ. eigenvalues --   -0.48413  -0.48342  -0.48189  -0.47808  -0.47709
 Alpha  occ. eigenvalues --   -0.47130  -0.47014  -0.46813  -0.46598  -0.46407
 Alpha  occ. eigenvalues --   -0.46259  -0.46199  -0.45846  -0.45594  -0.45530
 Alpha  occ. eigenvalues --   -0.45483  -0.45424  -0.45234  -0.44780  -0.44639
 Alpha  occ. eigenvalues --   -0.44545  -0.44219  -0.44188  -0.43876  -0.43699
 Alpha  occ. eigenvalues --   -0.43573  -0.43427  -0.43337  -0.43049  -0.43013
 Alpha  occ. eigenvalues --   -0.42793  -0.42639  -0.42509  -0.42230  -0.41761
 Alpha  occ. eigenvalues --   -0.41620  -0.41561  -0.41148  -0.40934  -0.40799
 Alpha  occ. eigenvalues --   -0.40684  -0.40205  -0.40157  -0.39972  -0.39593
 Alpha  occ. eigenvalues --   -0.39449  -0.39336  -0.39154  -0.38838  -0.38688
 Alpha  occ. eigenvalues --   -0.38584  -0.38338  -0.37815  -0.37350  -0.37208
 Alpha  occ. eigenvalues --   -0.37124  -0.36890  -0.36364  -0.36106  -0.36028
 Alpha  occ. eigenvalues --   -0.35282  -0.35266  -0.35042  -0.34502  -0.33828
 Alpha  occ. eigenvalues --   -0.33150  -0.33124  -0.32682  -0.31581  -0.30980
 Alpha  occ. eigenvalues --   -0.30318  -0.30001  -0.29694  -0.29212  -0.23670
 Alpha  occ. eigenvalues --   -0.20936
 Alpha virt. eigenvalues --   -0.08821  -0.00910   0.00798   0.01807   0.02574
 Alpha virt. eigenvalues --    0.04157   0.05361   0.06193   0.06282   0.07012
 Alpha virt. eigenvalues --    0.07883   0.08533   0.08945   0.09251   0.09571

 Mulliken charges:
               1
     1  Mg   0.822481
     2  C   -0.021942
     3  C   -0.020588
     4  C   -0.049942
     5  C   -0.114017
     6  N   -0.283987
     7  C   -0.002462
     8  C   -0.011972
     9  C   -0.065784
    10  C   -0.010801
    11  C    0.074319
    12  C    0.014460
    13  C    0.053110
    14  C    0.182635
    15  O   -0.249477
    16  O   -0.327829
    17  N   -0.343413
    18  C    0.127835
    19  C   -0.156355
    20  C   -0.037056
    21  C    0.107863
    22  C    0.109947
    23  C    0.018564
    24  O   -0.208564
    25  C    0.055753
    26  N   -0.277163
    27  C    0.025439
    28  C   -0.057638
    29  C    0.001728
    30  C    0.073738
    31  C    0.088244
    32  C    0.026828
    33  C   -0.015338
    34  N   -0.354068
    35  C    0.103408
    36  C   -0.151848
    37  C   -0.034872
    38  C    0.091191
    39  C    0.138863
    40  C    0.071440
    41  O   -0.160485
    42  C   -0.012366
    43  C    0.204176
    44  O   -0.236220
    45  O   -0.328489
    46  C    0.166147
    47  C    0.314119
    48  C   -0.169485
    49  C   -0.165700
    50  C    0.073629
    51  C    0.038685
    52  C    0.033616
    53  C    0.053584
    54  C   -0.159201
    55  C    0.049129
    56  C    0.051213
    57  C    0.061958
    58  C    0.036540
    59  C   -0.130793
    60  C    0.044412
    61  C    0.061539
    62  C    0.039943
    63  C    0.039932
    64  C   -0.150170
    65  C    0.024237
    66  C    0.054939
    67  H   -0.039456
    68  H   -0.009874
    69  H   -0.042638
    70  H    0.026235
    71  H    0.008651
    72  H    0.012004
    73  H    0.022500
    74  H    0.038803
    75  H    0.011766
    76  H    0.032645
    77  H    0.037085
    78  H    0.015650
    79  H    0.019815
    80  H    0.031609
    81  H    0.020870
    82  H    0.033629
    83  H    0.030805
    84  H    0.022137
    85  H    0.010549
    86  H   -0.001267
    87  H    0.010515
    88  H    0.033461
    89  H    0.021163
    90  H    0.006399
    91  H    0.015055
    92  H    0.018772
    93  H    0.023747
    94  H    0.010602
    95  H    0.009532
    96  H    0.033287
    97  H    0.046997
    98  H    0.040548
    99  H    0.044660
   100  H    0.058575
   101  H    0.028521
   102  H    0.038655
   103  H    0.043266
   104  H    0.010849
   105  H    0.033363
   106  H   -0.001372
   107  H    0.031459
   108  H   -0.003870
   109  H    0.005431
   110  H   -0.000472
   111  H    0.003228
   112  H   -0.002629
   113  H   -0.003127
   114  H   -0.000184
   115  H    0.011158
   116  H    0.011196
   117  H   -0.017659
   118  H   -0.011906
   119  H   -0.021205
   120  H   -0.002532
   121  H    0.009961
   122  H   -0.002170
   123  H   -0.012184
   124  H   -0.004835
   125  H   -0.023000
   126  H   -0.003446
   127  H    0.005479
   128  H   -0.021415
   129  H   -0.006899
   130  H    0.005247
   131  H    0.002677
   132  H    0.004487
   133  H   -0.003538
   134  H   -0.003453
   135  H    0.000262
   136  H   -0.000925
   137  H    0.004940
   138  H   -0.002302
   139  H    0.007424
   140  H    0.009069
 Sum of Mulliken charges =  -0.00000

 Dipole moment (field-independent basis, Debye):
    X=             -3.6723    Y=              4.0288    Z=              0.7175  Tot=              5.4984
 Quadrupole moment (field-independent basis, Debye-Ang):
   XX=           -388.6121   YY=           -426.7929   ZZ=           -400.1979
   XY=             17.9129   XZ=              9.2838   YZ=            -12.3803

 Normal termination of Gaussian 16 at Fri Apr 29 02:20:30 2022.
