 Gaussian 16, Revision A.03,
 Gaussian 16:  ES64L-G16RevA.03 25-Dec-2016

 ---------------------------------
 #p PBE1PBE/Def2SVP td=(nstates=5)
 ---------------------------------

 ------------------------------------------------------
 step_1851_chromophore_10 TDDFT with PBE1PBE functional
 ------------------------------------------------------
 Symbolic Z-matrix:
 Charge =  0 Multiplicity = 1

                         Standard orientation:
 ---------------------------------------------------------------------
 Center     Atomic      Atomic             Coordinates (Angstroms)
 Number     Number       Type             X           Y           Z
 ---------------------------------------------------------------------
      1         12           0        6.117436    0.730968    0.210569
      2          6           0        4.092659   -2.178793    0.149638
      3          6           0        3.589418    2.200168   -1.825762
      4          6           0        8.077685    3.354562   -0.222673
      5          6           0        8.674404   -1.070881    1.548045
      6          7           0        4.222611   -0.010428   -0.880973
      7          6           0        3.548950   -1.166855   -0.626235
      8          6           0        2.143392   -1.151297   -1.190541
      9          6           0        2.142575    0.147300   -2.079811
     10          6           0        3.385802    0.873102   -1.610904
     11          6           0        2.269215   -0.039802   -3.632597
     12          6           0        1.098803   -1.071518    0.001656
     13          6           0       -0.368504   -0.782692   -0.409149
     14          6           0       -1.318212   -1.996990   -0.330118
     15          8           0       -1.133776   -3.067474   -0.941684
     16          8           0       -2.389435   -1.707623    0.464061
     17          7           0        5.785404    2.654366   -0.649271
     18          6           0        4.673999    3.091953   -1.302379
     19          6           0        4.890287    4.587463   -1.413531
     20          6           0        6.163062    4.916885   -0.854348
     21          6           0        6.738994    3.598954   -0.572779
     22          6           0        3.858625    5.325047   -2.016885
     23          6           0        6.859458    6.267140   -0.691546
     24          8           0        7.871326    6.470115   -0.025423
     25          6           0        6.180683    7.422883   -1.280425
     26          7           0        8.099940    1.031435    0.517968
     27          6           0        8.661625    2.208893    0.286847
     28          6           0       10.118814    2.214086    0.672904
     29          6           0       10.197455    0.898854    1.464340
     30          6           0        8.889168    0.228259    1.187688
     31          6           0       11.204847    2.351475   -0.480239
     32          6           0       10.564977    1.097620    2.945594
     33          6           0        9.394539    1.418727    3.953497
     34          7           0        6.497672   -1.247163    0.766049
     35          6           0        7.566876   -1.860865    1.324461
     36          6           0        7.281509   -3.235593    1.728459
     37          6           0        5.905946   -3.396021    1.298162
     38          6           0        5.473526   -2.169398    0.708877
     39          6           0        8.123967   -4.268653    2.475214
     40          6           0        4.814932   -4.351253    1.291851
     41          8           0        4.682523   -5.508523    1.638924
     42          6           0        3.570240   -3.551388    0.642921
     43          6           0        2.999837   -4.361533   -0.438968
     44          8           0        3.628497   -4.735701   -1.431455
     45          8           0        1.735967   -4.714400   -0.109104
     46          6           0        1.151446   -5.858284   -0.858661
     47          6           0       -3.298202   -2.792180    0.829227
     48          6           0       -4.481497   -2.490463   -0.016008
     49          6           0       -5.398266   -3.325574   -0.597088
     50          6           0       -5.543785   -4.885309   -0.538436
     51          6           0       -6.326821   -2.724148   -1.750449
     52          6           0       -7.672119   -2.132251   -1.354900
     53          6           0       -7.915092   -0.720150   -1.944059
     54          6           0       -9.448311   -0.383488   -2.032509
     55          6           0      -10.020303   -0.547747   -3.435075
     56          6           0       -9.806427    1.054348   -1.390332
     57          6           0      -10.612505    1.122427   -0.047744
     58          6           0      -12.075003    1.564132   -0.448458
     59          6           0      -13.125212    0.580373    0.031315
     60          6           0      -13.276513   -0.491885   -0.984593
     61          6           0      -14.406067    1.351608    0.445601
     62          6           0      -14.639292    1.344118    2.003907
     63          6           0      -14.924575    2.761664    2.576279
     64          6           0      -16.341010    2.833981    3.140415
     65          6           0      -17.355128    2.982844    1.997636
     66          6           0      -16.386795    4.028367    4.103197
     67          1           0        2.727118    2.544255   -2.400477
     68          1           0        8.732153    4.228788   -0.236798
     69          1           0        9.434813   -1.606522    2.120949
     70          1           0        1.898369   -2.018855   -1.804159
     71          1           0        1.282450    0.768926   -1.832239
     72          1           0        1.437272    0.557297   -4.007161
     73          1           0        2.122128   -1.096281   -3.856853
     74          1           0        3.154892    0.256618   -4.192915
     75          1           0        1.418615   -0.373364    0.775383
     76          1           0        1.023035   -2.033768    0.508395
     77          1           0       -0.452361   -0.209586   -1.332613
     78          1           0       -0.603906   -0.047389    0.360613
     79          1           0        2.943098    4.802452   -2.293850
     80          1           0        4.340117    5.809134   -2.867212
     81          1           0        3.571001    6.098784   -1.305849
     82          1           0        6.790384    8.323685   -1.202660
     83          1           0        5.243236    7.525074   -0.733921
     84          1           0        5.867744    7.264990   -2.313179
     85          1           0       10.159533    3.080907    1.331747
     86          1           0       10.951796    0.253019    1.016187
     87          1           0       11.938752    1.546579   -0.435629
     88          1           0       11.687877    3.318236   -0.342365
     89          1           0       10.715054    2.160042   -1.435267
     90          1           0       11.100418    2.044369    3.009564
     91          1           0       11.125983    0.249095    3.337093
     92          1           0        9.589176    2.351997    4.482806
     93          1           0        9.264156    0.480763    4.493706
     94          1           0        8.413468    1.669129    3.549693
     95          1           0        8.733042   -3.693081    3.171153
     96          1           0        8.826984   -4.686992    1.754485
     97          1           0        7.538877   -5.027913    2.994799
     98          1           0        2.880396   -3.302494    1.449210
     99          1           0        1.920727   -6.416882   -1.392882
    100          1           0        0.341519   -5.495502   -1.491536
    101          1           0        0.817733   -6.613483   -0.147308
    102          1           0       -3.625632   -2.695268    1.864305
    103          1           0       -2.944603   -3.785540    0.549802
    104          1           0       -4.436449   -1.452561   -0.345041
    105          1           0       -6.278301   -5.149380    0.221615
    106          1           0       -4.628870   -5.353731   -0.175271
    107          1           0       -5.675462   -5.303264   -1.536658
    108          1           0       -6.462548   -3.511049   -2.492557
    109          1           0       -5.682398   -1.958609   -2.183449
    110          1           0       -7.639642   -2.005045   -0.272768
    111          1           0       -8.451010   -2.854048   -1.599196
    112          1           0       -7.500387   -0.614009   -2.946180
    113          1           0       -7.443366   -0.011915   -1.262979
    114          1           0       -9.937266   -1.201666   -1.502634
    115          1           0       -9.875484    0.245539   -4.169243
    116          1           0      -11.020899   -0.979615   -3.420608
    117          1           0       -9.422187   -1.334075   -3.895545
    118          1           0      -10.207774    1.559833   -2.267837
    119          1           0       -8.851985    1.562986   -1.254525
    120          1           0      -10.193401    1.925103    0.557727
    121          1           0      -10.667237    0.209012    0.545097
    122          1           0      -12.159942    1.760056   -1.517056
    123          1           0      -12.280078    2.531655    0.011582
    124          1           0      -12.769482   -0.040690    0.853804
    125          1           0      -13.658649   -0.016356   -1.888128
    126          1           0      -14.090975   -1.199756   -0.830208
    127          1           0      -12.389876   -1.018812   -1.336105
    128          1           0      -15.224297    0.895472   -0.112036
    129          1           0      -14.341791    2.352490    0.017771
    130          1           0      -13.759118    0.971684    2.527163
    131          1           0      -15.529146    0.748545    2.206604
    132          1           0      -14.942656    3.481353    1.758559
    133          1           0      -14.209399    2.888818    3.388602
    134          1           0      -16.563035    1.920934    3.692958
    135          1           0      -17.054135    3.059461    0.952869
    136          1           0      -17.956885    3.888965    2.066528
    137          1           0      -18.048692    2.145783    1.914394
    138          1           0      -17.377149    4.480778    4.165028
    139          1           0      -15.703927    4.775452    3.697682
    140          1           0      -16.149395    3.775872    5.136052
 ---------------------------------------------------------------------

 SCF Done:  E(RPBE1PBE) =  -3005.31909245     A.U. after   15 cycles

 Excitation energies and oscillator strengths:

 Excited State   1:      Singlet-A      1.8362 eV  675.22 nm  f=0.3991  <S**2>=0.000
     245 -> 248        0.15072
     246 -> 247        0.69742
     246 <- 247       -0.12079
 This state for optimization and/or second-order correction.
 Total Energy, E(TD-HF/TD-DFT) =  -3005.25161321
 Copying the excited state density for this state as the 1-particle RhoCI density.

 Excited State   2:      Singlet-A      2.1679 eV  571.91 nm  f=0.1393  <S**2>=0.000
     245 -> 247        0.66911
     246 -> 248       -0.19992

 Excited State   3:      Singlet-A      2.9400 eV  421.71 nm  f=0.0015  <S**2>=0.000
     241 -> 247        0.29097
     243 -> 247       -0.12234
     244 -> 247        0.61923

 Excited State   4:      Singlet-A      3.0074 eV  412.27 nm  f=0.0001  <S**2>=0.000
     241 -> 247        0.57478
     241 -> 249        0.10272
     243 -> 247        0.26122
     244 -> 247       -0.24224
     246 -> 248        0.10146

 Excited State   5:      Singlet-A      3.0564 eV  405.66 nm  f=0.0168  <S**2>=0.000
     241 -> 247       -0.19432
     243 -> 247        0.62356
     244 -> 247        0.21261

 The electronic state is 1-A.
 Alpha  occ. eigenvalues --  -46.92113 -19.26873 -19.24712 -19.20746 -19.19175
 Alpha  occ. eigenvalues --  -19.19075 -19.18324 -14.40944 -14.40936 -14.39268
 Alpha  occ. eigenvalues --  -14.38474 -10.37655 -10.34818 -10.32351 -10.31967
 Alpha  occ. eigenvalues --  -10.29945 -10.28912 -10.28353 -10.28153 -10.27637
 Alpha  occ. eigenvalues --  -10.27551 -10.27525 -10.27313 -10.27023 -10.26715
 Alpha  occ. eigenvalues --  -10.26326 -10.26278 -10.25913 -10.25861 -10.25697
 Alpha  occ. eigenvalues --  -10.25610 -10.25501 -10.25291 -10.25134 -10.24844
 Alpha  occ. eigenvalues --  -10.24783 -10.24674 -10.24197 -10.24023 -10.23928
 Alpha  occ. eigenvalues --  -10.23876 -10.23870 -10.23622 -10.23598 -10.23537
 Alpha  occ. eigenvalues --  -10.23420 -10.23388 -10.23381 -10.23255 -10.23117
 Alpha  occ. eigenvalues --  -10.23104 -10.23030 -10.22799 -10.22798 -10.22590
 Alpha  occ. eigenvalues --  -10.22514 -10.22378 -10.22343 -10.22186 -10.22159
 Alpha  occ. eigenvalues --  -10.21873 -10.21780 -10.21620 -10.21617 -10.21508
 Alpha  occ. eigenvalues --  -10.21118  -3.14246  -1.87067  -1.86628  -1.86465
 Alpha  occ. eigenvalues --   -1.11683  -1.09634  -1.04628  -1.04487  -1.02622
 Alpha  occ. eigenvalues --   -1.00867  -1.00722  -0.97982  -0.97482  -0.96437
 Alpha  occ. eigenvalues --   -0.85647  -0.84182  -0.83827  -0.83468  -0.83210
 Alpha  occ. eigenvalues --   -0.82994  -0.82708  -0.82434  -0.82077  -0.81723
 Alpha  occ. eigenvalues --   -0.79899  -0.79573  -0.78546  -0.77689  -0.77438
 Alpha  occ. eigenvalues --   -0.76790  -0.76497  -0.75391  -0.75042  -0.74372
 Alpha  occ. eigenvalues --   -0.74186  -0.72882  -0.72023  -0.71411  -0.69848
 Alpha  occ. eigenvalues --   -0.69778  -0.69606  -0.69541  -0.68967  -0.68141
 Alpha  occ. eigenvalues --   -0.67413  -0.67078  -0.65862  -0.64536  -0.64129
 Alpha  occ. eigenvalues --   -0.62856  -0.62388  -0.61281  -0.60614  -0.60335
 Alpha  occ. eigenvalues --   -0.59750  -0.59417  -0.59302  -0.58550  -0.58112
 Alpha  occ. eigenvalues --   -0.58024  -0.57346  -0.57116  -0.55721  -0.54587
 Alpha  occ. eigenvalues --   -0.54531  -0.53899  -0.53606  -0.53107  -0.52756
 Alpha  occ. eigenvalues --   -0.52086  -0.51643  -0.50746  -0.50223  -0.49842
 Alpha  occ. eigenvalues --   -0.49769  -0.49401  -0.48944  -0.48624  -0.48368
 Alpha  occ. eigenvalues --   -0.48174  -0.47693  -0.47679  -0.47541  -0.47511
 Alpha  occ. eigenvalues --   -0.47319  -0.47240  -0.46520  -0.46434  -0.46263
 Alpha  occ. eigenvalues --   -0.45731  -0.45646  -0.45536  -0.45174  -0.45015
 Alpha  occ. eigenvalues --   -0.44878  -0.44646  -0.44451  -0.44321  -0.44146
 Alpha  occ. eigenvalues --   -0.43959  -0.43803  -0.43633  -0.43616  -0.43303
 Alpha  occ. eigenvalues --   -0.43000  -0.42948  -0.42763  -0.42432  -0.42327
 Alpha  occ. eigenvalues --   -0.41733  -0.41709  -0.41467  -0.41266  -0.41133
 Alpha  occ. eigenvalues --   -0.40978  -0.40930  -0.40550  -0.40298  -0.40182
 Alpha  occ. eigenvalues --   -0.40168  -0.40074  -0.39928  -0.39539  -0.39405
 Alpha  occ. eigenvalues --   -0.39307  -0.39012  -0.38877  -0.38562  -0.38524
 Alpha  occ. eigenvalues --   -0.38337  -0.38218  -0.38076  -0.37838  -0.37728
 Alpha  occ. eigenvalues --   -0.37619  -0.37446  -0.37291  -0.37060  -0.36623
 Alpha  occ. eigenvalues --   -0.36389  -0.36328  -0.35948  -0.35723  -0.35631
 Alpha  occ. eigenvalues --   -0.35425  -0.35098  -0.34931  -0.34898  -0.34550
 Alpha  occ. eigenvalues --   -0.34274  -0.34270  -0.33908  -0.33867  -0.33498
 Alpha  occ. eigenvalues --   -0.33434  -0.33078  -0.32643  -0.32251  -0.31999
 Alpha  occ. eigenvalues --   -0.31907  -0.31892  -0.31455  -0.31112  -0.31014
 Alpha  occ. eigenvalues --   -0.30226  -0.30181  -0.29995  -0.29322  -0.29026
 Alpha  occ. eigenvalues --   -0.28531  -0.28106  -0.27738  -0.26732  -0.26066
 Alpha  occ. eigenvalues --   -0.25402  -0.25287  -0.25235  -0.24886  -0.20577
 Alpha  occ. eigenvalues --   -0.18551
 Alpha virt. eigenvalues --   -0.11190  -0.04533  -0.03390  -0.01866  -0.00916
 Alpha virt. eigenvalues --   -0.00509   0.00832   0.01555   0.01850   0.03338
 Alpha virt. eigenvalues --    0.04337   0.04797   0.05200   0.05855   0.06027

 Mulliken charges:
               1
     1  Mg   0.966259
     2  C   -0.023158
     3  C   -0.021332
     4  C   -0.031986
     5  C   -0.099199
     6  N   -0.379801
     7  C    0.058916
     8  C   -0.080730
     9  C   -0.144202
    10  C    0.021877
    11  C    0.021221
    12  C   -0.034202
    13  C   -0.022243
    14  C    0.248519
    15  O   -0.281440
    16  O   -0.359240
    17  N   -0.457061
    18  C    0.168618
    19  C   -0.202600
    20  C   -0.066738
    21  C    0.132060
    22  C    0.046425
    23  C    0.068770
    24  O   -0.246754
    25  C   -0.017339
    26  N   -0.399617
    27  C    0.061682
    28  C   -0.133069
    29  C   -0.075810
    30  C    0.112216
    31  C    0.029818
    32  C   -0.037242
    33  C   -0.084659
    34  N   -0.475355
    35  C    0.124937
    36  C   -0.159501
    37  C   -0.084810
    38  C    0.144651
    39  C    0.083939
    40  C    0.160188
    41  O   -0.206607
    42  C   -0.122942
    43  C    0.295674
    44  O   -0.271277
    45  O   -0.361584
    46  C    0.112124
    47  C    0.268145
    48  C   -0.180569
    49  C   -0.203828
    50  C    0.010456
    51  C   -0.023219
    52  C   -0.031215
    53  C   -0.001871
    54  C   -0.239145
    55  C   -0.013459
    56  C   -0.003462
    57  C   -0.002071
    58  C   -0.016475
    59  C   -0.221235
    60  C   -0.016384
    61  C    0.009172
    62  C   -0.020853
    63  C   -0.020851
    64  C   -0.247295
    65  C   -0.029106
    66  C   -0.006437
    67  H   -0.006764
    68  H    0.020413
    69  H   -0.010231
    70  H    0.062124
    71  H    0.045142
    72  H    0.039144
    73  H    0.050126
    74  H    0.065042
    75  H    0.043684
    76  H    0.069567
    77  H    0.068035
    78  H    0.049223
    79  H    0.046839
    80  H    0.059923
    81  H    0.049865
    82  H    0.060572
    83  H    0.058414
    84  H    0.049305
    85  H    0.047932
    86  H    0.037067
    87  H    0.037537
    88  H    0.059614
    89  H    0.049189
    90  H    0.040799
    91  H    0.045896
    92  H    0.045796
    93  H    0.051051
    94  H    0.040596
    95  H    0.037204
    96  H    0.061767
    97  H    0.073057
    98  H    0.078236
    99  H    0.065128
   100  H    0.080349
   101  H    0.050493
   102  H    0.066270
   103  H    0.069474
   104  H    0.039932
   105  H    0.061355
   106  H    0.026678
   107  H    0.056681
   108  H    0.028516
   109  H    0.037904
   110  H    0.034471
   111  H    0.034340
   112  H    0.029389
   113  H    0.029798
   114  H    0.038119
   115  H    0.037864
   116  H    0.039684
   117  H    0.011899
   118  H    0.020102
   119  H    0.011228
   120  H    0.031276
   121  H    0.040443
   122  H    0.029058
   123  H    0.021803
   124  H    0.032751
   125  H    0.005849
   126  H    0.025226
   127  H    0.038291
   128  H    0.011484
   129  H    0.023545
   130  H    0.036776
   131  H    0.035497
   132  H    0.037159
   133  H    0.030279
   134  H    0.034041
   135  H    0.026885
   136  H    0.025985
   137  H    0.032072
   138  H    0.025587
   139  H    0.035185
   140  H    0.037277
 Sum of Mulliken charges =  -0.00000

 Dipole moment (field-independent basis, Debye):
    X=             -3.6903    Y=              3.8871    Z=              0.7301  Tot=              5.4093
 Quadrupole moment (field-independent basis, Debye-Ang):
   XX=           -383.6326   YY=           -424.3004   ZZ=           -397.2484
   XY=             16.9527   XZ=             10.6255   YZ=            -12.4166

 Normal termination of Gaussian 16 at Fri Apr 29 02:46:28 2022.
