 Gaussian 16, Revision A.03,
 Gaussian 16:  ES64L-G16RevA.03 25-Dec-2016

 --------------------------------
 #p wB97XD/Def2SVP td=(nstates=5)
 --------------------------------

 -----------------------------------------------------
 step_1851_chromophore_10 TDDFT with wB97XD functional
 -----------------------------------------------------
 Symbolic Z-matrix:
 Charge =  0 Multiplicity = 1

                         Standard orientation:
 ---------------------------------------------------------------------
 Center     Atomic      Atomic             Coordinates (Angstroms)
 Number     Number       Type             X           Y           Z
 ---------------------------------------------------------------------
      1         12           0        6.117436    0.730968    0.210569
      2          6           0        4.092659   -2.178793    0.149638
      3          6           0        3.589418    2.200168   -1.825762
      4          6           0        8.077685    3.354562   -0.222673
      5          6           0        8.674404   -1.070881    1.548045
      6          7           0        4.222611   -0.010428   -0.880973
      7          6           0        3.548950   -1.166855   -0.626235
      8          6           0        2.143392   -1.151297   -1.190541
      9          6           0        2.142575    0.147300   -2.079811
     10          6           0        3.385802    0.873102   -1.610904
     11          6           0        2.269215   -0.039802   -3.632597
     12          6           0        1.098803   -1.071518    0.001656
     13          6           0       -0.368504   -0.782692   -0.409149
     14          6           0       -1.318212   -1.996990   -0.330118
     15          8           0       -1.133776   -3.067474   -0.941684
     16          8           0       -2.389435   -1.707623    0.464061
     17          7           0        5.785404    2.654366   -0.649271
     18          6           0        4.673999    3.091953   -1.302379
     19          6           0        4.890287    4.587463   -1.413531
     20          6           0        6.163062    4.916885   -0.854348
     21          6           0        6.738994    3.598954   -0.572779
     22          6           0        3.858625    5.325047   -2.016885
     23          6           0        6.859458    6.267140   -0.691546
     24          8           0        7.871326    6.470115   -0.025423
     25          6           0        6.180683    7.422883   -1.280425
     26          7           0        8.099940    1.031435    0.517968
     27          6           0        8.661625    2.208893    0.286847
     28          6           0       10.118814    2.214086    0.672904
     29          6           0       10.197455    0.898854    1.464340
     30          6           0        8.889168    0.228259    1.187688
     31          6           0       11.204847    2.351475   -0.480239
     32          6           0       10.564977    1.097620    2.945594
     33          6           0        9.394539    1.418727    3.953497
     34          7           0        6.497672   -1.247163    0.766049
     35          6           0        7.566876   -1.860865    1.324461
     36          6           0        7.281509   -3.235593    1.728459
     37          6           0        5.905946   -3.396021    1.298162
     38          6           0        5.473526   -2.169398    0.708877
     39          6           0        8.123967   -4.268653    2.475214
     40          6           0        4.814932   -4.351253    1.291851
     41          8           0        4.682523   -5.508523    1.638924
     42          6           0        3.570240   -3.551388    0.642921
     43          6           0        2.999837   -4.361533   -0.438968
     44          8           0        3.628497   -4.735701   -1.431455
     45          8           0        1.735967   -4.714400   -0.109104
     46          6           0        1.151446   -5.858284   -0.858661
     47          6           0       -3.298202   -2.792180    0.829227
     48          6           0       -4.481497   -2.490463   -0.016008
     49          6           0       -5.398266   -3.325574   -0.597088
     50          6           0       -5.543785   -4.885309   -0.538436
     51          6           0       -6.326821   -2.724148   -1.750449
     52          6           0       -7.672119   -2.132251   -1.354900
     53          6           0       -7.915092   -0.720150   -1.944059
     54          6           0       -9.448311   -0.383488   -2.032509
     55          6           0      -10.020303   -0.547747   -3.435075
     56          6           0       -9.806427    1.054348   -1.390332
     57          6           0      -10.612505    1.122427   -0.047744
     58          6           0      -12.075003    1.564132   -0.448458
     59          6           0      -13.125212    0.580373    0.031315
     60          6           0      -13.276513   -0.491885   -0.984593
     61          6           0      -14.406067    1.351608    0.445601
     62          6           0      -14.639292    1.344118    2.003907
     63          6           0      -14.924575    2.761664    2.576279
     64          6           0      -16.341010    2.833981    3.140415
     65          6           0      -17.355128    2.982844    1.997636
     66          6           0      -16.386795    4.028367    4.103197
     67          1           0        2.727118    2.544255   -2.400477
     68          1           0        8.732153    4.228788   -0.236798
     69          1           0        9.434813   -1.606522    2.120949
     70          1           0        1.898369   -2.018855   -1.804159
     71          1           0        1.282450    0.768926   -1.832239
     72          1           0        1.437272    0.557297   -4.007161
     73          1           0        2.122128   -1.096281   -3.856853
     74          1           0        3.154892    0.256618   -4.192915
     75          1           0        1.418615   -0.373364    0.775383
     76          1           0        1.023035   -2.033768    0.508395
     77          1           0       -0.452361   -0.209586   -1.332613
     78          1           0       -0.603906   -0.047389    0.360613
     79          1           0        2.943098    4.802452   -2.293850
     80          1           0        4.340117    5.809134   -2.867212
     81          1           0        3.571001    6.098784   -1.305849
     82          1           0        6.790384    8.323685   -1.202660
     83          1           0        5.243236    7.525074   -0.733921
     84          1           0        5.867744    7.264990   -2.313179
     85          1           0       10.159533    3.080907    1.331747
     86          1           0       10.951796    0.253019    1.016187
     87          1           0       11.938752    1.546579   -0.435629
     88          1           0       11.687877    3.318236   -0.342365
     89          1           0       10.715054    2.160042   -1.435267
     90          1           0       11.100418    2.044369    3.009564
     91          1           0       11.125983    0.249095    3.337093
     92          1           0        9.589176    2.351997    4.482806
     93          1           0        9.264156    0.480763    4.493706
     94          1           0        8.413468    1.669129    3.549693
     95          1           0        8.733042   -3.693081    3.171153
     96          1           0        8.826984   -4.686992    1.754485
     97          1           0        7.538877   -5.027913    2.994799
     98          1           0        2.880396   -3.302494    1.449210
     99          1           0        1.920727   -6.416882   -1.392882
    100          1           0        0.341519   -5.495502   -1.491536
    101          1           0        0.817733   -6.613483   -0.147308
    102          1           0       -3.625632   -2.695268    1.864305
    103          1           0       -2.944603   -3.785540    0.549802
    104          1           0       -4.436449   -1.452561   -0.345041
    105          1           0       -6.278301   -5.149380    0.221615
    106          1           0       -4.628870   -5.353731   -0.175271
    107          1           0       -5.675462   -5.303264   -1.536658
    108          1           0       -6.462548   -3.511049   -2.492557
    109          1           0       -5.682398   -1.958609   -2.183449
    110          1           0       -7.639642   -2.005045   -0.272768
    111          1           0       -8.451010   -2.854048   -1.599196
    112          1           0       -7.500387   -0.614009   -2.946180
    113          1           0       -7.443366   -0.011915   -1.262979
    114          1           0       -9.937266   -1.201666   -1.502634
    115          1           0       -9.875484    0.245539   -4.169243
    116          1           0      -11.020899   -0.979615   -3.420608
    117          1           0       -9.422187   -1.334075   -3.895545
    118          1           0      -10.207774    1.559833   -2.267837
    119          1           0       -8.851985    1.562986   -1.254525
    120          1           0      -10.193401    1.925103    0.557727
    121          1           0      -10.667237    0.209012    0.545097
    122          1           0      -12.159942    1.760056   -1.517056
    123          1           0      -12.280078    2.531655    0.011582
    124          1           0      -12.769482   -0.040690    0.853804
    125          1           0      -13.658649   -0.016356   -1.888128
    126          1           0      -14.090975   -1.199756   -0.830208
    127          1           0      -12.389876   -1.018812   -1.336105
    128          1           0      -15.224297    0.895472   -0.112036
    129          1           0      -14.341791    2.352490    0.017771
    130          1           0      -13.759118    0.971684    2.527163
    131          1           0      -15.529146    0.748545    2.206604
    132          1           0      -14.942656    3.481353    1.758559
    133          1           0      -14.209399    2.888818    3.388602
    134          1           0      -16.563035    1.920934    3.692958
    135          1           0      -17.054135    3.059461    0.952869
    136          1           0      -17.956885    3.888965    2.066528
    137          1           0      -18.048692    2.145783    1.914394
    138          1           0      -17.377149    4.480778    4.165028
    139          1           0      -15.703927    4.775452    3.697682
    140          1           0      -16.149395    3.775872    5.136052
 ---------------------------------------------------------------------

 SCF Done:  E(RwB97XD) =  -3007.82666522     A.U. after   17 cycles

 Excitation energies and oscillator strengths:

 Excited State   1:      Singlet-A      1.6154 eV  767.52 nm  f=0.4156  <S**2>=0.000
     245 -> 248        0.16665
     246 -> 247        0.68717
     245 <- 248        0.11110
 This state for optimization and/or second-order correction.
 Total Energy, E(TD-HF/TD-DFT) =  -3007.76730063
 Copying the excited state density for this state as the 1-particle RhoCI density.

 Excited State   2:      Singlet-A      2.1130 eV  586.77 nm  f=0.1471  <S**2>=0.000
     245 -> 247        0.65816
     246 -> 248       -0.23805

 Excited State   3:      Singlet-A      3.3003 eV  375.68 nm  f=0.0002  <S**2>=0.000
     243 -> 247       -0.21482
     244 -> 247        0.64745

 Excited State   4:      Singlet-A      3.4143 eV  363.14 nm  f=0.0025  <S**2>=0.000
     243 -> 247        0.61481
     244 -> 247        0.18088
     246 -> 248        0.23297

 Excited State   5:      Singlet-A      3.5623 eV  348.05 nm  f=0.0854  <S**2>=0.000
     240 -> 247        0.11851
     241 -> 247        0.52539
     241 -> 249        0.23752
     241 -> 250        0.18321
     243 -> 247       -0.12002
     244 -> 247       -0.11742
     246 -> 248        0.21153

 The electronic state is 1-A.
 Alpha  occ. eigenvalues --  -46.95083 -19.31374 -19.29246 -19.25373 -19.24069
 Alpha  occ. eigenvalues --  -19.23825 -19.22995 -14.46146 -14.45887 -14.44304
 Alpha  occ. eigenvalues --  -14.43344 -10.44407 -10.41627 -10.39280 -10.38777
 Alpha  occ. eigenvalues --  -10.36398 -10.35349 -10.34606 -10.34495 -10.34007
 Alpha  occ. eigenvalues --  -10.33987 -10.33968 -10.33525 -10.33271 -10.32916
 Alpha  occ. eigenvalues --  -10.32888 -10.32696 -10.32125 -10.32081 -10.31910
 Alpha  occ. eigenvalues --  -10.31875 -10.31842 -10.31616 -10.31467 -10.31269
 Alpha  occ. eigenvalues --  -10.31175 -10.30905 -10.30426 -10.30402 -10.30354
 Alpha  occ. eigenvalues --  -10.30306 -10.30305 -10.30089 -10.29998 -10.29945
 Alpha  occ. eigenvalues --  -10.29902 -10.29879 -10.29779 -10.29666 -10.29395
 Alpha  occ. eigenvalues --  -10.29391 -10.29336 -10.29195 -10.29163 -10.28968
 Alpha  occ. eigenvalues --  -10.28877 -10.28731 -10.28704 -10.28518 -10.28467
 Alpha  occ. eigenvalues --  -10.28223 -10.28221 -10.28040 -10.27974 -10.27936
 Alpha  occ. eigenvalues --  -10.27587  -3.21078  -1.94648  -1.94208  -1.94045
 Alpha  occ. eigenvalues --   -1.19024  -1.17004  -1.12197  -1.11908  -1.09936
 Alpha  occ. eigenvalues --   -1.08263  -1.08064  -1.05417  -1.04783  -1.03786
 Alpha  occ. eigenvalues --   -0.93221  -0.91845  -0.91472  -0.91163  -0.90843
 Alpha  occ. eigenvalues --   -0.90598  -0.90357  -0.90081  -0.89665  -0.89367
 Alpha  occ. eigenvalues --   -0.87516  -0.87187  -0.86198  -0.85346  -0.85123
 Alpha  occ. eigenvalues --   -0.84497  -0.84141  -0.83037  -0.82679  -0.82014
 Alpha  occ. eigenvalues --   -0.81818  -0.80534  -0.79627  -0.79012  -0.77473
 Alpha  occ. eigenvalues --   -0.77450  -0.77248  -0.77148  -0.76646  -0.75784
 Alpha  occ. eigenvalues --   -0.74992  -0.74626  -0.73422  -0.72128  -0.71678
 Alpha  occ. eigenvalues --   -0.70374  -0.70008  -0.68901  -0.68199  -0.67843
 Alpha  occ. eigenvalues --   -0.67334  -0.66878  -0.66829  -0.66020  -0.65709
 Alpha  occ. eigenvalues --   -0.65535  -0.65012  -0.64753  -0.63098  -0.62074
 Alpha  occ. eigenvalues --   -0.62033  -0.61346  -0.60989  -0.60546  -0.60118
 Alpha  occ. eigenvalues --   -0.59466  -0.59137  -0.58174  -0.57559  -0.57254
 Alpha  occ. eigenvalues --   -0.57148  -0.56839  -0.56332  -0.56067  -0.55800
 Alpha  occ. eigenvalues --   -0.55545  -0.55267  -0.55062  -0.54983  -0.54914
 Alpha  occ. eigenvalues --   -0.54750  -0.54497  -0.53827  -0.53807  -0.53583
 Alpha  occ. eigenvalues --   -0.53091  -0.53027  -0.52871  -0.52589  -0.52385
 Alpha  occ. eigenvalues --   -0.52244  -0.52072  -0.51810  -0.51647  -0.51434
 Alpha  occ. eigenvalues --   -0.51249  -0.51108  -0.50927  -0.50869  -0.50613
 Alpha  occ. eigenvalues --   -0.50368  -0.50242  -0.50113  -0.49704  -0.49639
 Alpha  occ. eigenvalues --   -0.48981  -0.48957  -0.48696  -0.48527  -0.48324
 Alpha  occ. eigenvalues --   -0.48183  -0.48116  -0.47730  -0.47440  -0.47415
 Alpha  occ. eigenvalues --   -0.47351  -0.47325  -0.47153  -0.46688  -0.46590
 Alpha  occ. eigenvalues --   -0.46469  -0.46136  -0.46061  -0.45747  -0.45657
 Alpha  occ. eigenvalues --   -0.45488  -0.45345  -0.45240  -0.44928  -0.44887
 Alpha  occ. eigenvalues --   -0.44707  -0.44529  -0.44408  -0.44146  -0.43712
 Alpha  occ. eigenvalues --   -0.43644  -0.43425  -0.43061  -0.42809  -0.42679
 Alpha  occ. eigenvalues --   -0.42533  -0.42107  -0.41992  -0.41923  -0.41514
 Alpha  occ. eigenvalues --   -0.41314  -0.41213  -0.40993  -0.40745  -0.40541
 Alpha  occ. eigenvalues --   -0.40497  -0.40162  -0.39676  -0.39274  -0.39048
 Alpha  occ. eigenvalues --   -0.38959  -0.38819  -0.38473  -0.38014  -0.37938
 Alpha  occ. eigenvalues --   -0.37270  -0.37109  -0.36891  -0.36401  -0.35821
 Alpha  occ. eigenvalues --   -0.35243  -0.34964  -0.34769  -0.33593  -0.33095
 Alpha  occ. eigenvalues --   -0.32350  -0.32032  -0.31874  -0.31386  -0.25583
 Alpha  occ. eigenvalues --   -0.22731
 Alpha virt. eigenvalues --   -0.07174   0.01031   0.02833   0.04581   0.05003
 Alpha virt. eigenvalues --    0.06386   0.07573   0.08377   0.08605   0.09843
 Alpha virt. eigenvalues --    0.10869   0.11505   0.11936   0.12625   0.12709

 Mulliken charges:
               1
     1  Mg   0.956419
     2  C   -0.033459
     3  C   -0.039080
     4  C   -0.051569
     5  C   -0.115950
     6  N   -0.349934
     7  C    0.034200
     8  C   -0.058669
     9  C   -0.116100
    10  C    0.015263
    11  C    0.028625
    12  C   -0.019321
    13  C   -0.008074
    14  C    0.237687
    15  O   -0.278655
    16  O   -0.358599
    17  N   -0.423965
    18  C    0.153839
    19  C   -0.180399
    20  C   -0.069796
    21  C    0.126437
    22  C    0.057539
    23  C    0.066247
    24  O   -0.240260
    25  C   -0.005787
    26  N   -0.355556
    27  C    0.044714
    28  C   -0.107676
    29  C   -0.048517
    30  C    0.094844
    31  C    0.040196
    32  C   -0.022583
    33  C   -0.068568
    34  N   -0.440330
    35  C    0.114892
    36  C   -0.160027
    37  C   -0.081813
    38  C    0.127705
    39  C    0.095979
    40  C    0.145415
    41  O   -0.197746
    42  C   -0.081076
    43  C    0.268809
    44  O   -0.265796
    45  O   -0.358881
    46  C    0.127860
    47  C    0.284254
    48  C   -0.187919
    49  C   -0.194970
    50  C    0.025984
    51  C   -0.002782
    52  C   -0.015102
    53  C    0.014079
    54  C   -0.212188
    55  C    0.000827
    56  C    0.014656
    57  C    0.011756
    58  C   -0.000145
    59  C   -0.185550
    60  C   -0.000111
    61  C    0.022399
    62  C   -0.004876
    63  C   -0.002298
    64  C   -0.214374
    65  C   -0.022523
    66  C    0.005871
    67  H   -0.013777
    68  H    0.016671
    69  H   -0.015549
    70  H    0.053308
    71  H    0.032091
    72  H    0.033340
    73  H    0.044706
    74  H    0.060255
    75  H    0.036808
    76  H    0.054056
    77  H    0.061705
    78  H    0.044060
    79  H    0.044042
    80  H    0.053628
    81  H    0.043468
    82  H    0.060274
    83  H    0.051556
    84  H    0.043228
    85  H    0.036050
    86  H    0.025984
    87  H    0.031832
    88  H    0.055150
    89  H    0.043104
    90  H    0.031118
    91  H    0.040070
    92  H    0.041317
    93  H    0.045192
    94  H    0.030653
    95  H    0.030269
    96  H    0.056740
    97  H    0.070661
    98  H    0.070782
    99  H    0.061081
   100  H    0.078086
   101  H    0.046224
   102  H    0.062531
   103  H    0.063115
   104  H    0.035197
   105  H    0.055798
   106  H    0.020160
   107  H    0.051698
   108  H    0.020806
   109  H    0.028013
   110  H    0.024558
   111  H    0.026875
   112  H    0.020158
   113  H    0.020460
   114  H    0.021209
   115  H    0.032588
   116  H    0.033337
   117  H    0.003649
   118  H    0.009401
   119  H    0.003004
   120  H    0.025188
   121  H    0.031941
   122  H    0.017428
   123  H    0.011980
   124  H    0.017575
   125  H   -0.003303
   126  H    0.020255
   127  H    0.024767
   128  H    0.003832
   129  H    0.012604
   130  H    0.029192
   131  H    0.025889
   132  H    0.023881
   133  H    0.022511
   134  H    0.023473
   135  H    0.019956
   136  H    0.020218
   137  H    0.026906
   138  H    0.019405
   139  H    0.027908
   140  H    0.032182
 Sum of Mulliken charges =  -0.00000

 Dipole moment (field-independent basis, Debye):
    X=             -3.7049    Y=              4.1353    Z=              0.7280  Tot=              5.5997
 Quadrupole moment (field-independent basis, Debye-Ang):
   XX=           -384.1598   YY=           -422.2776   ZZ=           -396.8869
   XY=             18.4712   XZ=             10.2270   YZ=            -12.8346

 Normal termination of Gaussian 16 at Fri Apr 29 03:22:49 2022.
