 Gaussian 16, Revision A.03,
 Gaussian 16:  ES64L-G16RevA.03 25-Dec-2016

 --------------------
 #p ZINDO=(nstates=5)
 --------------------

 ------------------------------
 step_1851_chromophore_10 ZINDO
 ------------------------------
 Symbolic Z-matrix:
 Charge =  0 Multiplicity = 1

                         Standard orientation:
 ---------------------------------------------------------------------
 Center     Atomic      Atomic             Coordinates (Angstroms)
 Number     Number       Type             X           Y           Z
 ---------------------------------------------------------------------
      1         12           0        6.117436    0.730968    0.210569
      2          6           0        4.092659   -2.178793    0.149638
      3          6           0        3.589418    2.200168   -1.825762
      4          6           0        8.077685    3.354562   -0.222673
      5          6           0        8.674404   -1.070881    1.548045
      6          7           0        4.222611   -0.010428   -0.880973
      7          6           0        3.548950   -1.166855   -0.626235
      8          6           0        2.143392   -1.151297   -1.190541
      9          6           0        2.142575    0.147300   -2.079811
     10          6           0        3.385802    0.873102   -1.610904
     11          6           0        2.269215   -0.039802   -3.632597
     12          6           0        1.098803   -1.071518    0.001656
     13          6           0       -0.368504   -0.782692   -0.409149
     14          6           0       -1.318212   -1.996990   -0.330118
     15          8           0       -1.133776   -3.067474   -0.941684
     16          8           0       -2.389435   -1.707623    0.464061
     17          7           0        5.785404    2.654366   -0.649271
     18          6           0        4.673999    3.091953   -1.302379
     19          6           0        4.890287    4.587463   -1.413531
     20          6           0        6.163062    4.916885   -0.854348
     21          6           0        6.738994    3.598954   -0.572779
     22          6           0        3.858625    5.325047   -2.016885
     23          6           0        6.859458    6.267140   -0.691546
     24          8           0        7.871326    6.470115   -0.025423
     25          6           0        6.180683    7.422883   -1.280425
     26          7           0        8.099940    1.031435    0.517968
     27          6           0        8.661625    2.208893    0.286847
     28          6           0       10.118814    2.214086    0.672904
     29          6           0       10.197455    0.898854    1.464340
     30          6           0        8.889168    0.228259    1.187688
     31          6           0       11.204847    2.351475   -0.480239
     32          6           0       10.564977    1.097620    2.945594
     33          6           0        9.394539    1.418727    3.953497
     34          7           0        6.497672   -1.247163    0.766049
     35          6           0        7.566876   -1.860865    1.324461
     36          6           0        7.281509   -3.235593    1.728459
     37          6           0        5.905946   -3.396021    1.298162
     38          6           0        5.473526   -2.169398    0.708877
     39          6           0        8.123967   -4.268653    2.475214
     40          6           0        4.814932   -4.351253    1.291851
     41          8           0        4.682523   -5.508523    1.638924
     42          6           0        3.570240   -3.551388    0.642921
     43          6           0        2.999837   -4.361533   -0.438968
     44          8           0        3.628497   -4.735701   -1.431455
     45          8           0        1.735967   -4.714400   -0.109104
     46          6           0        1.151446   -5.858284   -0.858661
     47          6           0       -3.298202   -2.792180    0.829227
     48          6           0       -4.481497   -2.490463   -0.016008
     49          6           0       -5.398266   -3.325574   -0.597088
     50          6           0       -5.543785   -4.885309   -0.538436
     51          6           0       -6.326821   -2.724148   -1.750449
     52          6           0       -7.672119   -2.132251   -1.354900
     53          6           0       -7.915092   -0.720150   -1.944059
     54          6           0       -9.448311   -0.383488   -2.032509
     55          6           0      -10.020303   -0.547747   -3.435075
     56          6           0       -9.806427    1.054348   -1.390332
     57          6           0      -10.612505    1.122427   -0.047744
     58          6           0      -12.075003    1.564132   -0.448458
     59          6           0      -13.125212    0.580373    0.031315
     60          6           0      -13.276513   -0.491885   -0.984593
     61          6           0      -14.406067    1.351608    0.445601
     62          6           0      -14.639292    1.344118    2.003907
     63          6           0      -14.924575    2.761664    2.576279
     64          6           0      -16.341010    2.833981    3.140415
     65          6           0      -17.355128    2.982844    1.997636
     66          6           0      -16.386795    4.028367    4.103197
     67          1           0        2.727118    2.544255   -2.400477
     68          1           0        8.732153    4.228788   -0.236798
     69          1           0        9.434813   -1.606522    2.120949
     70          1           0        1.898369   -2.018855   -1.804159
     71          1           0        1.282450    0.768926   -1.832239
     72          1           0        1.437272    0.557297   -4.007161
     73          1           0        2.122128   -1.096281   -3.856853
     74          1           0        3.154892    0.256618   -4.192915
     75          1           0        1.418615   -0.373364    0.775383
     76          1           0        1.023035   -2.033768    0.508395
     77          1           0       -0.452361   -0.209586   -1.332613
     78          1           0       -0.603906   -0.047389    0.360613
     79          1           0        2.943098    4.802452   -2.293850
     80          1           0        4.340117    5.809134   -2.867212
     81          1           0        3.571001    6.098784   -1.305849
     82          1           0        6.790384    8.323685   -1.202660
     83          1           0        5.243236    7.525074   -0.733921
     84          1           0        5.867744    7.264990   -2.313179
     85          1           0       10.159533    3.080907    1.331747
     86          1           0       10.951796    0.253019    1.016187
     87          1           0       11.938752    1.546579   -0.435629
     88          1           0       11.687877    3.318236   -0.342365
     89          1           0       10.715054    2.160042   -1.435267
     90          1           0       11.100418    2.044369    3.009564
     91          1           0       11.125983    0.249095    3.337093
     92          1           0        9.589176    2.351997    4.482806
     93          1           0        9.264156    0.480763    4.493706
     94          1           0        8.413468    1.669129    3.549693
     95          1           0        8.733042   -3.693081    3.171153
     96          1           0        8.826984   -4.686992    1.754485
     97          1           0        7.538877   -5.027913    2.994799
     98          1           0        2.880396   -3.302494    1.449210
     99          1           0        1.920727   -6.416882   -1.392882
    100          1           0        0.341519   -5.495502   -1.491536
    101          1           0        0.817733   -6.613483   -0.147308
    102          1           0       -3.625632   -2.695268    1.864305
    103          1           0       -2.944603   -3.785540    0.549802
    104          1           0       -4.436449   -1.452561   -0.345041
    105          1           0       -6.278301   -5.149380    0.221615
    106          1           0       -4.628870   -5.353731   -0.175271
    107          1           0       -5.675462   -5.303264   -1.536658
    108          1           0       -6.462548   -3.511049   -2.492557
    109          1           0       -5.682398   -1.958609   -2.183449
    110          1           0       -7.639642   -2.005045   -0.272768
    111          1           0       -8.451010   -2.854048   -1.599196
    112          1           0       -7.500387   -0.614009   -2.946180
    113          1           0       -7.443366   -0.011915   -1.262979
    114          1           0       -9.937266   -1.201666   -1.502634
    115          1           0       -9.875484    0.245539   -4.169243
    116          1           0      -11.020899   -0.979615   -3.420608
    117          1           0       -9.422187   -1.334075   -3.895545
    118          1           0      -10.207774    1.559833   -2.267837
    119          1           0       -8.851985    1.562986   -1.254525
    120          1           0      -10.193401    1.925103    0.557727
    121          1           0      -10.667237    0.209012    0.545097
    122          1           0      -12.159942    1.760056   -1.517056
    123          1           0      -12.280078    2.531655    0.011582
    124          1           0      -12.769482   -0.040690    0.853804
    125          1           0      -13.658649   -0.016356   -1.888128
    126          1           0      -14.090975   -1.199756   -0.830208
    127          1           0      -12.389876   -1.018812   -1.336105
    128          1           0      -15.224297    0.895472   -0.112036
    129          1           0      -14.341791    2.352490    0.017771
    130          1           0      -13.759118    0.971684    2.527163
    131          1           0      -15.529146    0.748545    2.206604
    132          1           0      -14.942656    3.481353    1.758559
    133          1           0      -14.209399    2.888818    3.388602
    134          1           0      -16.563035    1.920934    3.692958
    135          1           0      -17.054135    3.059461    0.952869
    136          1           0      -17.956885    3.888965    2.066528
    137          1           0      -18.048692    2.145783    1.914394
    138          1           0      -17.377149    4.480778    4.165028
    139          1           0      -15.703927    4.775452    3.697682
    140          1           0      -16.149395    3.775872    5.136052
 ---------------------------------------------------------------------

 SCF Done:  E(RZINDO/S) =  -474.300465761     A.U. after   20 cycles

 Excitation energies and oscillator strengths:

 Excited State   1:      Singlet-A      1.2188 eV 1017.25 nm  f=0.6659  <S**2>=0.000
     175 ->178         0.17317
     176 ->177         0.66497
 This state for optimization and/or second-order correction.
 Total Energy, E(CIS/TDA) =  -474.255675211
 Copying the excited state density for this state as the 1-particle RhoCI density.

 Excited State   2:      Singlet-A      1.9237 eV  644.52 nm  f=0.0859  <S**2>=0.000
     175 ->177         0.58194
     176 ->178        -0.36666

 Excited State   3:      Singlet-A      2.9514 eV  420.08 nm  f=0.7089  <S**2>=0.000
     172 ->177        -0.13115
     175 ->177         0.30595
     176 ->178         0.54617
     176 ->179         0.19008

 Excited State   4:      Singlet-A      3.0493 eV  406.60 nm  f=0.0075  <S**2>=0.000
     167 ->179         0.14491
     167 ->181        -0.12435
     168 ->177         0.21932
     168 ->178         0.18128
     168 ->179         0.29377
     168 ->181        -0.22754
     168 ->186        -0.17529
     171 ->177         0.20957
     172 ->177         0.12026
     174 ->177         0.19929
     176 ->179         0.15542

 Excited State   5:      Singlet-A      3.0711 eV  403.72 nm  f=0.0015  <S**2>=0.000
     169 ->177         0.15349
     169 ->179        -0.18039
     169 ->181        -0.16293
     170 ->177         0.26197
     170 ->179        -0.26559
     170 ->181        -0.29146
     170 ->186         0.13958
     170 ->187        -0.12704
     170 ->201         0.10307
     171 ->177         0.13123
     176 ->179        -0.19783

 The electronic state is 1-A.
 Alpha  occ. eigenvalues --   -1.87454  -1.80827  -1.79563  -1.73294  -1.71320
 Alpha  occ. eigenvalues --   -1.70919  -1.65917  -1.60543  -1.59486  -1.57053
 Alpha  occ. eigenvalues --   -1.56451  -1.50801  -1.47013  -1.46569  -1.46526
 Alpha  occ. eigenvalues --   -1.43594  -1.41973  -1.41584  -1.39750  -1.37270
 Alpha  occ. eigenvalues --   -1.36022  -1.32235  -1.31938  -1.30901  -1.29324
 Alpha  occ. eigenvalues --   -1.28280  -1.25909  -1.23469  -1.21537  -1.18071
 Alpha  occ. eigenvalues --   -1.16322  -1.15744  -1.14528  -1.13646  -1.13219
 Alpha  occ. eigenvalues --   -1.12964  -1.11663  -1.09721  -1.05985  -1.03254
 Alpha  occ. eigenvalues --   -1.02462  -1.01189  -0.99357  -0.98578  -0.96909
 Alpha  occ. eigenvalues --   -0.95772  -0.94258  -0.93066  -0.92691  -0.92132
 Alpha  occ. eigenvalues --   -0.91209  -0.90140  -0.89539  -0.88387  -0.87133
 Alpha  occ. eigenvalues --   -0.85225  -0.84521  -0.82516  -0.80925  -0.80174
 Alpha  occ. eigenvalues --   -0.78815  -0.78302  -0.77564  -0.77175  -0.75874
 Alpha  occ. eigenvalues --   -0.75175  -0.75058  -0.74648  -0.74410  -0.73743
 Alpha  occ. eigenvalues --   -0.73198  -0.72745  -0.72306  -0.71710  -0.70868
 Alpha  occ. eigenvalues --   -0.70367  -0.70172  -0.69001  -0.68559  -0.68380
 Alpha  occ. eigenvalues --   -0.67611  -0.67495  -0.66915  -0.66573  -0.65725
 Alpha  occ. eigenvalues --   -0.64896  -0.64733  -0.64342  -0.63704  -0.63277
 Alpha  occ. eigenvalues --   -0.62566  -0.62166  -0.61772  -0.61619  -0.61562
 Alpha  occ. eigenvalues --   -0.61389  -0.61173  -0.60571  -0.60369  -0.60167
 Alpha  occ. eigenvalues --   -0.59813  -0.59225  -0.59021  -0.58636  -0.58215
 Alpha  occ. eigenvalues --   -0.57856  -0.57365  -0.57089  -0.56008  -0.55900
 Alpha  occ. eigenvalues --   -0.55725  -0.55143  -0.54887  -0.54560  -0.54155
 Alpha  occ. eigenvalues --   -0.53752  -0.53509  -0.53214  -0.53008  -0.52903
 Alpha  occ. eigenvalues --   -0.52656  -0.52422  -0.52125  -0.51933  -0.51706
 Alpha  occ. eigenvalues --   -0.51074  -0.50873  -0.50691  -0.50180  -0.50050
 Alpha  occ. eigenvalues --   -0.49810  -0.49338  -0.49279  -0.49137  -0.48735
 Alpha  occ. eigenvalues --   -0.48465  -0.48160  -0.47987  -0.47692  -0.47548
 Alpha  occ. eigenvalues --   -0.47310  -0.47113  -0.46533  -0.46159  -0.46107
 Alpha  occ. eigenvalues --   -0.45951  -0.45802  -0.45386  -0.45294  -0.45147
 Alpha  occ. eigenvalues --   -0.44811  -0.44486  -0.44106  -0.44030  -0.43946
 Alpha  occ. eigenvalues --   -0.43218  -0.43161  -0.42852  -0.41890  -0.41385
 Alpha  occ. eigenvalues --   -0.41212  -0.40500  -0.40211  -0.39172  -0.38338
 Alpha  occ. eigenvalues --   -0.37083  -0.36637  -0.35803  -0.34420  -0.34369
 Alpha  occ. eigenvalues --   -0.32646  -0.32319  -0.31902  -0.31695  -0.26349
 Alpha  occ. eigenvalues --   -0.21450
 Alpha virt. eigenvalues --   -0.08597  -0.01302  -0.00014   0.01297   0.01500
 Alpha virt. eigenvalues --    0.01739   0.03279   0.03665   0.04304   0.05145
 Alpha virt. eigenvalues --    0.06738   0.06968   0.07698   0.08095   0.08460

 Mulliken charges:
               1
     1  Mg   0.425836
     2  C   -0.067267
     3  C   -0.101336
     4  C   -0.064016
     5  C   -0.052637
     6  N   -0.330518
     7  C    0.148873
     8  C    0.009609
     9  C    0.003726
    10  C    0.140656
    11  C   -0.048695
    12  C   -0.023559
    13  C   -0.002859
    14  C    0.474622
    15  O   -0.523314
    16  O   -0.259252
    17  N   -0.303162
    18  C    0.097471
    19  C    0.026782
    20  C   -0.064396
    21  C    0.134223
    22  C   -0.032888
    23  C    0.339474
    24  O   -0.525428
    25  C   -0.026456
    26  N   -0.239847
    27  C    0.140545
    28  C   -0.007440
    29  C    0.005588
    30  C    0.131002
    31  C   -0.052106
    32  C   -0.033205
    33  C   -0.066611
    34  N   -0.326572
    35  C    0.097808
    36  C    0.021220
    37  C   -0.064293
    38  C    0.106823
    39  C   -0.031450
    40  C    0.337623
    41  O   -0.514321
    42  C    0.053294
    43  C    0.499165
    44  O   -0.536937
    45  O   -0.265971
    46  C    0.070863
    47  C    0.107727
    48  C   -0.076691
    49  C   -0.033885
    50  C   -0.044266
    51  C   -0.033128
    52  C   -0.026809
    53  C   -0.032481
    54  C   -0.021500
    55  C   -0.059070
    56  C   -0.043829
    57  C   -0.035186
    58  C   -0.035233
    59  C   -0.005072
    60  C   -0.057107
    61  C   -0.038074
    62  C   -0.044130
    63  C   -0.039044
    64  C   -0.001371
    65  C   -0.060441
    66  C   -0.058418
    67  H    0.025253
    68  H    0.042098
    69  H    0.016822
    70  H    0.047246
    71  H    0.027132
    72  H    0.013785
    73  H    0.025153
    74  H    0.036294
    75  H    0.026562
    76  H    0.027719
    77  H    0.049346
    78  H    0.022230
    79  H    0.029974
    80  H    0.033259
    81  H    0.026155
    82  H    0.038960
    83  H    0.040107
    84  H    0.030066
    85  H    0.031986
    86  H    0.021736
    87  H    0.020396
    88  H    0.032189
    89  H    0.028103
    90  H    0.018776
    91  H    0.025656
    92  H    0.025456
    93  H    0.024439
    94  H    0.019633
    95  H    0.020879
    96  H    0.036774
    97  H    0.045407
    98  H    0.048969
    99  H    0.050542
   100  H    0.051244
   101  H    0.032659
   102  H    0.048512
   103  H    0.065128
   104  H    0.031990
   105  H    0.033371
   106  H    0.014316
   107  H    0.035676
   108  H    0.020743
   109  H    0.018475
   110  H    0.017037
   111  H    0.024001
   112  H    0.023670
   113  H    0.019821
   114  H    0.018084
   115  H    0.026069
   116  H    0.022031
   117  H    0.001765
   118  H    0.024955
   119  H    0.008606
   120  H    0.018700
   121  H    0.033865
   122  H    0.025588
   123  H    0.007639
   124  H    0.017258
   125  H   -0.000552
   126  H    0.011333
   127  H    0.023935
   128  H    0.015021
   129  H    0.022330
   130  H    0.023586
   131  H    0.024373
   132  H    0.032326
   133  H    0.020997
   134  H    0.021970
   135  H    0.017718
   136  H    0.013528
   137  H    0.011653
   138  H    0.011537
   139  H    0.019321
   140  H    0.017961
 Sum of Mulliken charges =  -0.00000

 Dipole moment (field-independent basis, Debye):
    X=             -4.5883    Y=              7.7154    Z=              0.4519  Tot=              8.9880
 N-N= 4.203767271188D+03 E-N= 0.000000000000D+00  KE=-9.082452324656D+03
 Leave Link  601 at Fri Apr 29 03:40:36 2022, MaxMem=  6710886400 cpu:               0.7 elap:               0.0
 (Enter /sw/apps/gaussian-16.0/g16/l9999.exe)
 1\1\GINC-BP1-COMPUTE174\SP\RZINDO CIS\STO-3G\C55H74Mg1N4O6\OF15641\29-
 Apr-2022\0\\#p ZINDO=(nstates=5)\\step_1851_chromophore_10 ZINDO\\0,1\
 Mg,0,41.536,8.089,29.613\C,0,43.368,9.478,32.312\C,0,39.424,6.696,32.1
 22\C,0,39.996,6.35,27.264\C,0,44.044,8.928,27.473\N,0,41.574,7.927,31.
 916\C,0,42.322,8.688,32.763\C,0,41.808,8.64,34.187\C,0,40.734,7.491,34
 .128\C,0,40.521,7.31,32.64\C,0,41.138,6.093,34.715\C,0,41.174,10.045,3
 4.565\C,0,40.369,10.084,35.89\C,0,41.079,10.793,37.063\O,0,42.197,10.4

 Normal termination of Gaussian 16 at Fri Apr 29 03:40:36 2022.
