 Gaussian 16, Revision A.03,
 Gaussian 16:  ES64L-G16RevA.03 25-Dec-2016

 ------------------------------
 #p blyp/Def2SVP td=(nstates=5)
 ------------------------------

 ---------------------------------------------------
 step_1451_chromophore_24 TDDFT with blyp functional
 ---------------------------------------------------
 Symbolic Z-matrix:
 Charge =  0 Multiplicity = 1

                         Standard orientation:
 ---------------------------------------------------------------------
 Center     Atomic      Atomic             Coordinates (Angstroms)
 Number     Number       Type             X           Y           Z
 ---------------------------------------------------------------------
      1         12           0       -5.285435    1.129593   -0.107424
      2          6           0       -4.515434   -2.207293    0.192701
      3          6           0       -1.806647    1.711818   -0.241466
      4          6           0       -5.825424    4.484016   -0.070542
      5          6           0       -8.519346    0.511604    0.665082
      6          7           0       -3.414875   -0.070887   -0.023596
      7          6           0       -3.405275   -1.449153    0.010563
      8          6           0       -1.993384   -1.998034   -0.175939
      9          6           0       -1.148265   -0.692566    0.138409
     10          6           0       -2.192380    0.404447    0.031691
     11          6           0       -0.501849   -0.594940    1.621477
     12          6           0       -1.720625   -2.434272   -1.624076
     13          6           0       -0.411127   -3.181657   -1.985058
     14          6           0        0.084549   -4.128076   -0.956075
     15          8           0       -0.387618   -5.174557   -0.640196
     16          8           0        1.259115   -3.604450   -0.474062
     17          7           0       -4.067594    2.888486   -0.410450
     18          6           0       -2.663986    2.833056   -0.566452
     19          6           0       -2.307172    4.116022   -1.017980
     20          6           0       -3.439459    5.001819   -0.967604
     21          6           0       -4.527985    4.150858   -0.515669
     22          6           0       -0.835701    4.389407   -1.407292
     23          6           0       -3.520413    6.542790   -1.203251
     24          8           0       -4.548167    7.127675   -1.011477
     25          6           0       -2.328796    7.209563   -1.697895
     26          7           0       -6.829004    2.286018    0.452278
     27          6           0       -6.826691    3.625403    0.409915
     28          6           0       -8.089432    4.182926    1.039403
     29          6           0       -9.049735    3.020523    0.820269
     30          6           0       -8.112547    1.863165    0.685742
     31          6           0       -7.938955    4.692735    2.587158
     32          6           0      -10.165264    3.246645   -0.318276
     33          6           0       -9.923754    2.888952   -1.782163
     34          7           0       -6.370488   -0.520856    0.347876
     35          6           0       -7.695943   -0.624195    0.515958
     36          6           0       -8.051826   -1.997020    0.729948
     37          6           0       -6.841560   -2.680246    0.682829
     38          6           0       -5.847852   -1.719876    0.425095
     39          6           0       -9.488283   -2.591760    0.858424
     40          6           0       -6.174580   -3.909942    0.786523
     41          8           0       -6.643607   -4.985697    1.035573
     42          6           0       -4.711848   -3.701361    0.341587
     43          6           0       -3.949738   -4.411962    1.314998
     44          8           0       -3.692620   -4.067421    2.470589
     45          8           0       -3.575382   -5.642372    0.816977
     46          6           0       -2.798777   -6.475113    1.723683
     47          6           0        2.038189   -4.553176    0.383417
     48          6           0        3.510851   -4.199681    0.275443
     49          6           0        4.350250   -4.301888   -0.770673
     50          6           0        4.134669   -5.195521   -2.043593
     51          6           0        5.683574   -3.717402   -0.690612
     52          6           0        5.929868   -2.673936   -1.822020
     53          6           0        6.523691   -1.335794   -1.259662
     54          6           0        7.929189   -1.009146   -1.759128
     55          6           0        7.937909   -0.986147   -3.347449
     56          6           0        8.439669    0.441308   -1.388073
     57          6           0        9.408754    0.338304   -0.167081
     58          6           0       10.828504   -0.137705   -0.554523
     59          6           0       11.916096    0.948722   -0.326322
     60          6           0       12.944548    1.158808   -1.569293
     61          6           0       12.773065    0.793836    0.918758
     62          6           0       12.840066    2.017649    1.873723
     63          6           0       14.235035    2.051641    2.614144
     64          6           0       15.147477    3.185320    1.979017
     65          6           0       16.595229    2.707946    1.690737
     66          6           0       15.246254    4.435508    2.898154
     67          1           0       -0.757631    1.858745   -0.507892
     68          1           0       -5.869422    5.574975   -0.059228
     69          1           0       -9.546626    0.425362    1.026133
     70          1           0       -1.947071   -2.852043    0.500316
     71          1           0       -0.290257   -0.529829   -0.514012
     72          1           0       -0.706427   -1.553989    2.097896
     73          1           0       -1.064859    0.126430    2.213928
     74          1           0        0.563317   -0.369629    1.570737
     75          1           0       -1.586748   -1.542931   -2.237440
     76          1           0       -2.544442   -2.997265   -2.062576
     77          1           0        0.281318   -2.405469   -2.310385
     78          1           0       -0.541943   -3.806645   -2.867554
     79          1           0       -0.189513    3.514540   -1.331982
     80          1           0       -0.359624    5.197024   -0.850915
     81          1           0       -0.755650    4.709784   -2.446042
     82          1           0       -2.014833    7.007895   -2.721974
     83          1           0       -1.455897    7.034393   -1.069451
     84          1           0       -2.498261    8.286378   -1.677647
     85          1           0       -8.354538    5.076287    0.475088
     86          1           0       -9.636866    2.843504    1.720977
     87          1           0       -7.133333    4.242590    3.168312
     88          1           0       -8.918677    4.553856    3.043412
     89          1           0       -7.720419    5.760453    2.611652
     90          1           0      -10.221729    4.325774   -0.460590
     91          1           0      -11.122706    2.971789    0.124985
     92          1           0      -10.671453    2.206376   -2.184304
     93          1           0       -8.958243    2.389730   -1.870482
     94          1           0       -9.887638    3.784213   -2.402840
     95          1           0      -10.057457   -2.189608    1.696483
     96          1           0       -9.546814   -3.678846    0.919379
     97          1           0      -10.011443   -2.257262   -0.037478
     98          1           0       -4.518804   -4.116344   -0.647088
     99          1           0       -2.873800   -7.486031    1.322733
    100          1           0       -3.273873   -6.538036    2.701462
    101          1           0       -1.759590   -6.164412    1.833256
    102          1           0        1.914679   -5.606544    0.130778
    103          1           0        1.620687   -4.442571    1.383999
    104          1           0        3.836095   -3.892857    1.269429
    105          1           0        3.118912   -5.590480   -2.022007
    106          1           0        4.816404   -6.034705   -1.902951
    107          1           0        4.453751   -4.829615   -3.018810
    108          1           0        6.339995   -4.564945   -0.887022
    109          1           0        5.749786   -3.340283    0.329585
    110          1           0        5.068311   -2.459836   -2.454311
    111          1           0        6.687339   -3.231508   -2.372566
    112          1           0        6.736021   -1.124552   -0.211529
    113          1           0        5.783425   -0.618433   -1.614634
    114          1           0        8.550110   -1.759185   -1.270968
    115          1           0        7.155310   -1.599119   -3.796400
    116          1           0        8.872876   -1.333015   -3.787816
    117          1           0        7.645478    0.033445   -3.599462
    118          1           0        7.664649    1.109650   -1.014486
    119          1           0        9.197674    0.752508   -2.106892
    120          1           0        9.073628   -0.326081    0.628268
    121          1           0        9.408221    1.311096    0.325069
    122          1           0       10.892852   -0.623053   -1.528357
    123          1           0       11.120581   -0.989959    0.059760
    124          1           0       11.504882    1.954424   -0.232818
    125          1           0       12.632893    0.492904   -2.373232
    126          1           0       14.013810    1.078915   -1.373903
    127          1           0       12.830398    2.190173   -1.902346
    128          1           0       13.825262    0.703748    0.647133
    129          1           0       12.529496   -0.056463    1.555704
    130          1           0       12.198002    1.829713    2.733611
    131          1           0       12.630028    3.029766    1.526670
    132          1           0       14.850224    1.163326    2.763260
    133          1           0       13.939033    2.501221    3.561787
    134          1           0       14.680217    3.541655    1.060793
    135          1           0       17.393673    3.358571    2.049106
    136          1           0       16.680560    2.683707    0.603853
    137          1           0       16.691671    1.685063    2.054047
    138          1           0       15.104007    4.257898    3.964096
    139          1           0       14.506517    5.159088    2.555432
    140          1           0       16.135378    5.043147    2.728267
 ---------------------------------------------------------------------

 SCF Done:  E(RB-LYP) =  -3007.32551105     A.U. after   20 cycles

 Excitation energies and oscillator strengths:

 Excited State   1:      Singlet-A      1.7887 eV  693.16 nm  f=0.2842  <S**2>=0.000
     244 -> 247       -0.12439
     245 -> 248        0.16311
     246 -> 247        0.68572
     246 <- 247       -0.15485
 This state for optimization and/or second-order correction.
 Total Energy, E(TD-HF/TD-DFT) =  -3007.25977830
 Copying the excited state density for this state as the 1-particle RhoCI density.

 Excited State   2:      Singlet-A      1.8757 eV  661.00 nm  f=0.0125  <S**2>=0.000
     244 -> 247        0.69564
     246 -> 247        0.12080

 Excited State   3:      Singlet-A      1.9953 eV  621.38 nm  f=0.0887  <S**2>=0.000
     242 -> 247        0.14376
     245 -> 247        0.64978
     246 -> 248       -0.20913

 Excited State   4:      Singlet-A      2.1421 eV  578.80 nm  f=0.0003  <S**2>=0.000
     243 -> 247        0.70608

 Excited State   5:      Singlet-A      2.3156 eV  535.42 nm  f=0.0005  <S**2>=0.000
     241 -> 247        0.69003
     242 -> 247       -0.14993

 The electronic state is 1-A.
 Alpha  occ. eigenvalues --  -46.26028 -18.81624 -18.80438 -18.77237 -18.76178
 Alpha  occ. eigenvalues --  -18.75270 -18.74964 -14.03078 -14.02808 -14.00431
 Alpha  occ. eigenvalues --  -14.00025 -10.03593 -10.02351 -10.00147  -9.98623
 Alpha  occ. eigenvalues --   -9.97557  -9.96290  -9.96136  -9.96114  -9.96110
 Alpha  occ. eigenvalues --   -9.95737  -9.95418  -9.95039  -9.95025  -9.94271
 Alpha  occ. eigenvalues --   -9.94235  -9.93963  -9.93709  -9.93563  -9.93502
 Alpha  occ. eigenvalues --   -9.93478  -9.93471  -9.93399  -9.93257  -9.93222
 Alpha  occ. eigenvalues --   -9.93070  -9.93062  -9.93052  -9.92945  -9.92801
 Alpha  occ. eigenvalues --   -9.92730  -9.92657  -9.92606  -9.92547  -9.92364
 Alpha  occ. eigenvalues --   -9.92353  -9.92232  -9.92174  -9.91980  -9.91904
 Alpha  occ. eigenvalues --   -9.91880  -9.91861  -9.91794  -9.91782  -9.91750
 Alpha  occ. eigenvalues --   -9.91744  -9.91497  -9.91362  -9.91293  -9.91132
 Alpha  occ. eigenvalues --   -9.90990  -9.90974  -9.90877  -9.90533  -9.90459
 Alpha  occ. eigenvalues --   -9.90034  -2.90893  -1.71316  -1.70762  -1.70616
 Alpha  occ. eigenvalues --   -0.98161  -0.96214  -0.93452  -0.92133  -0.90678
 Alpha  occ. eigenvalues --   -0.88047  -0.87840  -0.86892  -0.86664  -0.84398
 Alpha  occ. eigenvalues --   -0.76196  -0.74372  -0.73152  -0.72896  -0.71983
 Alpha  occ. eigenvalues --   -0.71942  -0.71354  -0.70676  -0.70503  -0.69853
 Alpha  occ. eigenvalues --   -0.69203  -0.69053  -0.68083  -0.67609  -0.67128
 Alpha  occ. eigenvalues --   -0.66441  -0.66176  -0.65316  -0.64864  -0.64650
 Alpha  occ. eigenvalues --   -0.63696  -0.62558  -0.62138  -0.61667  -0.60945
 Alpha  occ. eigenvalues --   -0.60275  -0.59971  -0.59751  -0.59520  -0.58884
 Alpha  occ. eigenvalues --   -0.58617  -0.58060  -0.56645  -0.56169  -0.55079
 Alpha  occ. eigenvalues --   -0.54410  -0.54038  -0.52785  -0.52527  -0.51743
 Alpha  occ. eigenvalues --   -0.51320  -0.50955  -0.50518  -0.50265  -0.49991
 Alpha  occ. eigenvalues --   -0.49230  -0.48940  -0.48586  -0.47381  -0.46628
 Alpha  occ. eigenvalues --   -0.46307  -0.45935  -0.45699  -0.45389  -0.44548
 Alpha  occ. eigenvalues --   -0.44349  -0.44043  -0.43216  -0.42924  -0.42366
 Alpha  occ. eigenvalues --   -0.42275  -0.42129  -0.41598  -0.41515  -0.41238
 Alpha  occ. eigenvalues --   -0.40720  -0.40493  -0.40411  -0.40200  -0.39949
 Alpha  occ. eigenvalues --   -0.39767  -0.39657  -0.39594  -0.39441  -0.39214
 Alpha  occ. eigenvalues --   -0.39032  -0.38661  -0.38579  -0.38278  -0.38154
 Alpha  occ. eigenvalues --   -0.37985  -0.37411  -0.37402  -0.37156  -0.37060
 Alpha  occ. eigenvalues --   -0.37009  -0.36935  -0.36695  -0.36248  -0.36196
 Alpha  occ. eigenvalues --   -0.36062  -0.35983  -0.35915  -0.35730  -0.35360
 Alpha  occ. eigenvalues --   -0.35136  -0.35088  -0.35028  -0.34768  -0.34568
 Alpha  occ. eigenvalues --   -0.34564  -0.34398  -0.34374  -0.34152  -0.34066
 Alpha  occ. eigenvalues --   -0.34045  -0.33828  -0.33478  -0.33381  -0.32862
 Alpha  occ. eigenvalues --   -0.32712  -0.32634  -0.32617  -0.32416  -0.32077
 Alpha  occ. eigenvalues --   -0.31867  -0.31748  -0.31656  -0.31511  -0.31465
 Alpha  occ. eigenvalues --   -0.31379  -0.31166  -0.30890  -0.30750  -0.30624
 Alpha  occ. eigenvalues --   -0.30502  -0.30364  -0.30065  -0.29989  -0.29893
 Alpha  occ. eigenvalues --   -0.29695  -0.29653  -0.29379  -0.29219  -0.28784
 Alpha  occ. eigenvalues --   -0.28760  -0.28292  -0.28210  -0.27989  -0.27684
 Alpha  occ. eigenvalues --   -0.27556  -0.27303  -0.26782  -0.26225  -0.26214
 Alpha  occ. eigenvalues --   -0.25989  -0.25695  -0.25543  -0.25462  -0.25279
 Alpha  occ. eigenvalues --   -0.25173  -0.24379  -0.23884  -0.23709  -0.23639
 Alpha  occ. eigenvalues --   -0.23182  -0.22802  -0.22020  -0.20926  -0.20521
 Alpha  occ. eigenvalues --   -0.20214  -0.19728  -0.19486  -0.18493  -0.17218
 Alpha  occ. eigenvalues --   -0.15852
 Alpha virt. eigenvalues --   -0.11700  -0.06445  -0.05559  -0.04322  -0.03016
 Alpha virt. eigenvalues --   -0.02367  -0.02072  -0.01601  -0.01025   0.00148
 Alpha virt. eigenvalues --    0.01237   0.01817   0.02219   0.02608   0.02683

 Mulliken charges:
               1
     1  Mg   0.707391
     2  C    0.068678
     3  C   -0.051779
     4  C   -0.043178
     5  C   -0.081630
     6  N   -0.180764
     7  C   -0.116729
     8  C    0.068433
     9  C   -0.059823
    10  C    0.055563
    11  C    0.120168
    12  C    0.092156
    13  C    0.167725
    14  C    0.053754
    15  O   -0.157478
    16  O   -0.288651
    17  N   -0.288909
    18  C    0.106555
    19  C   -0.112402
    20  C    0.016541
    21  C    0.015770
    22  C    0.147848
    23  C   -0.049995
    24  O   -0.131288
    25  C    0.130196
    26  N   -0.249814
    27  C    0.096810
    28  C    0.007551
    29  C    0.060570
    30  C    0.006831
    31  C    0.110748
    32  C    0.081405
    33  C    0.070104
    34  N   -0.220812
    35  C    0.137616
    36  C   -0.194213
    37  C    0.172093
    38  C   -0.034580
    39  C    0.167127
    40  C   -0.118064
    41  O   -0.105445
    42  C    0.131758
    43  C    0.088361
    44  O   -0.206993
    45  O   -0.266908
    46  C    0.234197
    47  C    0.277655
    48  C   -0.120734
    49  C   -0.108209
    50  C    0.119020
    51  C    0.173992
    52  C    0.058283
    53  C    0.102748
    54  C   -0.095101
    55  C    0.098611
    56  C    0.134434
    57  C    0.033735
    58  C    0.120785
    59  C   -0.055514
    60  C    0.065892
    61  C    0.121680
    62  C    0.045691
    63  C    0.091105
    64  C   -0.113935
    65  C    0.110798
    66  C    0.085512
    67  H   -0.059257
    68  H   -0.047477
    69  H   -0.060415
    70  H   -0.000425
    71  H   -0.024531
    72  H   -0.002045
    73  H   -0.000607
    74  H    0.005467
    75  H   -0.029370
    76  H   -0.014706
    77  H   -0.019058
    78  H   -0.007233
    79  H   -0.021924
    80  H   -0.001758
    81  H   -0.008206
    82  H    0.015828
    83  H   -0.000373
    84  H   -0.017341
    85  H   -0.029583
    86  H   -0.045486
    87  H    0.005727
    88  H   -0.006116
    89  H   -0.003895
    90  H   -0.029902
    91  H   -0.019904
    92  H   -0.005696
    93  H   -0.001063
    94  H   -0.005719
    95  H   -0.005857
    96  H    0.009406
    97  H   -0.006292
    98  H    0.000947
    99  H    0.001938
   100  H    0.005617
   101  H    0.012425
   102  H    0.006885
   103  H   -0.015397
   104  H   -0.034650
   105  H   -0.001762
   106  H   -0.005901
   107  H   -0.000713
   108  H   -0.033057
   109  H   -0.027678
   110  H   -0.001000
   111  H   -0.013201
   112  H   -0.029240
   113  H   -0.042543
   114  H   -0.031841
   115  H   -0.033730
   116  H   -0.007583
   117  H   -0.014164
   118  H   -0.024607
   119  H   -0.013710
   120  H   -0.038721
   121  H   -0.033630
   122  H   -0.034778
   123  H   -0.046460
   124  H   -0.028123
   125  H   -0.018539
   126  H   -0.006903
   127  H   -0.019391
   128  H   -0.032045
   129  H   -0.033546
   130  H   -0.037698
   131  H   -0.020843
   132  H   -0.019458
   133  H   -0.043928
   134  H   -0.030731
   135  H   -0.011814
   136  H   -0.021765
   137  H   -0.022272
   138  H   -0.002452
   139  H   -0.033329
   140  H   -0.025737
 Sum of Mulliken charges =  -0.00000

 Dipole moment (field-independent basis, Debye):
    X=              4.2525    Y=              2.6009    Z=             -3.1193  Tot=              5.8804
 Quadrupole moment (field-independent basis, Debye-Ang):
   XX=           -389.5055   YY=           -431.7330   ZZ=           -404.3450
   XY=            -29.7864   XZ=              3.9459   YZ=             10.0198

 Normal termination of Gaussian 16 at Thu Apr 28 05:39:19 2022.
