 Gaussian 16, Revision A.03,
 Gaussian 16:  ES64L-G16RevA.03 25-Dec-2016

 -----------------------------------
 #p cam-b3lyp/Def2SVP td=(nstates=5)
 -----------------------------------

 --------------------------------------------------------
 step_1451_chromophore_24 TDDFT with cam-b3lyp functional
 --------------------------------------------------------
 Symbolic Z-matrix:
 Charge =  0 Multiplicity = 1

                         Standard orientation:
 ---------------------------------------------------------------------
 Center     Atomic      Atomic             Coordinates (Angstroms)
 Number     Number       Type             X           Y           Z
 ---------------------------------------------------------------------
      1         12           0       -5.285435    1.129593   -0.107424
      2          6           0       -4.515434   -2.207293    0.192701
      3          6           0       -1.806647    1.711818   -0.241466
      4          6           0       -5.825424    4.484016   -0.070542
      5          6           0       -8.519346    0.511604    0.665082
      6          7           0       -3.414875   -0.070887   -0.023596
      7          6           0       -3.405275   -1.449153    0.010563
      8          6           0       -1.993384   -1.998034   -0.175939
      9          6           0       -1.148265   -0.692566    0.138409
     10          6           0       -2.192380    0.404447    0.031691
     11          6           0       -0.501849   -0.594940    1.621477
     12          6           0       -1.720625   -2.434272   -1.624076
     13          6           0       -0.411127   -3.181657   -1.985058
     14          6           0        0.084549   -4.128076   -0.956075
     15          8           0       -0.387618   -5.174557   -0.640196
     16          8           0        1.259115   -3.604450   -0.474062
     17          7           0       -4.067594    2.888486   -0.410450
     18          6           0       -2.663986    2.833056   -0.566452
     19          6           0       -2.307172    4.116022   -1.017980
     20          6           0       -3.439459    5.001819   -0.967604
     21          6           0       -4.527985    4.150858   -0.515669
     22          6           0       -0.835701    4.389407   -1.407292
     23          6           0       -3.520413    6.542790   -1.203251
     24          8           0       -4.548167    7.127675   -1.011477
     25          6           0       -2.328796    7.209563   -1.697895
     26          7           0       -6.829004    2.286018    0.452278
     27          6           0       -6.826691    3.625403    0.409915
     28          6           0       -8.089432    4.182926    1.039403
     29          6           0       -9.049735    3.020523    0.820269
     30          6           0       -8.112547    1.863165    0.685742
     31          6           0       -7.938955    4.692735    2.587158
     32          6           0      -10.165264    3.246645   -0.318276
     33          6           0       -9.923754    2.888952   -1.782163
     34          7           0       -6.370488   -0.520856    0.347876
     35          6           0       -7.695943   -0.624195    0.515958
     36          6           0       -8.051826   -1.997020    0.729948
     37          6           0       -6.841560   -2.680246    0.682829
     38          6           0       -5.847852   -1.719876    0.425095
     39          6           0       -9.488283   -2.591760    0.858424
     40          6           0       -6.174580   -3.909942    0.786523
     41          8           0       -6.643607   -4.985697    1.035573
     42          6           0       -4.711848   -3.701361    0.341587
     43          6           0       -3.949738   -4.411962    1.314998
     44          8           0       -3.692620   -4.067421    2.470589
     45          8           0       -3.575382   -5.642372    0.816977
     46          6           0       -2.798777   -6.475113    1.723683
     47          6           0        2.038189   -4.553176    0.383417
     48          6           0        3.510851   -4.199681    0.275443
     49          6           0        4.350250   -4.301888   -0.770673
     50          6           0        4.134669   -5.195521   -2.043593
     51          6           0        5.683574   -3.717402   -0.690612
     52          6           0        5.929868   -2.673936   -1.822020
     53          6           0        6.523691   -1.335794   -1.259662
     54          6           0        7.929189   -1.009146   -1.759128
     55          6           0        7.937909   -0.986147   -3.347449
     56          6           0        8.439669    0.441308   -1.388073
     57          6           0        9.408754    0.338304   -0.167081
     58          6           0       10.828504   -0.137705   -0.554523
     59          6           0       11.916096    0.948722   -0.326322
     60          6           0       12.944548    1.158808   -1.569293
     61          6           0       12.773065    0.793836    0.918758
     62          6           0       12.840066    2.017649    1.873723
     63          6           0       14.235035    2.051641    2.614144
     64          6           0       15.147477    3.185320    1.979017
     65          6           0       16.595229    2.707946    1.690737
     66          6           0       15.246254    4.435508    2.898154
     67          1           0       -0.757631    1.858745   -0.507892
     68          1           0       -5.869422    5.574975   -0.059228
     69          1           0       -9.546626    0.425362    1.026133
     70          1           0       -1.947071   -2.852043    0.500316
     71          1           0       -0.290257   -0.529829   -0.514012
     72          1           0       -0.706427   -1.553989    2.097896
     73          1           0       -1.064859    0.126430    2.213928
     74          1           0        0.563317   -0.369629    1.570737
     75          1           0       -1.586748   -1.542931   -2.237440
     76          1           0       -2.544442   -2.997265   -2.062576
     77          1           0        0.281318   -2.405469   -2.310385
     78          1           0       -0.541943   -3.806645   -2.867554
     79          1           0       -0.189513    3.514540   -1.331982
     80          1           0       -0.359624    5.197024   -0.850915
     81          1           0       -0.755650    4.709784   -2.446042
     82          1           0       -2.014833    7.007895   -2.721974
     83          1           0       -1.455897    7.034393   -1.069451
     84          1           0       -2.498261    8.286378   -1.677647
     85          1           0       -8.354538    5.076287    0.475088
     86          1           0       -9.636866    2.843504    1.720977
     87          1           0       -7.133333    4.242590    3.168312
     88          1           0       -8.918677    4.553856    3.043412
     89          1           0       -7.720419    5.760453    2.611652
     90          1           0      -10.221729    4.325774   -0.460590
     91          1           0      -11.122706    2.971789    0.124985
     92          1           0      -10.671453    2.206376   -2.184304
     93          1           0       -8.958243    2.389730   -1.870482
     94          1           0       -9.887638    3.784213   -2.402840
     95          1           0      -10.057457   -2.189608    1.696483
     96          1           0       -9.546814   -3.678846    0.919379
     97          1           0      -10.011443   -2.257262   -0.037478
     98          1           0       -4.518804   -4.116344   -0.647088
     99          1           0       -2.873800   -7.486031    1.322733
    100          1           0       -3.273873   -6.538036    2.701462
    101          1           0       -1.759590   -6.164412    1.833256
    102          1           0        1.914679   -5.606544    0.130778
    103          1           0        1.620687   -4.442571    1.383999
    104          1           0        3.836095   -3.892857    1.269429
    105          1           0        3.118912   -5.590480   -2.022007
    106          1           0        4.816404   -6.034705   -1.902951
    107          1           0        4.453751   -4.829615   -3.018810
    108          1           0        6.339995   -4.564945   -0.887022
    109          1           0        5.749786   -3.340283    0.329585
    110          1           0        5.068311   -2.459836   -2.454311
    111          1           0        6.687339   -3.231508   -2.372566
    112          1           0        6.736021   -1.124552   -0.211529
    113          1           0        5.783425   -0.618433   -1.614634
    114          1           0        8.550110   -1.759185   -1.270968
    115          1           0        7.155310   -1.599119   -3.796400
    116          1           0        8.872876   -1.333015   -3.787816
    117          1           0        7.645478    0.033445   -3.599462
    118          1           0        7.664649    1.109650   -1.014486
    119          1           0        9.197674    0.752508   -2.106892
    120          1           0        9.073628   -0.326081    0.628268
    121          1           0        9.408221    1.311096    0.325069
    122          1           0       10.892852   -0.623053   -1.528357
    123          1           0       11.120581   -0.989959    0.059760
    124          1           0       11.504882    1.954424   -0.232818
    125          1           0       12.632893    0.492904   -2.373232
    126          1           0       14.013810    1.078915   -1.373903
    127          1           0       12.830398    2.190173   -1.902346
    128          1           0       13.825262    0.703748    0.647133
    129          1           0       12.529496   -0.056463    1.555704
    130          1           0       12.198002    1.829713    2.733611
    131          1           0       12.630028    3.029766    1.526670
    132          1           0       14.850224    1.163326    2.763260
    133          1           0       13.939033    2.501221    3.561787
    134          1           0       14.680217    3.541655    1.060793
    135          1           0       17.393673    3.358571    2.049106
    136          1           0       16.680560    2.683707    0.603853
    137          1           0       16.691671    1.685063    2.054047
    138          1           0       15.104007    4.257898    3.964096
    139          1           0       14.506517    5.159088    2.555432
    140          1           0       16.135378    5.043147    2.728267
 ---------------------------------------------------------------------

 SCF Done:  E(RCAM-B3LYP) =  -3007.12718393     A.U. after   18 cycles

 Excitation energies and oscillator strengths:

 Excited State   1:      Singlet-A      1.6918 eV  732.87 nm  f=0.3756  <S**2>=0.000
     245 -> 248        0.16037
     246 -> 247        0.69048
     245 <- 248        0.10218
 This state for optimization and/or second-order correction.
 Total Energy, E(TD-HF/TD-DFT) =  -3007.06501261
 Copying the excited state density for this state as the 1-particle RhoCI density.

 Excited State   2:      Singlet-A      2.1912 eV  565.84 nm  f=0.1473  <S**2>=0.000
     245 -> 247        0.65237
     246 -> 248       -0.24407

 Excited State   3:      Singlet-A      3.0755 eV  403.14 nm  f=0.0079  <S**2>=0.000
     244 -> 247        0.67670
     246 -> 248        0.13390

 Excited State   4:      Singlet-A      3.5771 eV  346.61 nm  f=0.0125  <S**2>=0.000
     240 -> 247        0.11165
     242 -> 247        0.63530
     244 -> 247       -0.11434
     246 -> 248        0.21072

 Excited State   5:      Singlet-A      3.5895 eV  345.41 nm  f=0.0005  <S**2>=0.000
     241 -> 247        0.59600
     241 -> 249       -0.27545
     241 -> 250       -0.20404

 The electronic state is 1-A.
 Alpha  occ. eigenvalues --  -46.87507 -19.24467 -19.23252 -19.20196 -19.19766
 Alpha  occ. eigenvalues --  -19.18280 -19.17825 -14.41952 -14.41609 -14.38628
 Alpha  occ. eigenvalues --  -14.38561 -10.38795 -10.37718 -10.35659 -10.33552
 Alpha  occ. eigenvalues --  -10.31712 -10.30965 -10.30765 -10.30356 -10.30238
 Alpha  occ. eigenvalues --  -10.30201 -10.29747 -10.29566 -10.28740 -10.28736
 Alpha  occ. eigenvalues --  -10.28320 -10.28295 -10.27859 -10.27698 -10.27418
 Alpha  occ. eigenvalues --  -10.27415 -10.27388 -10.27383 -10.27361 -10.27284
 Alpha  occ. eigenvalues --  -10.27258 -10.27202 -10.27120 -10.27051 -10.26800
 Alpha  occ. eigenvalues --  -10.26595 -10.26431 -10.26430 -10.26333 -10.26310
 Alpha  occ. eigenvalues --  -10.26237 -10.25979 -10.25947 -10.25921 -10.25825
 Alpha  occ. eigenvalues --  -10.25810 -10.25622 -10.25559 -10.25494 -10.25397
 Alpha  occ. eigenvalues --  -10.25221 -10.25183 -10.25077 -10.24970 -10.24872
 Alpha  occ. eigenvalues --  -10.24647 -10.24614 -10.24542 -10.24162 -10.24076
 Alpha  occ. eigenvalues --  -10.23647  -3.16285  -1.91181  -1.90739  -1.90595
 Alpha  occ. eigenvalues --   -1.16669  -1.14660  -1.12286  -1.10292  -1.08509
 Alpha  occ. eigenvalues --   -1.05741  -1.05485  -1.04609  -1.04259  -1.02207
 Alpha  occ. eigenvalues --   -0.93222  -0.91272  -0.89932  -0.89672  -0.88702
 Alpha  occ. eigenvalues --   -0.88676  -0.87953  -0.87225  -0.87066  -0.86417
 Alpha  occ. eigenvalues --   -0.85673  -0.85463  -0.84382  -0.83842  -0.83306
 Alpha  occ. eigenvalues --   -0.82501  -0.82406  -0.81319  -0.80728  -0.80476
 Alpha  occ. eigenvalues --   -0.79417  -0.78145  -0.77918  -0.77190  -0.76311
 Alpha  occ. eigenvalues --   -0.75541  -0.75229  -0.75127  -0.74797  -0.74107
 Alpha  occ. eigenvalues --   -0.73715  -0.73041  -0.71560  -0.70993  -0.69606
 Alpha  occ. eigenvalues --   -0.69024  -0.68558  -0.67206  -0.66963  -0.66023
 Alpha  occ. eigenvalues --   -0.65541  -0.64892  -0.64752  -0.64255  -0.64032
 Alpha  occ. eigenvalues --   -0.62976  -0.62841  -0.62426  -0.60987  -0.60481
 Alpha  occ. eigenvalues --   -0.59889  -0.59443  -0.59217  -0.58737  -0.57990
 Alpha  occ. eigenvalues --   -0.57831  -0.57477  -0.56388  -0.56005  -0.55826
 Alpha  occ. eigenvalues --   -0.55409  -0.55068  -0.54384  -0.54311  -0.54140
 Alpha  occ. eigenvalues --   -0.53571  -0.53314  -0.53130  -0.53046  -0.52948
 Alpha  occ. eigenvalues --   -0.52700  -0.52326  -0.52215  -0.52014  -0.51906
 Alpha  occ. eigenvalues --   -0.51672  -0.51426  -0.51000  -0.50909  -0.50664
 Alpha  occ. eigenvalues --   -0.50536  -0.50460  -0.49635  -0.49578  -0.49298
 Alpha  occ. eigenvalues --   -0.49231  -0.49058  -0.48892  -0.48796  -0.48642
 Alpha  occ. eigenvalues --   -0.48208  -0.48100  -0.47967  -0.47898  -0.47722
 Alpha  occ. eigenvalues --   -0.47367  -0.47138  -0.46969  -0.46728  -0.46535
 Alpha  occ. eigenvalues --   -0.46322  -0.46245  -0.46099  -0.45957  -0.45840
 Alpha  occ. eigenvalues --   -0.45799  -0.45687  -0.45185  -0.45064  -0.44576
 Alpha  occ. eigenvalues --   -0.44498  -0.44365  -0.44216  -0.44123  -0.43632
 Alpha  occ. eigenvalues --   -0.43544  -0.43391  -0.43290  -0.43172  -0.42946
 Alpha  occ. eigenvalues --   -0.42817  -0.42711  -0.42488  -0.42337  -0.42117
 Alpha  occ. eigenvalues --   -0.41835  -0.41616  -0.41334  -0.41147  -0.41108
 Alpha  occ. eigenvalues --   -0.40815  -0.40737  -0.40475  -0.40390  -0.40276
 Alpha  occ. eigenvalues --   -0.39798  -0.39699  -0.39332  -0.38956  -0.38636
 Alpha  occ. eigenvalues --   -0.38502  -0.38121  -0.37609  -0.37055  -0.36957
 Alpha  occ. eigenvalues --   -0.36923  -0.36843  -0.36688  -0.36138  -0.36024
 Alpha  occ. eigenvalues --   -0.35736  -0.35205  -0.34870  -0.34663  -0.34325
 Alpha  occ. eigenvalues --   -0.34178  -0.33315  -0.32727  -0.32009  -0.31189
 Alpha  occ. eigenvalues --   -0.30325  -0.29984  -0.29890  -0.29298  -0.24043
 Alpha  occ. eigenvalues --   -0.21237
 Alpha virt. eigenvalues --   -0.08943  -0.01071   0.00974   0.02708   0.02808
 Alpha virt. eigenvalues --    0.04441   0.05384   0.05859   0.06487   0.06743
 Alpha virt. eigenvalues --    0.07984   0.08540   0.08753   0.08773   0.08846

 Mulliken charges:
               1
     1  Mg   0.842634
     2  C    0.041932
     3  C   -0.060727
     4  C   -0.059812
     5  C   -0.080868
     6  N   -0.251376
     7  C   -0.073012
     8  C    0.012619
     9  C   -0.113957
    10  C    0.072156
    11  C    0.069036
    12  C    0.047130
    13  C    0.096694
    14  C    0.130244
    15  O   -0.198165
    16  O   -0.350913
    17  N   -0.377521
    18  C    0.119761
    19  C   -0.124739
    20  C   -0.047747
    21  C    0.047830
    22  C    0.093803
    23  C    0.034303
    24  O   -0.170638
    25  C    0.041140
    26  N   -0.325363
    27  C    0.115103
    28  C   -0.049022
    29  C   -0.003580
    30  C    0.019616
    31  C    0.059683
    32  C    0.028538
    33  C    0.011002
    34  N   -0.314771
    35  C    0.133120
    36  C   -0.184428
    37  C    0.084474
    38  C    0.006078
    39  C    0.118046
    40  C   -0.020172
    41  O   -0.146214
    42  C    0.051511
    43  C    0.174671
    44  O   -0.243591
    45  O   -0.329039
    46  C    0.194452
    47  C    0.249078
    48  C   -0.151093
    49  C   -0.122266
    50  C    0.064423
    51  C    0.112375
    52  C   -0.004988
    53  C    0.057735
    54  C   -0.148751
    55  C    0.038094
    56  C    0.073279
    57  C   -0.014940
    58  C    0.062523
    59  C   -0.115550
    60  C    0.017190
    61  C    0.071963
    62  C   -0.006474
    63  C    0.031558
    64  C   -0.170004
    65  C    0.051821
    66  C    0.027080
    67  H   -0.025992
    68  H   -0.005865
    69  H   -0.025076
    70  H    0.028576
    71  H    0.009939
    72  H    0.022288
    73  H    0.025221
    74  H    0.028642
    75  H    0.000914
    76  H    0.014842
    77  H    0.015676
    78  H    0.026449
    79  H    0.007721
    80  H    0.024463
    81  H    0.019383
    82  H    0.045850
    83  H    0.027487
    84  H    0.020394
    85  H    0.006162
    86  H   -0.007577
    87  H    0.030016
    88  H    0.016940
    89  H    0.019387
    90  H   -0.001865
    91  H    0.008230
    92  H    0.018009
    93  H    0.019779
    94  H    0.017049
    95  H    0.017372
    96  H    0.036413
    97  H    0.017463
    98  H    0.045389
    99  H    0.025903
   100  H    0.030645
   101  H    0.032617
   102  H    0.035508
   103  H    0.013899
   104  H   -0.001807
   105  H    0.020808
   106  H    0.018620
   107  H    0.023625
   108  H   -0.003472
   109  H    0.002850
   110  H    0.026367
   111  H    0.014578
   112  H   -0.002928
   113  H   -0.013571
   114  H   -0.002963
   115  H   -0.008366
   116  H    0.016198
   117  H    0.010494
   118  H    0.005245
   119  H    0.015102
   120  H   -0.011193
   121  H   -0.004897
   122  H   -0.007419
   123  H   -0.015452
   124  H    0.003246
   125  H    0.004021
   126  H    0.014827
   127  H    0.003281
   128  H   -0.005059
   129  H   -0.004549
   130  H   -0.008171
   131  H    0.005250
   132  H    0.008377
   133  H   -0.012963
   134  H   -0.000629
   135  H    0.012597
   136  H    0.001609
   137  H    0.000403
   138  H    0.020113
   139  H   -0.008932
   140  H   -0.000466
 Sum of Mulliken charges =  -0.00000

 Dipole moment (field-independent basis, Debye):
    X=              5.0696    Y=              3.6179    Z=             -3.4453  Tot=              7.1176
 Quadrupole moment (field-independent basis, Debye-Ang):
   XX=           -393.5236   YY=           -426.3743   ZZ=           -403.6510
   XY=            -32.7663   XZ=              5.0045   YZ=              9.1975

 Normal termination of Gaussian 16 at Thu Apr 28 04:40:42 2022.
