 Gaussian 16, Revision A.03,
 Gaussian 16:  ES64L-G16RevA.03 25-Dec-2016

 ---------------------------------
 #p PBE1PBE/Def2SVP td=(nstates=5)
 ---------------------------------

 ------------------------------------------------------
 step_1451_chromophore_24 TDDFT with PBE1PBE functional
 ------------------------------------------------------
 Symbolic Z-matrix:
 Charge =  0 Multiplicity = 1

                         Standard orientation:
 ---------------------------------------------------------------------
 Center     Atomic      Atomic             Coordinates (Angstroms)
 Number     Number       Type             X           Y           Z
 ---------------------------------------------------------------------
      1         12           0       -5.285435    1.129593   -0.107424
      2          6           0       -4.515434   -2.207293    0.192701
      3          6           0       -1.806647    1.711818   -0.241466
      4          6           0       -5.825424    4.484016   -0.070542
      5          6           0       -8.519346    0.511604    0.665082
      6          7           0       -3.414875   -0.070887   -0.023596
      7          6           0       -3.405275   -1.449153    0.010563
      8          6           0       -1.993384   -1.998034   -0.175939
      9          6           0       -1.148265   -0.692566    0.138409
     10          6           0       -2.192380    0.404447    0.031691
     11          6           0       -0.501849   -0.594940    1.621477
     12          6           0       -1.720625   -2.434272   -1.624076
     13          6           0       -0.411127   -3.181657   -1.985058
     14          6           0        0.084549   -4.128076   -0.956075
     15          8           0       -0.387618   -5.174557   -0.640196
     16          8           0        1.259115   -3.604450   -0.474062
     17          7           0       -4.067594    2.888486   -0.410450
     18          6           0       -2.663986    2.833056   -0.566452
     19          6           0       -2.307172    4.116022   -1.017980
     20          6           0       -3.439459    5.001819   -0.967604
     21          6           0       -4.527985    4.150858   -0.515669
     22          6           0       -0.835701    4.389407   -1.407292
     23          6           0       -3.520413    6.542790   -1.203251
     24          8           0       -4.548167    7.127675   -1.011477
     25          6           0       -2.328796    7.209563   -1.697895
     26          7           0       -6.829004    2.286018    0.452278
     27          6           0       -6.826691    3.625403    0.409915
     28          6           0       -8.089432    4.182926    1.039403
     29          6           0       -9.049735    3.020523    0.820269
     30          6           0       -8.112547    1.863165    0.685742
     31          6           0       -7.938955    4.692735    2.587158
     32          6           0      -10.165264    3.246645   -0.318276
     33          6           0       -9.923754    2.888952   -1.782163
     34          7           0       -6.370488   -0.520856    0.347876
     35          6           0       -7.695943   -0.624195    0.515958
     36          6           0       -8.051826   -1.997020    0.729948
     37          6           0       -6.841560   -2.680246    0.682829
     38          6           0       -5.847852   -1.719876    0.425095
     39          6           0       -9.488283   -2.591760    0.858424
     40          6           0       -6.174580   -3.909942    0.786523
     41          8           0       -6.643607   -4.985697    1.035573
     42          6           0       -4.711848   -3.701361    0.341587
     43          6           0       -3.949738   -4.411962    1.314998
     44          8           0       -3.692620   -4.067421    2.470589
     45          8           0       -3.575382   -5.642372    0.816977
     46          6           0       -2.798777   -6.475113    1.723683
     47          6           0        2.038189   -4.553176    0.383417
     48          6           0        3.510851   -4.199681    0.275443
     49          6           0        4.350250   -4.301888   -0.770673
     50          6           0        4.134669   -5.195521   -2.043593
     51          6           0        5.683574   -3.717402   -0.690612
     52          6           0        5.929868   -2.673936   -1.822020
     53          6           0        6.523691   -1.335794   -1.259662
     54          6           0        7.929189   -1.009146   -1.759128
     55          6           0        7.937909   -0.986147   -3.347449
     56          6           0        8.439669    0.441308   -1.388073
     57          6           0        9.408754    0.338304   -0.167081
     58          6           0       10.828504   -0.137705   -0.554523
     59          6           0       11.916096    0.948722   -0.326322
     60          6           0       12.944548    1.158808   -1.569293
     61          6           0       12.773065    0.793836    0.918758
     62          6           0       12.840066    2.017649    1.873723
     63          6           0       14.235035    2.051641    2.614144
     64          6           0       15.147477    3.185320    1.979017
     65          6           0       16.595229    2.707946    1.690737
     66          6           0       15.246254    4.435508    2.898154
     67          1           0       -0.757631    1.858745   -0.507892
     68          1           0       -5.869422    5.574975   -0.059228
     69          1           0       -9.546626    0.425362    1.026133
     70          1           0       -1.947071   -2.852043    0.500316
     71          1           0       -0.290257   -0.529829   -0.514012
     72          1           0       -0.706427   -1.553989    2.097896
     73          1           0       -1.064859    0.126430    2.213928
     74          1           0        0.563317   -0.369629    1.570737
     75          1           0       -1.586748   -1.542931   -2.237440
     76          1           0       -2.544442   -2.997265   -2.062576
     77          1           0        0.281318   -2.405469   -2.310385
     78          1           0       -0.541943   -3.806645   -2.867554
     79          1           0       -0.189513    3.514540   -1.331982
     80          1           0       -0.359624    5.197024   -0.850915
     81          1           0       -0.755650    4.709784   -2.446042
     82          1           0       -2.014833    7.007895   -2.721974
     83          1           0       -1.455897    7.034393   -1.069451
     84          1           0       -2.498261    8.286378   -1.677647
     85          1           0       -8.354538    5.076287    0.475088
     86          1           0       -9.636866    2.843504    1.720977
     87          1           0       -7.133333    4.242590    3.168312
     88          1           0       -8.918677    4.553856    3.043412
     89          1           0       -7.720419    5.760453    2.611652
     90          1           0      -10.221729    4.325774   -0.460590
     91          1           0      -11.122706    2.971789    0.124985
     92          1           0      -10.671453    2.206376   -2.184304
     93          1           0       -8.958243    2.389730   -1.870482
     94          1           0       -9.887638    3.784213   -2.402840
     95          1           0      -10.057457   -2.189608    1.696483
     96          1           0       -9.546814   -3.678846    0.919379
     97          1           0      -10.011443   -2.257262   -0.037478
     98          1           0       -4.518804   -4.116344   -0.647088
     99          1           0       -2.873800   -7.486031    1.322733
    100          1           0       -3.273873   -6.538036    2.701462
    101          1           0       -1.759590   -6.164412    1.833256
    102          1           0        1.914679   -5.606544    0.130778
    103          1           0        1.620687   -4.442571    1.383999
    104          1           0        3.836095   -3.892857    1.269429
    105          1           0        3.118912   -5.590480   -2.022007
    106          1           0        4.816404   -6.034705   -1.902951
    107          1           0        4.453751   -4.829615   -3.018810
    108          1           0        6.339995   -4.564945   -0.887022
    109          1           0        5.749786   -3.340283    0.329585
    110          1           0        5.068311   -2.459836   -2.454311
    111          1           0        6.687339   -3.231508   -2.372566
    112          1           0        6.736021   -1.124552   -0.211529
    113          1           0        5.783425   -0.618433   -1.614634
    114          1           0        8.550110   -1.759185   -1.270968
    115          1           0        7.155310   -1.599119   -3.796400
    116          1           0        8.872876   -1.333015   -3.787816
    117          1           0        7.645478    0.033445   -3.599462
    118          1           0        7.664649    1.109650   -1.014486
    119          1           0        9.197674    0.752508   -2.106892
    120          1           0        9.073628   -0.326081    0.628268
    121          1           0        9.408221    1.311096    0.325069
    122          1           0       10.892852   -0.623053   -1.528357
    123          1           0       11.120581   -0.989959    0.059760
    124          1           0       11.504882    1.954424   -0.232818
    125          1           0       12.632893    0.492904   -2.373232
    126          1           0       14.013810    1.078915   -1.373903
    127          1           0       12.830398    2.190173   -1.902346
    128          1           0       13.825262    0.703748    0.647133
    129          1           0       12.529496   -0.056463    1.555704
    130          1           0       12.198002    1.829713    2.733611
    131          1           0       12.630028    3.029766    1.526670
    132          1           0       14.850224    1.163326    2.763260
    133          1           0       13.939033    2.501221    3.561787
    134          1           0       14.680217    3.541655    1.060793
    135          1           0       17.393673    3.358571    2.049106
    136          1           0       16.680560    2.683707    0.603853
    137          1           0       16.691671    1.685063    2.054047
    138          1           0       15.104007    4.257898    3.964096
    139          1           0       14.506517    5.159088    2.555432
    140          1           0       16.135378    5.043147    2.728267
 ---------------------------------------------------------------------

 SCF Done:  E(RPBE1PBE) =  -3005.31550271     A.U. after   15 cycles

 Excitation energies and oscillator strengths:

 Excited State   1:      Singlet-A      1.8326 eV  676.53 nm  f=0.3584  <S**2>=0.000
     245 -> 248       -0.15526
     246 -> 247        0.69758
     246 <- 247       -0.11496
 This state for optimization and/or second-order correction.
 Total Energy, E(TD-HF/TD-DFT) =  -3005.24815418
 Copying the excited state density for this state as the 1-particle RhoCI density.

 Excited State   2:      Singlet-A      2.2011 eV  563.28 nm  f=0.1332  <S**2>=0.000
     244 -> 247        0.11087
     245 -> 247        0.65878
     246 -> 248        0.22478

 Excited State   3:      Singlet-A      2.8233 eV  439.15 nm  f=0.0169  <S**2>=0.000
     244 -> 247        0.68999
     246 -> 248       -0.10417

 Excited State   4:      Singlet-A      2.9720 eV  417.17 nm  f=0.0003  <S**2>=0.000
     242 -> 247        0.68274
     242 -> 249       -0.14548

 Excited State   5:      Singlet-A      3.1944 eV  388.13 nm  f=0.0063  <S**2>=0.000
     240 -> 247        0.17671
     241 -> 247        0.66828

 The electronic state is 1-A.
 Alpha  occ. eigenvalues --  -46.90896 -19.25145 -19.23968 -19.20415 -19.19720
 Alpha  occ. eigenvalues --  -19.18573 -19.18244 -14.41399 -14.41139 -14.38365
 Alpha  occ. eigenvalues --  -14.38140 -10.35766 -10.34764 -10.32524 -10.30850
 Alpha  occ. eigenvalues --  -10.29083 -10.28434 -10.28297 -10.28204 -10.28166
 Alpha  occ. eigenvalues --  -10.27590 -10.27139 -10.26837 -10.26745 -10.26107
 Alpha  occ. eigenvalues --  -10.26090 -10.26085 -10.25784 -10.25385 -10.25335
 Alpha  occ. eigenvalues --  -10.25225 -10.25215 -10.25153 -10.25052 -10.24892
 Alpha  occ. eigenvalues --  -10.24749 -10.24633 -10.24618 -10.24523 -10.24318
 Alpha  occ. eigenvalues --  -10.24182 -10.24141 -10.24043 -10.24024 -10.23812
 Alpha  occ. eigenvalues --  -10.23664 -10.23504 -10.23442 -10.23407 -10.23360
 Alpha  occ. eigenvalues --  -10.23331 -10.23317 -10.23122 -10.23090 -10.22979
 Alpha  occ. eigenvalues --  -10.22757 -10.22653 -10.22645 -10.22537 -10.22488
 Alpha  occ. eigenvalues --  -10.22081 -10.22078 -10.22032 -10.21605 -10.21567
 Alpha  occ. eigenvalues --  -10.21474  -3.13248  -1.86085  -1.85622  -1.85480
 Alpha  occ. eigenvalues --   -1.11438  -1.09472  -1.06801  -1.05237  -1.03366
 Alpha  occ. eigenvalues --   -1.00602  -1.00331  -0.99208  -0.98947  -0.96675
 Alpha  occ. eigenvalues --   -0.87707  -0.85407  -0.84097  -0.83805  -0.82940
 Alpha  occ. eigenvalues --   -0.82790  -0.82250  -0.81575  -0.81177  -0.80692
 Alpha  occ. eigenvalues --   -0.79976  -0.79669  -0.78577  -0.78113  -0.77523
 Alpha  occ. eigenvalues --   -0.76668  -0.76547  -0.75599  -0.74916  -0.74845
 Alpha  occ. eigenvalues --   -0.73581  -0.72439  -0.72077  -0.71475  -0.70471
 Alpha  occ. eigenvalues --   -0.69894  -0.69545  -0.69209  -0.68909  -0.68274
 Alpha  occ. eigenvalues --   -0.68024  -0.67468  -0.65931  -0.65309  -0.64007
 Alpha  occ. eigenvalues --   -0.63487  -0.62879  -0.61554  -0.61220  -0.60482
 Alpha  occ. eigenvalues --   -0.59756  -0.59386  -0.59239  -0.58821  -0.58161
 Alpha  occ. eigenvalues --   -0.57437  -0.57067  -0.56631  -0.55607  -0.54876
 Alpha  occ. eigenvalues --   -0.54278  -0.53982  -0.53772  -0.53362  -0.52493
 Alpha  occ. eigenvalues --   -0.52392  -0.51963  -0.50717  -0.50638  -0.50336
 Alpha  occ. eigenvalues --   -0.49955  -0.49513  -0.48836  -0.48801  -0.48626
 Alpha  occ. eigenvalues --   -0.48152  -0.47825  -0.47668  -0.47518  -0.47390
 Alpha  occ. eigenvalues --   -0.47113  -0.46788  -0.46664  -0.46567  -0.46414
 Alpha  occ. eigenvalues --   -0.46200  -0.45964  -0.45585  -0.45472  -0.45246
 Alpha  occ. eigenvalues --   -0.45181  -0.45064  -0.44122  -0.44059  -0.43854
 Alpha  occ. eigenvalues --   -0.43786  -0.43628  -0.43551  -0.43360  -0.43233
 Alpha  occ. eigenvalues --   -0.42792  -0.42655  -0.42583  -0.42492  -0.42323
 Alpha  occ. eigenvalues --   -0.41997  -0.41723  -0.41554  -0.41384  -0.41274
 Alpha  occ. eigenvalues --   -0.41001  -0.40891  -0.40769  -0.40664  -0.40585
 Alpha  occ. eigenvalues --   -0.40437  -0.40367  -0.40000  -0.39661  -0.39380
 Alpha  occ. eigenvalues --   -0.39273  -0.39074  -0.38956  -0.38822  -0.38298
 Alpha  occ. eigenvalues --   -0.38268  -0.38145  -0.38069  -0.37940  -0.37709
 Alpha  occ. eigenvalues --   -0.37594  -0.37459  -0.37376  -0.37165  -0.37018
 Alpha  occ. eigenvalues --   -0.36589  -0.36350  -0.36181  -0.36059  -0.35902
 Alpha  occ. eigenvalues --   -0.35681  -0.35506  -0.35388  -0.35356  -0.35081
 Alpha  occ. eigenvalues --   -0.34656  -0.34630  -0.34224  -0.33784  -0.33488
 Alpha  occ. eigenvalues --   -0.33374  -0.32862  -0.32395  -0.32060  -0.31960
 Alpha  occ. eigenvalues --   -0.31783  -0.31721  -0.31538  -0.31239  -0.30937
 Alpha  occ. eigenvalues --   -0.30695  -0.30127  -0.29797  -0.29502  -0.29332
 Alpha  occ. eigenvalues --   -0.29229  -0.28744  -0.27745  -0.26865  -0.26516
 Alpha  occ. eigenvalues --   -0.25788  -0.25324  -0.25188  -0.24741  -0.20915
 Alpha  occ. eigenvalues --   -0.18813
 Alpha virt. eigenvalues --   -0.11344  -0.04669  -0.03232  -0.01696  -0.00037
 Alpha virt. eigenvalues --   -0.00002   0.01029   0.01366   0.01969   0.03118
 Alpha virt. eigenvalues --    0.04094   0.04685   0.05176   0.05525   0.05602

 Mulliken charges:
               1
     1  Mg   0.993074
     2  C    0.026016
     3  C   -0.045370
     4  C   -0.047939
     5  C   -0.069097
     6  N   -0.359677
     7  C   -0.001097
     8  C   -0.069413
     9  C   -0.188543
    10  C    0.102400
    11  C    0.017290
    12  C    0.001879
    13  C    0.022838
    14  C    0.199158
    15  O   -0.234995
    16  O   -0.378127
    17  N   -0.486204
    18  C    0.145674
    19  C   -0.161315
    20  C   -0.098978
    21  C    0.087160
    22  C    0.036968
    23  C    0.082440
    24  O   -0.211855
    25  C   -0.027351
    26  N   -0.435622
    27  C    0.142669
    28  C   -0.123544
    29  C   -0.083251
    30  C    0.060719
    31  C    0.003429
    32  C   -0.030302
    33  C   -0.062417
    34  N   -0.452859
    35  C    0.150468
    36  C   -0.187143
    37  C    0.023470
    38  C    0.078859
    39  C    0.065606
    40  C    0.074948
    41  O   -0.192104
    42  C   -0.055030
    43  C    0.262971
    44  O   -0.278835
    45  O   -0.362262
    46  C    0.138794
    47  C    0.205899
    48  C   -0.169333
    49  C   -0.155334
    50  C    0.003408
    51  C    0.045416
    52  C   -0.070058
    53  C    0.012028
    54  C   -0.233957
    55  C   -0.024545
    56  C    0.006445
    57  C   -0.072702
    58  C    0.007664
    59  C   -0.200843
    60  C   -0.039714
    61  C    0.021734
    62  C   -0.070792
    63  C   -0.028474
    64  C   -0.255862
    65  C   -0.008901
    66  C   -0.033023
    67  H    0.005322
    68  H    0.026522
    69  H    0.006509
    70  H    0.071833
    71  H    0.045036
    72  H    0.049448
    73  H    0.052854
    74  H    0.054550
    75  H    0.035310
    76  H    0.047426
    77  H    0.047042
    78  H    0.059337
    79  H    0.034081
    80  H    0.050634
    81  H    0.046800
    82  H    0.071029
    83  H    0.054010
    84  H    0.047168
    85  H    0.042433
    86  H    0.030361
    87  H    0.056595
    88  H    0.043709
    89  H    0.046825
    90  H    0.032221
    91  H    0.039040
    92  H    0.045502
    93  H    0.051312
    94  H    0.044465
    95  H    0.045428
    96  H    0.063709
    97  H    0.046344
    98  H    0.082889
    99  H    0.048340
   100  H    0.052752
   101  H    0.055499
   102  H    0.060542
   103  H    0.040197
   104  H    0.027814
   105  H    0.049576
   106  H    0.046535
   107  H    0.048996
   108  H    0.031089
   109  H    0.034402
   110  H    0.056563
   111  H    0.046593
   112  H    0.029517
   113  H    0.020113
   114  H    0.034440
   115  H    0.020224
   116  H    0.043930
   117  H    0.039198
   118  H    0.037033
   119  H    0.050955
   120  H    0.021259
   121  H    0.027321
   122  H    0.023326
   123  H    0.017579
   124  H    0.041857
   125  H    0.031100
   126  H    0.040236
   127  H    0.030494
   128  H    0.030465
   129  H    0.026956
   130  H    0.026362
   131  H    0.035176
   132  H    0.037834
   133  H    0.022139
   134  H    0.036673
   135  H    0.038880
   136  H    0.029533
   137  H    0.027485
   138  H    0.045986
   139  H    0.019455
   140  H    0.027280
 Sum of Mulliken charges =  -0.00000

 Dipole moment (field-independent basis, Debye):
    X=              4.7286    Y=              3.2134    Z=             -3.3283  Tot=              6.6153
 Quadrupole moment (field-independent basis, Debye-Ang):
   XX=           -384.1111   YY=           -424.5261   ZZ=           -401.0468
   XY=            -31.4330   XZ=              4.0949   YZ=              9.7402

 Normal termination of Gaussian 16 at Thu Apr 28 05:01:00 2022.
