 Gaussian 16, Revision A.03,
 Gaussian 16:  ES64L-G16RevA.03 25-Dec-2016

 --------------------------------
 #p wB97XD/Def2SVP td=(nstates=5)
 --------------------------------

 -----------------------------------------------------
 step_1451_chromophore_24 TDDFT with wB97XD functional
 -----------------------------------------------------
 Symbolic Z-matrix:
 Charge =  0 Multiplicity = 1

                         Standard orientation:
 ---------------------------------------------------------------------
 Center     Atomic      Atomic             Coordinates (Angstroms)
 Number     Number       Type             X           Y           Z
 ---------------------------------------------------------------------
      1         12           0       -5.285435    1.129593   -0.107424
      2          6           0       -4.515434   -2.207293    0.192701
      3          6           0       -1.806647    1.711818   -0.241466
      4          6           0       -5.825424    4.484016   -0.070542
      5          6           0       -8.519346    0.511604    0.665082
      6          7           0       -3.414875   -0.070887   -0.023596
      7          6           0       -3.405275   -1.449153    0.010563
      8          6           0       -1.993384   -1.998034   -0.175939
      9          6           0       -1.148265   -0.692566    0.138409
     10          6           0       -2.192380    0.404447    0.031691
     11          6           0       -0.501849   -0.594940    1.621477
     12          6           0       -1.720625   -2.434272   -1.624076
     13          6           0       -0.411127   -3.181657   -1.985058
     14          6           0        0.084549   -4.128076   -0.956075
     15          8           0       -0.387618   -5.174557   -0.640196
     16          8           0        1.259115   -3.604450   -0.474062
     17          7           0       -4.067594    2.888486   -0.410450
     18          6           0       -2.663986    2.833056   -0.566452
     19          6           0       -2.307172    4.116022   -1.017980
     20          6           0       -3.439459    5.001819   -0.967604
     21          6           0       -4.527985    4.150858   -0.515669
     22          6           0       -0.835701    4.389407   -1.407292
     23          6           0       -3.520413    6.542790   -1.203251
     24          8           0       -4.548167    7.127675   -1.011477
     25          6           0       -2.328796    7.209563   -1.697895
     26          7           0       -6.829004    2.286018    0.452278
     27          6           0       -6.826691    3.625403    0.409915
     28          6           0       -8.089432    4.182926    1.039403
     29          6           0       -9.049735    3.020523    0.820269
     30          6           0       -8.112547    1.863165    0.685742
     31          6           0       -7.938955    4.692735    2.587158
     32          6           0      -10.165264    3.246645   -0.318276
     33          6           0       -9.923754    2.888952   -1.782163
     34          7           0       -6.370488   -0.520856    0.347876
     35          6           0       -7.695943   -0.624195    0.515958
     36          6           0       -8.051826   -1.997020    0.729948
     37          6           0       -6.841560   -2.680246    0.682829
     38          6           0       -5.847852   -1.719876    0.425095
     39          6           0       -9.488283   -2.591760    0.858424
     40          6           0       -6.174580   -3.909942    0.786523
     41          8           0       -6.643607   -4.985697    1.035573
     42          6           0       -4.711848   -3.701361    0.341587
     43          6           0       -3.949738   -4.411962    1.314998
     44          8           0       -3.692620   -4.067421    2.470589
     45          8           0       -3.575382   -5.642372    0.816977
     46          6           0       -2.798777   -6.475113    1.723683
     47          6           0        2.038189   -4.553176    0.383417
     48          6           0        3.510851   -4.199681    0.275443
     49          6           0        4.350250   -4.301888   -0.770673
     50          6           0        4.134669   -5.195521   -2.043593
     51          6           0        5.683574   -3.717402   -0.690612
     52          6           0        5.929868   -2.673936   -1.822020
     53          6           0        6.523691   -1.335794   -1.259662
     54          6           0        7.929189   -1.009146   -1.759128
     55          6           0        7.937909   -0.986147   -3.347449
     56          6           0        8.439669    0.441308   -1.388073
     57          6           0        9.408754    0.338304   -0.167081
     58          6           0       10.828504   -0.137705   -0.554523
     59          6           0       11.916096    0.948722   -0.326322
     60          6           0       12.944548    1.158808   -1.569293
     61          6           0       12.773065    0.793836    0.918758
     62          6           0       12.840066    2.017649    1.873723
     63          6           0       14.235035    2.051641    2.614144
     64          6           0       15.147477    3.185320    1.979017
     65          6           0       16.595229    2.707946    1.690737
     66          6           0       15.246254    4.435508    2.898154
     67          1           0       -0.757631    1.858745   -0.507892
     68          1           0       -5.869422    5.574975   -0.059228
     69          1           0       -9.546626    0.425362    1.026133
     70          1           0       -1.947071   -2.852043    0.500316
     71          1           0       -0.290257   -0.529829   -0.514012
     72          1           0       -0.706427   -1.553989    2.097896
     73          1           0       -1.064859    0.126430    2.213928
     74          1           0        0.563317   -0.369629    1.570737
     75          1           0       -1.586748   -1.542931   -2.237440
     76          1           0       -2.544442   -2.997265   -2.062576
     77          1           0        0.281318   -2.405469   -2.310385
     78          1           0       -0.541943   -3.806645   -2.867554
     79          1           0       -0.189513    3.514540   -1.331982
     80          1           0       -0.359624    5.197024   -0.850915
     81          1           0       -0.755650    4.709784   -2.446042
     82          1           0       -2.014833    7.007895   -2.721974
     83          1           0       -1.455897    7.034393   -1.069451
     84          1           0       -2.498261    8.286378   -1.677647
     85          1           0       -8.354538    5.076287    0.475088
     86          1           0       -9.636866    2.843504    1.720977
     87          1           0       -7.133333    4.242590    3.168312
     88          1           0       -8.918677    4.553856    3.043412
     89          1           0       -7.720419    5.760453    2.611652
     90          1           0      -10.221729    4.325774   -0.460590
     91          1           0      -11.122706    2.971789    0.124985
     92          1           0      -10.671453    2.206376   -2.184304
     93          1           0       -8.958243    2.389730   -1.870482
     94          1           0       -9.887638    3.784213   -2.402840
     95          1           0      -10.057457   -2.189608    1.696483
     96          1           0       -9.546814   -3.678846    0.919379
     97          1           0      -10.011443   -2.257262   -0.037478
     98          1           0       -4.518804   -4.116344   -0.647088
     99          1           0       -2.873800   -7.486031    1.322733
    100          1           0       -3.273873   -6.538036    2.701462
    101          1           0       -1.759590   -6.164412    1.833256
    102          1           0        1.914679   -5.606544    0.130778
    103          1           0        1.620687   -4.442571    1.383999
    104          1           0        3.836095   -3.892857    1.269429
    105          1           0        3.118912   -5.590480   -2.022007
    106          1           0        4.816404   -6.034705   -1.902951
    107          1           0        4.453751   -4.829615   -3.018810
    108          1           0        6.339995   -4.564945   -0.887022
    109          1           0        5.749786   -3.340283    0.329585
    110          1           0        5.068311   -2.459836   -2.454311
    111          1           0        6.687339   -3.231508   -2.372566
    112          1           0        6.736021   -1.124552   -0.211529
    113          1           0        5.783425   -0.618433   -1.614634
    114          1           0        8.550110   -1.759185   -1.270968
    115          1           0        7.155310   -1.599119   -3.796400
    116          1           0        8.872876   -1.333015   -3.787816
    117          1           0        7.645478    0.033445   -3.599462
    118          1           0        7.664649    1.109650   -1.014486
    119          1           0        9.197674    0.752508   -2.106892
    120          1           0        9.073628   -0.326081    0.628268
    121          1           0        9.408221    1.311096    0.325069
    122          1           0       10.892852   -0.623053   -1.528357
    123          1           0       11.120581   -0.989959    0.059760
    124          1           0       11.504882    1.954424   -0.232818
    125          1           0       12.632893    0.492904   -2.373232
    126          1           0       14.013810    1.078915   -1.373903
    127          1           0       12.830398    2.190173   -1.902346
    128          1           0       13.825262    0.703748    0.647133
    129          1           0       12.529496   -0.056463    1.555704
    130          1           0       12.198002    1.829713    2.733611
    131          1           0       12.630028    3.029766    1.526670
    132          1           0       14.850224    1.163326    2.763260
    133          1           0       13.939033    2.501221    3.561787
    134          1           0       14.680217    3.541655    1.060793
    135          1           0       17.393673    3.358571    2.049106
    136          1           0       16.680560    2.683707    0.603853
    137          1           0       16.691671    1.685063    2.054047
    138          1           0       15.104007    4.257898    3.964096
    139          1           0       14.506517    5.159088    2.555432
    140          1           0       16.135378    5.043147    2.728267
 ---------------------------------------------------------------------

 SCF Done:  E(RwB97XD) =  -3007.82377729     A.U. after   19 cycles

 Excitation energies and oscillator strengths:

 Excited State   1:      Singlet-A      1.6473 eV  752.64 nm  f=0.3747  <S**2>=0.000
     245 -> 248        0.16483
     246 -> 247        0.68831
     245 <- 248        0.10989
 This state for optimization and/or second-order correction.
 Total Energy, E(TD-HF/TD-DFT) =  -3007.76323896
 Copying the excited state density for this state as the 1-particle RhoCI density.

 Excited State   2:      Singlet-A      2.1360 eV  580.46 nm  f=0.1443  <S**2>=0.000
     245 -> 247        0.64992
     246 -> 248       -0.24584

 Excited State   3:      Singlet-A      3.0740 eV  403.34 nm  f=0.0065  <S**2>=0.000
     244 -> 247        0.66370
     246 -> 248        0.14507

 Excited State   4:      Singlet-A      3.6236 eV  342.15 nm  f=0.0601  <S**2>=0.000
     240 -> 247        0.13585
     241 -> 247        0.25560
     242 -> 247        0.51338
     244 -> 247       -0.16793
     246 -> 248        0.29520

 Excited State   5:      Singlet-A      3.6510 eV  339.59 nm  f=0.0027  <S**2>=0.000
     241 -> 247        0.51240
     241 -> 249        0.27971
     241 -> 250        0.20831
     242 -> 247       -0.25273
     242 -> 249       -0.12063

 The electronic state is 1-A.
 Alpha  occ. eigenvalues --  -46.93844 -19.29676 -19.28448 -19.25067 -19.24828
 Alpha  occ. eigenvalues --  -19.23199 -19.22784 -14.46539 -14.46194 -14.43212
 Alpha  occ. eigenvalues --  -14.43145 -10.42547 -10.41522 -10.39656 -10.37466
 Alpha  occ. eigenvalues --  -10.35593 -10.35011 -10.34833 -10.34353 -10.34335
 Alpha  occ. eigenvalues --  -10.34172 -10.33851 -10.33269 -10.32980 -10.32640
 Alpha  occ. eigenvalues --  -10.32384 -10.32355 -10.31764 -10.31697 -10.31469
 Alpha  occ. eigenvalues --  -10.31462 -10.31457 -10.31422 -10.31394 -10.31371
 Alpha  occ. eigenvalues --  -10.31291 -10.31279 -10.31023 -10.30997 -10.30642
 Alpha  occ. eigenvalues --  -10.30574 -10.30412 -10.30343 -10.30308 -10.30209
 Alpha  occ. eigenvalues --  -10.30136 -10.29998 -10.29951 -10.29834 -10.29745
 Alpha  occ. eigenvalues --  -10.29641 -10.29581 -10.29494 -10.29449 -10.29348
 Alpha  occ. eigenvalues --  -10.29129 -10.29007 -10.28996 -10.28898 -10.28816
 Alpha  occ. eigenvalues --  -10.28494 -10.28474 -10.28467 -10.27992 -10.27895
 Alpha  occ. eigenvalues --  -10.27585  -3.20031  -1.93623  -1.93158  -1.93015
 Alpha  occ. eigenvalues --   -1.18788  -1.16790  -1.14549  -1.12451  -1.10681
 Alpha  occ. eigenvalues --   -1.07882  -1.07475  -1.06607  -1.06262  -1.04320
 Alpha  occ. eigenvalues --   -0.95155  -0.93082  -0.91737  -0.91468  -0.90616
 Alpha  occ. eigenvalues --   -0.90465  -0.89831  -0.89150  -0.88846  -0.88360
 Alpha  occ. eigenvalues --   -0.87596  -0.87332  -0.86248  -0.85741  -0.85188
 Alpha  occ. eigenvalues --   -0.84384  -0.84290  -0.83229  -0.82574  -0.82446
 Alpha  occ. eigenvalues --   -0.81254  -0.80075  -0.79846  -0.79085  -0.78154
 Alpha  occ. eigenvalues --   -0.77450  -0.77142  -0.76915  -0.76617  -0.75947
 Alpha  occ. eigenvalues --   -0.75621  -0.74977  -0.73515  -0.72914  -0.71487
 Alpha  occ. eigenvalues --   -0.70983  -0.70466  -0.69153  -0.68861  -0.68015
 Alpha  occ. eigenvalues --   -0.67406  -0.66820  -0.66763  -0.66243  -0.65848
 Alpha  occ. eigenvalues --   -0.64894  -0.64711  -0.64272  -0.62955  -0.62514
 Alpha  occ. eigenvalues --   -0.61783  -0.61374  -0.61192  -0.60699  -0.59899
 Alpha  occ. eigenvalues --   -0.59820  -0.59393  -0.58237  -0.58007  -0.57804
 Alpha  occ. eigenvalues --   -0.57332  -0.56953  -0.56288  -0.56219  -0.56038
 Alpha  occ. eigenvalues --   -0.55491  -0.55207  -0.55040  -0.54972  -0.54818
 Alpha  occ. eigenvalues --   -0.54647  -0.54282  -0.54114  -0.53868  -0.53800
 Alpha  occ. eigenvalues --   -0.53550  -0.53330  -0.52922  -0.52803  -0.52595
 Alpha  occ. eigenvalues --   -0.52398  -0.52353  -0.51643  -0.51448  -0.51197
 Alpha  occ. eigenvalues --   -0.51152  -0.50937  -0.50846  -0.50674  -0.50565
 Alpha  occ. eigenvalues --   -0.50108  -0.50013  -0.49844  -0.49766  -0.49627
 Alpha  occ. eigenvalues --   -0.49272  -0.49064  -0.48859  -0.48631  -0.48451
 Alpha  occ. eigenvalues --   -0.48214  -0.48148  -0.47967  -0.47860  -0.47706
 Alpha  occ. eigenvalues --   -0.47668  -0.47582  -0.47016  -0.46918  -0.46496
 Alpha  occ. eigenvalues --   -0.46417  -0.46269  -0.46097  -0.46001  -0.45561
 Alpha  occ. eigenvalues --   -0.45435  -0.45353  -0.45271  -0.45078  -0.44896
 Alpha  occ. eigenvalues --   -0.44785  -0.44609  -0.44361  -0.44275  -0.44019
 Alpha  occ. eigenvalues --   -0.43709  -0.43481  -0.43205  -0.43083  -0.42971
 Alpha  occ. eigenvalues --   -0.42706  -0.42601  -0.42369  -0.42298  -0.42183
 Alpha  occ. eigenvalues --   -0.41674  -0.41569  -0.41223  -0.40822  -0.40496
 Alpha  occ. eigenvalues --   -0.40373  -0.39965  -0.39452  -0.38989  -0.38889
 Alpha  occ. eigenvalues --   -0.38841  -0.38762  -0.38557  -0.38194  -0.37892
 Alpha  occ. eigenvalues --   -0.37596  -0.37156  -0.36714  -0.36576  -0.36181
 Alpha  occ. eigenvalues --   -0.36176  -0.35453  -0.34747  -0.34005  -0.33379
 Alpha  occ. eigenvalues --   -0.32242  -0.32082  -0.31905  -0.31522  -0.25969
 Alpha  occ. eigenvalues --   -0.23054
 Alpha virt. eigenvalues --   -0.07275   0.00865   0.03041   0.04826   0.05888
 Alpha virt. eigenvalues --    0.06664   0.07721   0.08212   0.08819   0.09579
 Alpha virt. eigenvalues --    0.10561   0.11501   0.11970   0.12255   0.12343

 Mulliken charges:
               1
     1  Mg   0.981012
     2  C    0.025567
     3  C   -0.067581
     4  C   -0.066985
     5  C   -0.084857
     6  N   -0.321914
     7  C   -0.034738
     8  C   -0.036142
     9  C   -0.165909
    10  C    0.094570
    11  C    0.025745
    12  C    0.011606
    13  C    0.035628
    14  C    0.185450
    15  O   -0.230649
    16  O   -0.377279
    17  N   -0.456805
    18  C    0.140808
    19  C   -0.147382
    20  C   -0.090591
    21  C    0.077884
    22  C    0.048132
    23  C    0.082949
    24  O   -0.203996
    25  C   -0.021216
    26  N   -0.400919
    27  C    0.132211
    28  C   -0.098222
    29  C   -0.055911
    30  C    0.041673
    31  C    0.013086
    32  C   -0.018344
    33  C   -0.043188
    34  N   -0.409922
    35  C    0.139885
    36  C   -0.190596
    37  C    0.031590
    38  C    0.049837
    39  C    0.075468
    40  C    0.057084
    41  O   -0.184794
    42  C   -0.015891
    43  C    0.239514
    44  O   -0.272537
    45  O   -0.360765
    46  C    0.153905
    47  C    0.219410
    48  C   -0.173924
    49  C   -0.147657
    50  C    0.016934
    51  C    0.066301
    52  C   -0.055521
    53  C    0.023818
    54  C   -0.205506
    55  C   -0.009471
    56  C    0.026679
    57  C   -0.055966
    58  C    0.021558
    59  C   -0.173214
    60  C   -0.024654
    61  C    0.038932
    62  C   -0.053937
    63  C   -0.010835
    64  C   -0.230563
    65  C    0.004971
    66  C   -0.019715
    67  H   -0.001977
    68  H    0.022030
    69  H    0.002140
    70  H    0.053684
    71  H    0.035584
    72  H    0.044733
    73  H    0.046549
    74  H    0.050464
    75  H    0.025471
    76  H    0.039952
    77  H    0.041898
    78  H    0.054673
    79  H    0.031784
    80  H    0.046364
    81  H    0.042448
    82  H    0.068499
    83  H    0.047938
    84  H    0.047069
    85  H    0.032686
    86  H    0.019837
    87  H    0.051877
    88  H    0.038096
    89  H    0.041204
    90  H    0.021790
    91  H    0.033531
    92  H    0.040367
    93  H    0.039530
    94  H    0.039002
    95  H    0.039058
    96  H    0.060537
    97  H    0.039099
    98  H    0.076256
    99  H    0.044707
   100  H    0.048181
   101  H    0.051864
   102  H    0.055218
   103  H    0.037288
   104  H    0.024568
   105  H    0.043205
   106  H    0.040004
   107  H    0.044792
   108  H    0.022205
   109  H    0.026118
   110  H    0.049222
   111  H    0.036472
   112  H    0.018953
   113  H    0.011387
   114  H    0.021394
   115  H    0.012846
   116  H    0.038799
   117  H    0.031336
   118  H    0.030931
   119  H    0.036959
   120  H    0.012351
   121  H    0.018861
   122  H    0.012778
   123  H    0.009027
   124  H    0.026570
   125  H    0.024474
   126  H    0.034355
   127  H    0.024505
   128  H    0.014270
   129  H    0.019474
   130  H    0.018079
   131  H    0.026457
   132  H    0.030231
   133  H    0.011318
   134  H    0.023933
   135  H    0.033264
   136  H    0.023343
   137  H    0.020392
   138  H    0.040056
   139  H    0.012843
   140  H    0.020686
 Sum of Mulliken charges =  -0.00000

 Dipole moment (field-independent basis, Debye):
    X=              5.2515    Y=              3.8357    Z=             -3.5333  Tot=              7.4010
 Quadrupole moment (field-independent basis, Debye-Ang):
   XX=           -389.6385   YY=           -421.8003   ZZ=           -400.5064
   XY=            -33.3642   XZ=              4.9850   YZ=              9.1208

 Normal termination of Gaussian 16 at Thu Apr 28 05:27:40 2022.
