 Gaussian 16, Revision A.03,
 Gaussian 16:  ES64L-G16RevA.03 25-Dec-2016

 --------------------
 #p ZINDO=(nstates=5)
 --------------------

 ------------------------------
 step_1451_chromophore_24 ZINDO
 ------------------------------
 Symbolic Z-matrix:
 Charge =  0 Multiplicity = 1

                         Standard orientation:
 ---------------------------------------------------------------------
 Center     Atomic      Atomic             Coordinates (Angstroms)
 Number     Number       Type             X           Y           Z
 ---------------------------------------------------------------------
      1         12           0       -5.285435    1.129593   -0.107424
      2          6           0       -4.515434   -2.207293    0.192701
      3          6           0       -1.806647    1.711818   -0.241466
      4          6           0       -5.825424    4.484016   -0.070542
      5          6           0       -8.519346    0.511604    0.665082
      6          7           0       -3.414875   -0.070887   -0.023596
      7          6           0       -3.405275   -1.449153    0.010563
      8          6           0       -1.993384   -1.998034   -0.175939
      9          6           0       -1.148265   -0.692566    0.138409
     10          6           0       -2.192380    0.404447    0.031691
     11          6           0       -0.501849   -0.594940    1.621477
     12          6           0       -1.720625   -2.434272   -1.624076
     13          6           0       -0.411127   -3.181657   -1.985058
     14          6           0        0.084549   -4.128076   -0.956075
     15          8           0       -0.387618   -5.174557   -0.640196
     16          8           0        1.259115   -3.604450   -0.474062
     17          7           0       -4.067594    2.888486   -0.410450
     18          6           0       -2.663986    2.833056   -0.566452
     19          6           0       -2.307172    4.116022   -1.017980
     20          6           0       -3.439459    5.001819   -0.967604
     21          6           0       -4.527985    4.150858   -0.515669
     22          6           0       -0.835701    4.389407   -1.407292
     23          6           0       -3.520413    6.542790   -1.203251
     24          8           0       -4.548167    7.127675   -1.011477
     25          6           0       -2.328796    7.209563   -1.697895
     26          7           0       -6.829004    2.286018    0.452278
     27          6           0       -6.826691    3.625403    0.409915
     28          6           0       -8.089432    4.182926    1.039403
     29          6           0       -9.049735    3.020523    0.820269
     30          6           0       -8.112547    1.863165    0.685742
     31          6           0       -7.938955    4.692735    2.587158
     32          6           0      -10.165264    3.246645   -0.318276
     33          6           0       -9.923754    2.888952   -1.782163
     34          7           0       -6.370488   -0.520856    0.347876
     35          6           0       -7.695943   -0.624195    0.515958
     36          6           0       -8.051826   -1.997020    0.729948
     37          6           0       -6.841560   -2.680246    0.682829
     38          6           0       -5.847852   -1.719876    0.425095
     39          6           0       -9.488283   -2.591760    0.858424
     40          6           0       -6.174580   -3.909942    0.786523
     41          8           0       -6.643607   -4.985697    1.035573
     42          6           0       -4.711848   -3.701361    0.341587
     43          6           0       -3.949738   -4.411962    1.314998
     44          8           0       -3.692620   -4.067421    2.470589
     45          8           0       -3.575382   -5.642372    0.816977
     46          6           0       -2.798777   -6.475113    1.723683
     47          6           0        2.038189   -4.553176    0.383417
     48          6           0        3.510851   -4.199681    0.275443
     49          6           0        4.350250   -4.301888   -0.770673
     50          6           0        4.134669   -5.195521   -2.043593
     51          6           0        5.683574   -3.717402   -0.690612
     52          6           0        5.929868   -2.673936   -1.822020
     53          6           0        6.523691   -1.335794   -1.259662
     54          6           0        7.929189   -1.009146   -1.759128
     55          6           0        7.937909   -0.986147   -3.347449
     56          6           0        8.439669    0.441308   -1.388073
     57          6           0        9.408754    0.338304   -0.167081
     58          6           0       10.828504   -0.137705   -0.554523
     59          6           0       11.916096    0.948722   -0.326322
     60          6           0       12.944548    1.158808   -1.569293
     61          6           0       12.773065    0.793836    0.918758
     62          6           0       12.840066    2.017649    1.873723
     63          6           0       14.235035    2.051641    2.614144
     64          6           0       15.147477    3.185320    1.979017
     65          6           0       16.595229    2.707946    1.690737
     66          6           0       15.246254    4.435508    2.898154
     67          1           0       -0.757631    1.858745   -0.507892
     68          1           0       -5.869422    5.574975   -0.059228
     69          1           0       -9.546626    0.425362    1.026133
     70          1           0       -1.947071   -2.852043    0.500316
     71          1           0       -0.290257   -0.529829   -0.514012
     72          1           0       -0.706427   -1.553989    2.097896
     73          1           0       -1.064859    0.126430    2.213928
     74          1           0        0.563317   -0.369629    1.570737
     75          1           0       -1.586748   -1.542931   -2.237440
     76          1           0       -2.544442   -2.997265   -2.062576
     77          1           0        0.281318   -2.405469   -2.310385
     78          1           0       -0.541943   -3.806645   -2.867554
     79          1           0       -0.189513    3.514540   -1.331982
     80          1           0       -0.359624    5.197024   -0.850915
     81          1           0       -0.755650    4.709784   -2.446042
     82          1           0       -2.014833    7.007895   -2.721974
     83          1           0       -1.455897    7.034393   -1.069451
     84          1           0       -2.498261    8.286378   -1.677647
     85          1           0       -8.354538    5.076287    0.475088
     86          1           0       -9.636866    2.843504    1.720977
     87          1           0       -7.133333    4.242590    3.168312
     88          1           0       -8.918677    4.553856    3.043412
     89          1           0       -7.720419    5.760453    2.611652
     90          1           0      -10.221729    4.325774   -0.460590
     91          1           0      -11.122706    2.971789    0.124985
     92          1           0      -10.671453    2.206376   -2.184304
     93          1           0       -8.958243    2.389730   -1.870482
     94          1           0       -9.887638    3.784213   -2.402840
     95          1           0      -10.057457   -2.189608    1.696483
     96          1           0       -9.546814   -3.678846    0.919379
     97          1           0      -10.011443   -2.257262   -0.037478
     98          1           0       -4.518804   -4.116344   -0.647088
     99          1           0       -2.873800   -7.486031    1.322733
    100          1           0       -3.273873   -6.538036    2.701462
    101          1           0       -1.759590   -6.164412    1.833256
    102          1           0        1.914679   -5.606544    0.130778
    103          1           0        1.620687   -4.442571    1.383999
    104          1           0        3.836095   -3.892857    1.269429
    105          1           0        3.118912   -5.590480   -2.022007
    106          1           0        4.816404   -6.034705   -1.902951
    107          1           0        4.453751   -4.829615   -3.018810
    108          1           0        6.339995   -4.564945   -0.887022
    109          1           0        5.749786   -3.340283    0.329585
    110          1           0        5.068311   -2.459836   -2.454311
    111          1           0        6.687339   -3.231508   -2.372566
    112          1           0        6.736021   -1.124552   -0.211529
    113          1           0        5.783425   -0.618433   -1.614634
    114          1           0        8.550110   -1.759185   -1.270968
    115          1           0        7.155310   -1.599119   -3.796400
    116          1           0        8.872876   -1.333015   -3.787816
    117          1           0        7.645478    0.033445   -3.599462
    118          1           0        7.664649    1.109650   -1.014486
    119          1           0        9.197674    0.752508   -2.106892
    120          1           0        9.073628   -0.326081    0.628268
    121          1           0        9.408221    1.311096    0.325069
    122          1           0       10.892852   -0.623053   -1.528357
    123          1           0       11.120581   -0.989959    0.059760
    124          1           0       11.504882    1.954424   -0.232818
    125          1           0       12.632893    0.492904   -2.373232
    126          1           0       14.013810    1.078915   -1.373903
    127          1           0       12.830398    2.190173   -1.902346
    128          1           0       13.825262    0.703748    0.647133
    129          1           0       12.529496   -0.056463    1.555704
    130          1           0       12.198002    1.829713    2.733611
    131          1           0       12.630028    3.029766    1.526670
    132          1           0       14.850224    1.163326    2.763260
    133          1           0       13.939033    2.501221    3.561787
    134          1           0       14.680217    3.541655    1.060793
    135          1           0       17.393673    3.358571    2.049106
    136          1           0       16.680560    2.683707    0.603853
    137          1           0       16.691671    1.685063    2.054047
    138          1           0       15.104007    4.257898    3.964096
    139          1           0       14.506517    5.159088    2.555432
    140          1           0       16.135378    5.043147    2.728267
 ---------------------------------------------------------------------

 SCF Done:  E(RZINDO/S) =  -474.537355046     A.U. after   19 cycles

 Excitation energies and oscillator strengths:

 Excited State   1:      Singlet-A      1.2475 eV  993.87 nm  f=0.5854  <S**2>=0.000
     175 ->178        -0.16852
     176 ->177         0.67040
 This state for optimization and/or second-order correction.
 Total Energy, E(CIS/TDA) =  -474.491510716
 Copying the excited state density for this state as the 1-particle RhoCI density.

 Excited State   2:      Singlet-A      1.9472 eV  636.73 nm  f=0.0944  <S**2>=0.000
     175 ->177         0.57669
     176 ->178         0.37564

 Excited State   3:      Singlet-A      2.9581 eV  419.14 nm  f=0.0017  <S**2>=0.000
     170 ->177         0.28316
     170 ->178        -0.12287
     170 ->179         0.32244
     170 ->180         0.35741
     170 ->186         0.16633
     170 ->188         0.18573
     170 ->204        -0.12101
     173 ->177         0.10562

 Excited State   4:      Singlet-A      2.9839 eV  415.52 nm  f=0.2266  <S**2>=0.000
     171 ->177         0.47537
     172 ->177         0.24884
     173 ->177         0.16789
     175 ->177         0.15867
     176 ->178        -0.33952

 Excited State   5:      Singlet-A      3.0608 eV  405.07 nm  f=0.0015  <S**2>=0.000
     167 ->177         0.17174
     167 ->179        -0.23027
     167 ->180         0.17940
     167 ->186        -0.13383
     168 ->177         0.28267
     168 ->178        -0.10192
     168 ->179        -0.30726
     168 ->180         0.23438
     168 ->186        -0.17424

 The electronic state is 1-A.
 Alpha  occ. eigenvalues --   -1.87946  -1.83492  -1.81773  -1.74348  -1.73534
 Alpha  occ. eigenvalues --   -1.72103  -1.65221  -1.61587  -1.61036  -1.60130
 Alpha  occ. eigenvalues --   -1.56019  -1.51285  -1.48739  -1.48308  -1.45644
 Alpha  occ. eigenvalues --   -1.44300  -1.42199  -1.39640  -1.39030  -1.37886
 Alpha  occ. eigenvalues --   -1.35273  -1.32567  -1.31184  -1.30964  -1.29297
 Alpha  occ. eigenvalues --   -1.26668  -1.25210  -1.23727  -1.21258  -1.19385
 Alpha  occ. eigenvalues --   -1.17782  -1.16054  -1.15271  -1.14226  -1.14003
 Alpha  occ. eigenvalues --   -1.13737  -1.11139  -1.10466  -1.05947  -1.04981
 Alpha  occ. eigenvalues --   -1.03456  -1.01941  -0.99580  -0.97883  -0.97457
 Alpha  occ. eigenvalues --   -0.95790  -0.94469  -0.94053  -0.92979  -0.92111
 Alpha  occ. eigenvalues --   -0.91074  -0.89621  -0.88482  -0.87925  -0.86109
 Alpha  occ. eigenvalues --   -0.85791  -0.84258  -0.82591  -0.81130  -0.80379
 Alpha  occ. eigenvalues --   -0.79750  -0.78263  -0.77460  -0.76527  -0.76301
 Alpha  occ. eigenvalues --   -0.76198  -0.75063  -0.74659  -0.73959  -0.73771
 Alpha  occ. eigenvalues --   -0.73646  -0.72791  -0.72548  -0.71993  -0.71538
 Alpha  occ. eigenvalues --   -0.70506  -0.70238  -0.69501  -0.68837  -0.68086
 Alpha  occ. eigenvalues --   -0.67376  -0.67022  -0.66607  -0.66271  -0.65320
 Alpha  occ. eigenvalues --   -0.64679  -0.64195  -0.64019  -0.63548  -0.62995
 Alpha  occ. eigenvalues --   -0.62551  -0.62307  -0.62154  -0.62004  -0.61368
 Alpha  occ. eigenvalues --   -0.61233  -0.61118  -0.60779  -0.60623  -0.60472
 Alpha  occ. eigenvalues --   -0.59908  -0.59655  -0.59523  -0.59131  -0.58443
 Alpha  occ. eigenvalues --   -0.57929  -0.57468  -0.57200  -0.57002  -0.56469
 Alpha  occ. eigenvalues --   -0.56105  -0.55665  -0.55437  -0.54748  -0.54539
 Alpha  occ. eigenvalues --   -0.54131  -0.53944  -0.53297  -0.53213  -0.52958
 Alpha  occ. eigenvalues --   -0.52769  -0.52518  -0.52040  -0.51861  -0.51384
 Alpha  occ. eigenvalues --   -0.51069  -0.50647  -0.50383  -0.50164  -0.49954
 Alpha  occ. eigenvalues --   -0.49782  -0.49148  -0.49041  -0.48967  -0.48649
 Alpha  occ. eigenvalues --   -0.48330  -0.48226  -0.47997  -0.47643  -0.47564
 Alpha  occ. eigenvalues --   -0.47124  -0.46864  -0.46683  -0.46421  -0.46400
 Alpha  occ. eigenvalues --   -0.46151  -0.45843  -0.45628  -0.45354  -0.45185
 Alpha  occ. eigenvalues --   -0.44945  -0.44768  -0.44679  -0.44473  -0.44202
 Alpha  occ. eigenvalues --   -0.43427  -0.42890  -0.42722  -0.42487  -0.42315
 Alpha  occ. eigenvalues --   -0.41860  -0.41418  -0.40141  -0.39105  -0.38652
 Alpha  occ. eigenvalues --   -0.37167  -0.36733  -0.35882  -0.34480  -0.33659
 Alpha  occ. eigenvalues --   -0.33321  -0.32484  -0.32120  -0.32078  -0.26764
 Alpha  occ. eigenvalues --   -0.21888
 Alpha virt. eigenvalues --   -0.08726  -0.01430  -0.00130   0.01629   0.02489
 Alpha virt. eigenvalues --    0.02595   0.03230   0.03974   0.04397   0.04725
 Alpha virt. eigenvalues --    0.06468   0.06809   0.07728   0.07901   0.08232

 Mulliken charges:
               1
     1  Mg   0.415267
     2  C   -0.036008
     3  C   -0.098709
     4  C   -0.081853
     5  C   -0.069861
     6  N   -0.279592
     7  C    0.098200
     8  C    0.008931
     9  C   -0.004114
    10  C    0.186015
    11  C   -0.057543
    12  C   -0.016345
    13  C    0.001659
    14  C    0.481466
    15  O   -0.508075
    16  O   -0.282554
    17  N   -0.353787
    18  C    0.119353
    19  C    0.022610
    20  C   -0.050221
    21  C    0.160368
    22  C   -0.051343
    23  C    0.345575
    24  O   -0.499513
    25  C   -0.027898
    26  N   -0.262352
    27  C    0.175750
    28  C    0.002509
    29  C    0.010623
    30  C    0.095088
    31  C   -0.052680
    32  C   -0.036429
    33  C   -0.047190
    34  N   -0.293405
    35  C    0.080862
    36  C    0.009660
    37  C   -0.057229
    38  C    0.093740
    39  C   -0.042291
    40  C    0.348549
    41  O   -0.521705
    42  C    0.065126
    43  C    0.501139
    44  O   -0.547164
    45  O   -0.267266
    46  C    0.077774
    47  C    0.096523
    48  C   -0.099940
    49  C    0.006707
    50  C   -0.048620
    51  C   -0.023628
    52  C   -0.028044
    53  C   -0.041182
    54  C   -0.018780
    55  C   -0.065499
    56  C   -0.049323
    57  C   -0.043693
    58  C   -0.029422
    59  C   -0.013467
    60  C   -0.071255
    61  C   -0.029606
    62  C   -0.042647
    63  C   -0.051594
    64  C   -0.019386
    65  C   -0.061674
    66  C   -0.061909
    67  H    0.028699
    68  H    0.050616
    69  H    0.025328
    70  H    0.051468
    71  H    0.029768
    72  H    0.028637
    73  H    0.028422
    74  H    0.028758
    75  H    0.014637
    76  H    0.025450
    77  H    0.030680
    78  H    0.037255
    79  H    0.025350
    80  H    0.028113
    81  H    0.023046
    82  H    0.043572
    83  H    0.034407
    84  H    0.027833
    85  H    0.025706
    86  H    0.021158
    87  H    0.032810
    88  H    0.023637
    89  H    0.019946
    90  H    0.010992
    91  H    0.026852
    92  H    0.020861
    93  H    0.021168
    94  H    0.021527
    95  H    0.026407
    96  H    0.035698
    97  H    0.020754
    98  H    0.053612
    99  H    0.026249
   100  H    0.043790
   101  H    0.047317
   102  H    0.050919
   103  H    0.039084
   104  H    0.026500
   105  H    0.027001
   106  H    0.023278
   107  H    0.032603
   108  H    0.025020
   109  H    0.027055
   110  H    0.034012
   111  H    0.022326
   112  H    0.029435
   113  H    0.010718
   114  H    0.030349
   115  H    0.010283
   116  H    0.022909
   117  H    0.021038
   118  H    0.035626
   119  H    0.037680
   120  H    0.012581
   121  H    0.011875
   122  H    0.023448
   123  H    0.009819
   124  H    0.021435
   125  H    0.017917
   126  H    0.027820
   127  H    0.011761
   128  H    0.018424
   129  H    0.020632
   130  H    0.008315
   131  H    0.035768
   132  H    0.039513
   133  H    0.011605
   134  H    0.022585
   135  H    0.025877
   136  H    0.010209
   137  H    0.019952
   138  H    0.026298
   139  H    0.005030
   140  H    0.014076
 Sum of Mulliken charges =  -0.00000

 Dipole moment (field-independent basis, Debye):
    X=              8.2739    Y=              6.4860    Z=             -5.4454  Tot=             11.8396
 N-N= 4.309512703526D+03 E-N= 0.000000000000D+00  KE=-9.293701609490D+03
 Leave Link  601 at Thu Apr 28 05:39:25 2022, MaxMem=  6710886400 cpu:               1.0 elap:               0.1
 (Enter /sw/apps/gaussian-16.0/g16/l9999.exe)
 1\1\GINC-BP1-COMPUTE148\SP\RZINDO CIS\STO-3G\C55H74Mg1N4O6\OF15641\28-
 Apr-2022\0\\#p ZINDO=(nstates=5)\\step_1451_chromophore_24 ZINDO\\0,1\
 Mg,0,-0.252,43.548,25.254\C,0,1.79,43.065,27.977\C,0,-2.954,42.828,27.
 408\C,0,-2.401,43.648,22.624\C,0,2.422,43.589,23.184\N,0,-0.55,43.008,
 27.391\C,0,0.478,42.971,28.309\C,0,-0.054,42.806,29.73\C,0,-1.523,42.2
 96,29.415\C,0,-1.685,42.656,27.949\C,0,-1.773,40.7,29.546\C,0,-0.139,4
 4.143,30.483\C,0,-0.485,44.172,31.994\C,0,0.068,43.052,32.794\O,0,1.20

 Normal termination of Gaussian 16 at Thu Apr 28 05:39:26 2022.
