 Gaussian 16, Revision A.03,
 Gaussian 16:  ES64L-G16RevA.03 25-Dec-2016

 ------------------------------
 #p blyp/Def2SVP td=(nstates=5)
 ------------------------------

 --------------------------------------------------
 step_1751_chromophore_3 TDDFT with blyp functional
 --------------------------------------------------
 Symbolic Z-matrix:
 Charge =  0 Multiplicity = 1

                         Standard orientation:
 ---------------------------------------------------------------------
 Center     Atomic      Atomic             Coordinates (Angstroms)
 Number     Number       Type             X           Y           Z
 ---------------------------------------------------------------------
      1         12           0        5.345008    1.125913    0.047820
      2          6           0        4.444900   -2.226213   -0.035153
      3          6           0        2.052832    1.924863   -0.198608
      4          6           0        6.277838    4.331897   -0.076781
      5          6           0        8.715025    0.137873   -0.241132
      6          7           0        3.418640   -0.067604   -0.307628
      7          6           0        3.328151   -1.385587   -0.089588
      8          6           0        1.876890   -1.780994    0.058626
      9          6           0        1.065376   -0.542585   -0.298697
     10          6           0        2.216640    0.552878   -0.359835
     11          6           0        0.302201   -0.629989   -1.641746
     12          6           0        1.572607   -2.287434    1.480181
     13          6           0        0.950006   -3.640435    1.592314
     14          6           0       -0.124356   -3.880332    0.529531
     15          8           0       -0.011859   -4.564656   -0.444766
     16          8           0       -1.307133   -3.325063    0.911103
     17          7           0        4.288944    2.823826   -0.020081
     18          6           0        2.958822    2.990830    0.034125
     19          6           0        2.611258    4.376390    0.166189
     20          6           0        3.857433    5.109337    0.132671
     21          6           0        4.867237    4.071641   -0.073617
     22          6           0        1.239099    4.864491    0.259774
     23          6           0        4.086004    6.644158    0.389064
     24          8           0        5.170993    7.179972    0.210668
     25          6           0        2.942459    7.474931    0.780918
     26          7           0        7.201553    2.091267   -0.242604
     27          6           0        7.349836    3.426847   -0.092202
     28          6           0        8.797558    3.902840   -0.286701
     29          6           0        9.550390    2.551448   -0.078113
     30          6           0        8.421475    1.518851   -0.155721
     31          6           0        9.040212    4.535001   -1.637990
     32          6           0       10.169807    2.353259    1.378490
     33          6           0       11.598224    1.865272    1.391268
     34          7           0        6.441458   -0.655779   -0.185111
     35          6           0        7.791988   -0.934739   -0.175050
     36          6           0        8.056664   -2.304821   -0.368524
     37          6           0        6.762132   -2.893955   -0.289669
     38          6           0        5.827063   -1.824139   -0.223253
     39          6           0        9.343150   -3.025734   -0.300508
     40          6           0        6.024103   -4.131984   -0.164086
     41          8           0        6.374495   -5.320520   -0.101114
     42          6           0        4.494548   -3.748896    0.041659
     43          6           0        3.733046   -4.357296   -1.131443
     44          8           0        3.977637   -4.084415   -2.304184
     45          8           0        2.936210   -5.404147   -0.765648
     46          6           0        2.370338   -6.229838   -1.826447
     47          6           0       -2.407168   -3.554401   -0.023308
     48          6           0       -3.597203   -3.256021    0.796477
     49          6           0       -4.872678   -3.793356    0.761298
     50          6           0       -5.300173   -4.864877   -0.204852
     51          6           0       -5.881942   -3.199335    1.678236
     52          6           0       -6.937736   -2.360683    0.892372
     53          6           0       -7.273126   -1.025062    1.581790
     54          6           0       -8.600458   -1.065419    2.487981
     55          6           0       -8.513395   -0.459023    3.892777
     56          6           0       -9.547452   -0.242811    1.642575
     57          6           0      -10.115572   -0.897659    0.343160
     58          6           0      -10.213255    0.143407   -0.784638
     59          6           0      -11.694664    0.274640   -1.234957
     60          6           0      -11.979215   -0.187373   -2.595332
     61          6           0      -12.194519    1.708118   -0.873978
     62          6           0      -13.672837    1.824379   -0.276210
     63          6           0      -14.696197    2.439205   -1.213266
     64          6           0      -15.636260    3.447562   -0.526531
     65          6           0      -17.087291    3.056982   -0.505697
     66          6           0      -15.556165    4.867714   -1.078559
     67          1           0        0.987812    2.160593   -0.147183
     68          1           0        6.608278    5.371903   -0.059246
     69          1           0        9.737058   -0.149089   -0.498548
     70          1           0        1.776893   -2.609065   -0.643107
     71          1           0        0.461782   -0.258180    0.562519
     72          1           0        0.248756   -1.677955   -1.937698
     73          1           0        0.904603   -0.200476   -2.442228
     74          1           0       -0.711042   -0.236508   -1.567003
     75          1           0        0.980556   -1.597658    2.082017
     76          1           0        2.500385   -2.291252    2.051638
     77          1           0        0.474385   -3.752754    2.566300
     78          1           0        1.647485   -4.475696    1.535352
     79          1           0        1.035360    5.685442    0.947397
     80          1           0        0.449504    4.116180    0.336226
     81          1           0        1.099117    5.307349   -0.727021
     82          1           0        2.470848    6.979980    1.629164
     83          1           0        2.141832    7.728714    0.086480
     84          1           0        3.298992    8.455579    1.097861
     85          1           0        8.952278    4.760906    0.368418
     86          1           0       10.135541    2.387669   -0.982861
     87          1           0        8.532535    4.049597   -2.471148
     88          1           0       10.094576    4.441911   -1.900829
     89          1           0        8.745891    5.584146   -1.604006
     90          1           0        9.756014    1.518944    1.945039
     91          1           0        9.896784    3.232667    1.962150
     92          1           0       12.018696    1.699820    0.398846
     93          1           0       11.685866    0.902753    1.894280
     94          1           0       12.122382    2.659743    1.922091
     95          1           0        9.296553   -3.881983    0.372468
     96          1           0       10.245508   -2.505374    0.020274
     97          1           0        9.434022   -3.436788   -1.305761
     98          1           0        4.201830   -4.237368    0.971185
     99          1           0        2.033675   -5.489864   -2.552614
    100          1           0        1.544342   -6.812523   -1.417886
    101          1           0        3.168339   -6.776506   -2.328666
    102          1           0       -2.439985   -4.557118   -0.448642
    103          1           0       -2.290748   -2.886788   -0.877885
    104          1           0       -3.410344   -2.542467    1.599884
    105          1           0       -5.914280   -5.598785    0.318146
    106          1           0       -4.454534   -5.290136   -0.746387
    107          1           0       -5.913560   -4.358105   -0.949461
    108          1           0       -5.462409   -2.705523    2.554810
    109          1           0       -6.531466   -3.983785    2.065757
    110          1           0       -7.893884   -2.866734    0.758351
    111          1           0       -6.513382   -2.186676   -0.096186
    112          1           0       -7.361333   -0.274493    0.795295
    113          1           0       -6.423888   -0.688738    2.176788
    114          1           0       -8.846241   -2.123745    2.406669
    115          1           0       -8.750096   -1.248663    4.606597
    116          1           0       -9.179573    0.390060    4.048152
    117          1           0       -7.541997   -0.052886    4.174194
    118          1           0       -9.024987    0.705495    1.522417
    119          1           0      -10.480889   -0.088369    2.184187
    120          1           0      -11.000921   -1.463430    0.630478
    121          1           0       -9.345788   -1.606342    0.038339
    122          1           0       -9.675203   -0.248398   -1.648943
    123          1           0       -9.817785    1.147623   -0.631946
    124          1           0      -12.366984   -0.416469   -0.726607
    125          1           0      -11.375538    0.374996   -3.307820
    126          1           0      -13.022691   -0.144286   -2.908547
    127          1           0      -11.639890   -1.200384   -2.812706
    128          1           0      -12.107888    2.403391   -1.709858
    129          1           0      -11.427889    2.205321   -0.278961
    130          1           0      -13.555620    2.268266    0.711900
    131          1           0      -13.951274    0.775364   -0.176171
    132          1           0      -15.184997    1.609568   -1.722269
    133          1           0      -14.250888    3.094577   -1.962178
    134          1           0      -15.403243    3.564493    0.531862
    135          1           0      -17.163960    2.088619   -1.000802
    136          1           0      -17.792659    3.778296   -0.917858
    137          1           0      -17.380940    2.886664    0.529845
    138          1           0      -16.313222    5.589614   -0.774296
    139          1           0      -15.636378    4.985241   -2.158895
    140          1           0      -14.608991    5.324664   -0.791209
 ---------------------------------------------------------------------

 SCF Done:  E(RB-LYP) =  -3007.36084089     A.U. after   22 cycles

 Excitation energies and oscillator strengths:

 Excited State   1:      Singlet-A      1.8125 eV  684.05 nm  f=0.2659  <S**2>=0.000
     245 -> 248        0.17022
     245 -> 249       -0.11348
     246 -> 247        0.68144
     246 <- 247       -0.14469
 This state for optimization and/or second-order correction.
 Total Energy, E(TD-HF/TD-DFT) =  -3007.29423234
 Copying the excited state density for this state as the 1-particle RhoCI density.

 Excited State   2:      Singlet-A      1.8624 eV  665.72 nm  f=0.0123  <S**2>=0.000
     244 -> 247        0.69022
     245 -> 247        0.12973

 Excited State   3:      Singlet-A      1.9847 eV  624.71 nm  f=0.1284  <S**2>=0.000
     244 -> 247       -0.13842
     245 -> 247        0.64622
     246 -> 248       -0.18926
     246 -> 249        0.11958

 Excited State   4:      Singlet-A      2.1610 eV  573.74 nm  f=0.0005  <S**2>=0.000
     243 -> 247        0.70522

 Excited State   5:      Singlet-A      2.3048 eV  537.94 nm  f=0.0001  <S**2>=0.000
     242 -> 247        0.70708

 The electronic state is 1-A.
 Alpha  occ. eigenvalues --  -46.26915 -18.82351 -18.80694 -18.77258 -18.76059
 Alpha  occ. eigenvalues --  -18.75257 -18.75002 -14.02830 -14.02527 -14.01020
 Alpha  occ. eigenvalues --  -14.00334 -10.03919 -10.02717 -10.00545  -9.99099
 Alpha  occ. eigenvalues --   -9.97927  -9.96126  -9.96094  -9.96037  -9.95997
 Alpha  occ. eigenvalues --   -9.95837  -9.95588  -9.95368  -9.94795  -9.94381
 Alpha  occ. eigenvalues --   -9.94007  -9.93733  -9.93663  -9.93519  -9.93423
 Alpha  occ. eigenvalues --   -9.93384  -9.93322  -9.93299  -9.93230  -9.93151
 Alpha  occ. eigenvalues --   -9.93042  -9.92913  -9.92818  -9.92749  -9.92625
 Alpha  occ. eigenvalues --   -9.92597  -9.92315  -9.92289  -9.92232  -9.92223
 Alpha  occ. eigenvalues --   -9.92089  -9.92053  -9.92022  -9.91822  -9.91777
 Alpha  occ. eigenvalues --   -9.91704  -9.91617  -9.91502  -9.91476  -9.91408
 Alpha  occ. eigenvalues --   -9.91361  -9.91356  -9.91285  -9.91252  -9.91055
 Alpha  occ. eigenvalues --   -9.90907  -9.90815  -9.90777  -9.90550  -9.90487
 Alpha  occ. eigenvalues --   -9.90084  -2.91623  -1.72035  -1.71517  -1.71334
 Alpha  occ. eigenvalues --   -0.99262  -0.96418  -0.91987  -0.91182  -0.89666
 Alpha  occ. eigenvalues --   -0.88116  -0.86943  -0.86295  -0.86136  -0.85439
 Alpha  occ. eigenvalues --   -0.74490  -0.74212  -0.73647  -0.73256  -0.72497
 Alpha  occ. eigenvalues --   -0.72170  -0.71572  -0.71564  -0.70834  -0.70624
 Alpha  occ. eigenvalues --   -0.70126  -0.69617  -0.68198  -0.67741  -0.66974
 Alpha  occ. eigenvalues --   -0.66628  -0.66304  -0.65685  -0.65026  -0.64802
 Alpha  occ. eigenvalues --   -0.64009  -0.62628  -0.62377  -0.61749  -0.61175
 Alpha  occ. eigenvalues --   -0.60383  -0.60138  -0.60023  -0.59578  -0.59164
 Alpha  occ. eigenvalues --   -0.57984  -0.57675  -0.56130  -0.55648  -0.54116
 Alpha  occ. eigenvalues --   -0.53785  -0.53580  -0.52594  -0.52397  -0.51733
 Alpha  occ. eigenvalues --   -0.51585  -0.50993  -0.50705  -0.50354  -0.50203
 Alpha  occ. eigenvalues --   -0.49834  -0.49754  -0.49301  -0.47529  -0.46913
 Alpha  occ. eigenvalues --   -0.46787  -0.45890  -0.45483  -0.45148  -0.44471
 Alpha  occ. eigenvalues --   -0.43609  -0.43390  -0.43044  -0.42697  -0.42415
 Alpha  occ. eigenvalues --   -0.41909  -0.41658  -0.41380  -0.41176  -0.41029
 Alpha  occ. eigenvalues --   -0.40775  -0.40471  -0.40206  -0.40177  -0.40087
 Alpha  occ. eigenvalues --   -0.39926  -0.39864  -0.39691  -0.39329  -0.39249
 Alpha  occ. eigenvalues --   -0.39028  -0.38945  -0.38749  -0.38526  -0.38280
 Alpha  occ. eigenvalues --   -0.38112  -0.38040  -0.37839  -0.37472  -0.37404
 Alpha  occ. eigenvalues --   -0.37357  -0.37109  -0.36867  -0.36641  -0.36360
 Alpha  occ. eigenvalues --   -0.36320  -0.36198  -0.35953  -0.35871  -0.35544
 Alpha  occ. eigenvalues --   -0.35265  -0.35205  -0.34966  -0.34954  -0.34759
 Alpha  occ. eigenvalues --   -0.34530  -0.34313  -0.34287  -0.33880  -0.33784
 Alpha  occ. eigenvalues --   -0.33742  -0.33490  -0.33428  -0.33274  -0.33095
 Alpha  occ. eigenvalues --   -0.33063  -0.32875  -0.32708  -0.32474  -0.32412
 Alpha  occ. eigenvalues --   -0.32209  -0.31961  -0.31788  -0.31685  -0.31664
 Alpha  occ. eigenvalues --   -0.31403  -0.31391  -0.31268  -0.31172  -0.31056
 Alpha  occ. eigenvalues --   -0.30891  -0.30451  -0.30190  -0.29910  -0.29724
 Alpha  occ. eigenvalues --   -0.29694  -0.29485  -0.29229  -0.29054  -0.28732
 Alpha  occ. eigenvalues --   -0.28446  -0.28067  -0.28036  -0.27821  -0.27676
 Alpha  occ. eigenvalues --   -0.27274  -0.27072  -0.26808  -0.26715  -0.26388
 Alpha  occ. eigenvalues --   -0.26243  -0.25874  -0.25711  -0.25641  -0.25063
 Alpha  occ. eigenvalues --   -0.24787  -0.24365  -0.23635  -0.23460  -0.23449
 Alpha  occ. eigenvalues --   -0.23147  -0.22067  -0.21612  -0.20546  -0.20462
 Alpha  occ. eigenvalues --   -0.20166  -0.19844  -0.19228  -0.18110  -0.16742
 Alpha  occ. eigenvalues --   -0.15702
 Alpha virt. eigenvalues --   -0.11374  -0.06610  -0.05735  -0.04404  -0.03023
 Alpha virt. eigenvalues --   -0.02551  -0.01774  -0.01681  -0.00737   0.00146
 Alpha virt. eigenvalues --    0.01537   0.02156   0.02665   0.02905   0.03055

 Mulliken charges:
               1
     1  Mg   0.697523
     2  C    0.020576
     3  C   -0.045920
     4  C   -0.060570
     5  C   -0.086741
     6  N   -0.172061
     7  C   -0.082318
     8  C   -0.022240
     9  C    0.021619
    10  C   -0.034016
    11  C    0.146897
    12  C    0.124506
    13  C    0.169935
    14  C    0.040170
    15  O   -0.172598
    16  O   -0.270359
    17  N   -0.297978
    18  C    0.145171
    19  C   -0.131095
    20  C   -0.003000
    21  C    0.109768
    22  C    0.179323
    23  C   -0.030842
    24  O   -0.156106
    25  C    0.112978
    26  N   -0.211136
    27  C    0.024157
    28  C   -0.004818
    29  C    0.069882
    30  C    0.018206
    31  C    0.120408
    32  C    0.089806
    33  C    0.076041
    34  N   -0.229994
    35  C    0.086936
    36  C   -0.153733
    37  C    0.105772
    38  C    0.037984
    39  C    0.161271
    40  C   -0.062475
    41  O   -0.155126
    42  C    0.073302
    43  C    0.102964
    44  O   -0.204941
    45  O   -0.264243
    46  C    0.237282
    47  C    0.328053
    48  C   -0.119498
    49  C   -0.165427
    50  C    0.168007
    51  C    0.181717
    52  C    0.027184
    53  C    0.072330
    54  C   -0.061873
    55  C    0.140696
    56  C    0.049296
    57  C    0.094526
    58  C    0.145452
    59  C   -0.072007
    60  C    0.116116
    61  C    0.072879
    62  C    0.082647
    63  C    0.140277
    64  C   -0.078123
    65  C    0.117277
    66  C    0.077029
    67  H   -0.078711
    68  H   -0.048073
    69  H   -0.056184
    70  H    0.015787
    71  H   -0.028305
    72  H   -0.006194
    73  H   -0.002983
    74  H    0.000509
    75  H   -0.024522
    76  H   -0.027755
    77  H   -0.016901
    78  H    0.001241
    79  H   -0.011568
    80  H   -0.012200
    81  H   -0.002688
    82  H    0.009485
    83  H    0.018684
    84  H   -0.010874
    85  H   -0.028528
    86  H   -0.025583
    87  H   -0.011345
    88  H   -0.014588
    89  H    0.003243
    90  H   -0.010779
    91  H   -0.017925
    92  H   -0.010037
    93  H   -0.007911
    94  H   -0.000824
    95  H    0.008190
    96  H   -0.012496
    97  H    0.008956
    98  H   -0.010992
    99  H    0.003667
   100  H    0.023748
   101  H    0.011863
   102  H   -0.000952
   103  H   -0.002298
   104  H   -0.039405
   105  H   -0.000205
   106  H   -0.016426
   107  H   -0.002823
   108  H   -0.020387
   109  H   -0.047758
   110  H   -0.007946
   111  H   -0.024483
   112  H   -0.030634
   113  H   -0.045719
   114  H   -0.042786
   115  H   -0.011083
   116  H   -0.017714
   117  H   -0.022988
   118  H   -0.025849
   119  H   -0.041476
   120  H   -0.016689
   121  H   -0.044668
   122  H   -0.053629
   123  H   -0.024538
   124  H   -0.037644
   125  H   -0.038128
   126  H   -0.017967
   127  H   -0.029591
   128  H   -0.052313
   129  H   -0.049478
   130  H   -0.020743
   131  H   -0.036165
   132  H   -0.024567
   133  H   -0.032817
   134  H   -0.035077
   135  H   -0.033011
   136  H   -0.016469
   137  H   -0.026730
   138  H   -0.024436
   139  H   -0.021480
   140  H   -0.027059
 Sum of Mulliken charges =  -0.00000

 Dipole moment (field-independent basis, Debye):
    X=             -4.3095    Y=              2.8882    Z=              3.2126  Tot=              6.1020
 Quadrupole moment (field-independent basis, Debye-Ang):
   XX=           -385.0887   YY=           -433.4224   ZZ=           -406.5950
   XY=             26.0126   XZ=             10.0024   YZ=             -1.9529

 Normal termination of Gaussian 16 at Thu Apr 28 22:53:25 2022.
