 Gaussian 16, Revision A.03,
 Gaussian 16:  ES64L-G16RevA.03 25-Dec-2016

 -----------------------------------
 #p cam-b3lyp/Def2SVP td=(nstates=5)
 -----------------------------------

 -------------------------------------------------------
 step_1751_chromophore_3 TDDFT with cam-b3lyp functional
 -------------------------------------------------------
 Symbolic Z-matrix:
 Charge =  0 Multiplicity = 1

                         Standard orientation:
 ---------------------------------------------------------------------
 Center     Atomic      Atomic             Coordinates (Angstroms)
 Number     Number       Type             X           Y           Z
 ---------------------------------------------------------------------
      1         12           0        5.345008    1.125913    0.047820
      2          6           0        4.444900   -2.226213   -0.035153
      3          6           0        2.052832    1.924863   -0.198608
      4          6           0        6.277838    4.331897   -0.076781
      5          6           0        8.715025    0.137873   -0.241132
      6          7           0        3.418640   -0.067604   -0.307628
      7          6           0        3.328151   -1.385587   -0.089588
      8          6           0        1.876890   -1.780994    0.058626
      9          6           0        1.065376   -0.542585   -0.298697
     10          6           0        2.216640    0.552878   -0.359835
     11          6           0        0.302201   -0.629989   -1.641746
     12          6           0        1.572607   -2.287434    1.480181
     13          6           0        0.950006   -3.640435    1.592314
     14          6           0       -0.124356   -3.880332    0.529531
     15          8           0       -0.011859   -4.564656   -0.444766
     16          8           0       -1.307133   -3.325063    0.911103
     17          7           0        4.288944    2.823826   -0.020081
     18          6           0        2.958822    2.990830    0.034125
     19          6           0        2.611258    4.376390    0.166189
     20          6           0        3.857433    5.109337    0.132671
     21          6           0        4.867237    4.071641   -0.073617
     22          6           0        1.239099    4.864491    0.259774
     23          6           0        4.086004    6.644158    0.389064
     24          8           0        5.170993    7.179972    0.210668
     25          6           0        2.942459    7.474931    0.780918
     26          7           0        7.201553    2.091267   -0.242604
     27          6           0        7.349836    3.426847   -0.092202
     28          6           0        8.797558    3.902840   -0.286701
     29          6           0        9.550390    2.551448   -0.078113
     30          6           0        8.421475    1.518851   -0.155721
     31          6           0        9.040212    4.535001   -1.637990
     32          6           0       10.169807    2.353259    1.378490
     33          6           0       11.598224    1.865272    1.391268
     34          7           0        6.441458   -0.655779   -0.185111
     35          6           0        7.791988   -0.934739   -0.175050
     36          6           0        8.056664   -2.304821   -0.368524
     37          6           0        6.762132   -2.893955   -0.289669
     38          6           0        5.827063   -1.824139   -0.223253
     39          6           0        9.343150   -3.025734   -0.300508
     40          6           0        6.024103   -4.131984   -0.164086
     41          8           0        6.374495   -5.320520   -0.101114
     42          6           0        4.494548   -3.748896    0.041659
     43          6           0        3.733046   -4.357296   -1.131443
     44          8           0        3.977637   -4.084415   -2.304184
     45          8           0        2.936210   -5.404147   -0.765648
     46          6           0        2.370338   -6.229838   -1.826447
     47          6           0       -2.407168   -3.554401   -0.023308
     48          6           0       -3.597203   -3.256021    0.796477
     49          6           0       -4.872678   -3.793356    0.761298
     50          6           0       -5.300173   -4.864877   -0.204852
     51          6           0       -5.881942   -3.199335    1.678236
     52          6           0       -6.937736   -2.360683    0.892372
     53          6           0       -7.273126   -1.025062    1.581790
     54          6           0       -8.600458   -1.065419    2.487981
     55          6           0       -8.513395   -0.459023    3.892777
     56          6           0       -9.547452   -0.242811    1.642575
     57          6           0      -10.115572   -0.897659    0.343160
     58          6           0      -10.213255    0.143407   -0.784638
     59          6           0      -11.694664    0.274640   -1.234957
     60          6           0      -11.979215   -0.187373   -2.595332
     61          6           0      -12.194519    1.708118   -0.873978
     62          6           0      -13.672837    1.824379   -0.276210
     63          6           0      -14.696197    2.439205   -1.213266
     64          6           0      -15.636260    3.447562   -0.526531
     65          6           0      -17.087291    3.056982   -0.505697
     66          6           0      -15.556165    4.867714   -1.078559
     67          1           0        0.987812    2.160593   -0.147183
     68          1           0        6.608278    5.371903   -0.059246
     69          1           0        9.737058   -0.149089   -0.498548
     70          1           0        1.776893   -2.609065   -0.643107
     71          1           0        0.461782   -0.258180    0.562519
     72          1           0        0.248756   -1.677955   -1.937698
     73          1           0        0.904603   -0.200476   -2.442228
     74          1           0       -0.711042   -0.236508   -1.567003
     75          1           0        0.980556   -1.597658    2.082017
     76          1           0        2.500385   -2.291252    2.051638
     77          1           0        0.474385   -3.752754    2.566300
     78          1           0        1.647485   -4.475696    1.535352
     79          1           0        1.035360    5.685442    0.947397
     80          1           0        0.449504    4.116180    0.336226
     81          1           0        1.099117    5.307349   -0.727021
     82          1           0        2.470848    6.979980    1.629164
     83          1           0        2.141832    7.728714    0.086480
     84          1           0        3.298992    8.455579    1.097861
     85          1           0        8.952278    4.760906    0.368418
     86          1           0       10.135541    2.387669   -0.982861
     87          1           0        8.532535    4.049597   -2.471148
     88          1           0       10.094576    4.441911   -1.900829
     89          1           0        8.745891    5.584146   -1.604006
     90          1           0        9.756014    1.518944    1.945039
     91          1           0        9.896784    3.232667    1.962150
     92          1           0       12.018696    1.699820    0.398846
     93          1           0       11.685866    0.902753    1.894280
     94          1           0       12.122382    2.659743    1.922091
     95          1           0        9.296553   -3.881983    0.372468
     96          1           0       10.245508   -2.505374    0.020274
     97          1           0        9.434022   -3.436788   -1.305761
     98          1           0        4.201830   -4.237368    0.971185
     99          1           0        2.033675   -5.489864   -2.552614
    100          1           0        1.544342   -6.812523   -1.417886
    101          1           0        3.168339   -6.776506   -2.328666
    102          1           0       -2.439985   -4.557118   -0.448642
    103          1           0       -2.290748   -2.886788   -0.877885
    104          1           0       -3.410344   -2.542467    1.599884
    105          1           0       -5.914280   -5.598785    0.318146
    106          1           0       -4.454534   -5.290136   -0.746387
    107          1           0       -5.913560   -4.358105   -0.949461
    108          1           0       -5.462409   -2.705523    2.554810
    109          1           0       -6.531466   -3.983785    2.065757
    110          1           0       -7.893884   -2.866734    0.758351
    111          1           0       -6.513382   -2.186676   -0.096186
    112          1           0       -7.361333   -0.274493    0.795295
    113          1           0       -6.423888   -0.688738    2.176788
    114          1           0       -8.846241   -2.123745    2.406669
    115          1           0       -8.750096   -1.248663    4.606597
    116          1           0       -9.179573    0.390060    4.048152
    117          1           0       -7.541997   -0.052886    4.174194
    118          1           0       -9.024987    0.705495    1.522417
    119          1           0      -10.480889   -0.088369    2.184187
    120          1           0      -11.000921   -1.463430    0.630478
    121          1           0       -9.345788   -1.606342    0.038339
    122          1           0       -9.675203   -0.248398   -1.648943
    123          1           0       -9.817785    1.147623   -0.631946
    124          1           0      -12.366984   -0.416469   -0.726607
    125          1           0      -11.375538    0.374996   -3.307820
    126          1           0      -13.022691   -0.144286   -2.908547
    127          1           0      -11.639890   -1.200384   -2.812706
    128          1           0      -12.107888    2.403391   -1.709858
    129          1           0      -11.427889    2.205321   -0.278961
    130          1           0      -13.555620    2.268266    0.711900
    131          1           0      -13.951274    0.775364   -0.176171
    132          1           0      -15.184997    1.609568   -1.722269
    133          1           0      -14.250888    3.094577   -1.962178
    134          1           0      -15.403243    3.564493    0.531862
    135          1           0      -17.163960    2.088619   -1.000802
    136          1           0      -17.792659    3.778296   -0.917858
    137          1           0      -17.380940    2.886664    0.529845
    138          1           0      -16.313222    5.589614   -0.774296
    139          1           0      -15.636378    4.985241   -2.158895
    140          1           0      -14.608991    5.324664   -0.791209
 ---------------------------------------------------------------------

 SCF Done:  E(RCAM-B3LYP) =  -3007.16670228     A.U. after   19 cycles

 Excitation energies and oscillator strengths:

 Excited State   1:      Singlet-A      1.7099 eV  725.09 nm  f=0.3752  <S**2>=0.000
     245 -> 248        0.18029
     246 -> 247        0.68443
     245 <- 248        0.10674
 This state for optimization and/or second-order correction.
 Total Energy, E(TD-HF/TD-DFT) =  -3007.10386434
 Copying the excited state density for this state as the 1-particle RhoCI density.

 Excited State   2:      Singlet-A      2.1635 eV  573.08 nm  f=0.1750  <S**2>=0.000
     245 -> 247        0.65791
     246 -> 248       -0.24665

 Excited State   3:      Singlet-A      3.3488 eV  370.24 nm  f=0.0004  <S**2>=0.000
     241 -> 247        0.32364
     241 -> 249       -0.15060
     241 -> 251       -0.14234
     243 -> 247        0.57058

 Excited State   4:      Singlet-A      3.3972 eV  364.96 nm  f=0.0013  <S**2>=0.000
     241 -> 247        0.47233
     241 -> 249       -0.20026
     241 -> 251       -0.17553
     242 -> 247        0.22049
     243 -> 247       -0.36846

 Excited State   5:      Singlet-A      3.5052 eV  353.71 nm  f=0.0141  <S**2>=0.000
     241 -> 247       -0.18492
     242 -> 247        0.60921
     246 -> 248        0.25533

 The electronic state is 1-A.
 Alpha  occ. eigenvalues --  -46.88464 -19.25217 -19.23566 -19.20245 -19.19374
 Alpha  occ. eigenvalues --  -19.18342 -19.18142 -14.41733 -14.41339 -14.39516
 Alpha  occ. eigenvalues --  -14.38695 -10.39118 -10.38186 -10.35847 -10.34484
 Alpha  occ. eigenvalues --  -10.31953 -10.30600 -10.30528 -10.30509 -10.30308
 Alpha  occ. eigenvalues --  -10.30027 -10.29914 -10.29679 -10.28962 -10.28740
 Alpha  occ. eigenvalues --  -10.28252 -10.28049 -10.27953 -10.27679 -10.27674
 Alpha  occ. eigenvalues --  -10.27657 -10.27479 -10.27334 -10.27313 -10.27276
 Alpha  occ. eigenvalues --  -10.27021 -10.26992 -10.26795 -10.26706 -10.26450
 Alpha  occ. eigenvalues --  -10.26413 -10.26286 -10.26279 -10.26000 -10.25930
 Alpha  occ. eigenvalues --  -10.25925 -10.25770 -10.25737 -10.25703 -10.25582
 Alpha  occ. eigenvalues --  -10.25430 -10.25243 -10.25175 -10.25113 -10.25045
 Alpha  occ. eigenvalues --  -10.25020 -10.24989 -10.24986 -10.24953 -10.24909
 Alpha  occ. eigenvalues --  -10.24688 -10.24521 -10.24417 -10.24141 -10.24050
 Alpha  occ. eigenvalues --  -10.23624  -3.17079  -1.91966  -1.91537  -1.91390
 Alpha  occ. eigenvalues --   -1.17767  -1.14913  -1.10490  -1.09056  -1.07994
 Alpha  occ. eigenvalues --   -1.06026  -1.04706  -1.04020  -1.03762  -1.03007
 Alpha  occ. eigenvalues --   -0.91592  -0.91120  -0.90509  -0.90072  -0.89217
 Alpha  occ. eigenvalues --   -0.88810  -0.88292  -0.88186  -0.87509  -0.87217
 Alpha  occ. eigenvalues --   -0.86686  -0.85982  -0.84425  -0.83902  -0.83147
 Alpha  occ. eigenvalues --   -0.82813  -0.82537  -0.81585  -0.80971  -0.80645
 Alpha  occ. eigenvalues --   -0.79717  -0.78371  -0.78020  -0.77241  -0.76575
 Alpha  occ. eigenvalues --   -0.75740  -0.75480  -0.75374  -0.74900  -0.74391
 Alpha  occ. eigenvalues --   -0.73037  -0.72697  -0.71008  -0.70464  -0.68702
 Alpha  occ. eigenvalues --   -0.68389  -0.68114  -0.67015  -0.66762  -0.65912
 Alpha  occ. eigenvalues --   -0.65786  -0.65118  -0.64708  -0.64361  -0.64244
 Alpha  occ. eigenvalues --   -0.63761  -0.63725  -0.63261  -0.61237  -0.60616
 Alpha  occ. eigenvalues --   -0.60412  -0.59404  -0.58934  -0.58592  -0.57972
 Alpha  occ. eigenvalues --   -0.57230  -0.56751  -0.56193  -0.55958  -0.55434
 Alpha  occ. eigenvalues --   -0.55143  -0.54739  -0.54539  -0.54042  -0.53882
 Alpha  occ. eigenvalues --   -0.53407  -0.53176  -0.53034  -0.52818  -0.52758
 Alpha  occ. eigenvalues --   -0.52685  -0.52652  -0.52495  -0.52018  -0.51724
 Alpha  occ. eigenvalues --   -0.51583  -0.51372  -0.51196  -0.51095  -0.50902
 Alpha  occ. eigenvalues --   -0.50500  -0.50464  -0.50268  -0.49973  -0.49772
 Alpha  occ. eigenvalues --   -0.49666  -0.49428  -0.49261  -0.49038  -0.48744
 Alpha  occ. eigenvalues --   -0.48638  -0.48491  -0.48265  -0.47866  -0.47804
 Alpha  occ. eigenvalues --   -0.47535  -0.47246  -0.47102  -0.46849  -0.46632
 Alpha  occ. eigenvalues --   -0.46597  -0.46248  -0.45986  -0.45753  -0.45699
 Alpha  occ. eigenvalues --   -0.45447  -0.45235  -0.45130  -0.45043  -0.44874
 Alpha  occ. eigenvalues --   -0.44641  -0.44566  -0.44480  -0.44183  -0.44006
 Alpha  occ. eigenvalues --   -0.43879  -0.43593  -0.43527  -0.43333  -0.43194
 Alpha  occ. eigenvalues --   -0.43010  -0.42925  -0.42741  -0.42604  -0.42483
 Alpha  occ. eigenvalues --   -0.42167  -0.41970  -0.41866  -0.41303  -0.41013
 Alpha  occ. eigenvalues --   -0.40887  -0.40822  -0.40509  -0.40271  -0.39764
 Alpha  occ. eigenvalues --   -0.39659  -0.39558  -0.39048  -0.38928  -0.38834
 Alpha  occ. eigenvalues --   -0.38158  -0.37938  -0.37703  -0.37604  -0.37508
 Alpha  occ. eigenvalues --   -0.37272  -0.36962  -0.36343  -0.36288  -0.35755
 Alpha  occ. eigenvalues --   -0.35572  -0.35134  -0.34866  -0.34193  -0.33960
 Alpha  occ. eigenvalues --   -0.33814  -0.33067  -0.32717  -0.31655  -0.30659
 Alpha  occ. eigenvalues --   -0.30161  -0.29828  -0.29425  -0.29244  -0.23364
 Alpha  occ. eigenvalues --   -0.21121
 Alpha virt. eigenvalues --   -0.08643  -0.01175   0.00588   0.02347   0.02531
 Alpha virt. eigenvalues --    0.04582   0.05860   0.05963   0.06549   0.07101
 Alpha virt. eigenvalues --    0.08145   0.08796   0.09116   0.09325   0.09452

 Mulliken charges:
               1
     1  Mg   0.831242
     2  C   -0.013051
     3  C   -0.063940
     4  C   -0.076924
     5  C   -0.090265
     6  N   -0.243115
     7  C   -0.034819
     8  C   -0.081944
     9  C   -0.031828
    10  C   -0.009500
    11  C    0.089637
    12  C    0.072422
    13  C    0.101673
    14  C    0.114410
    15  O   -0.212748
    16  O   -0.333252
    17  N   -0.389590
    18  C    0.159270
    19  C   -0.142165
    20  C   -0.062948
    21  C    0.132544
    22  C    0.114168
    23  C    0.048959
    24  O   -0.196535
    25  C    0.026715
    26  N   -0.279430
    27  C    0.040805
    28  C   -0.055595
    29  C   -0.000036
    30  C    0.034298
    31  C    0.063827
    32  C    0.038848
    33  C    0.012328
    34  N   -0.320603
    35  C    0.093362
    36  C   -0.141829
    37  C    0.021672
    38  C    0.084637
    39  C    0.101248
    40  C    0.037186
    41  O   -0.194412
    42  C    0.004995
    43  C    0.187632
    44  O   -0.240755
    45  O   -0.327767
    46  C    0.195259
    47  C    0.295877
    48  C   -0.137328
    49  C   -0.191435
    50  C    0.107671
    51  C    0.121294
    52  C   -0.025875
    53  C    0.021035
    54  C   -0.117513
    55  C    0.078700
    56  C   -0.000862
    57  C    0.039988
    58  C    0.084245
    59  C   -0.126425
    60  C    0.060702
    61  C    0.021344
    62  C    0.025783
    63  C    0.083946
    64  C   -0.139913
    65  C    0.056811
    66  C    0.016706
    67  H   -0.044494
    68  H   -0.006844
    69  H   -0.020768
    70  H    0.045529
    71  H    0.007747
    72  H    0.016554
    73  H    0.024672
    74  H    0.024128
    75  H    0.007476
    76  H    0.006121
    77  H    0.019598
    78  H    0.033097
    79  H    0.015495
    80  H    0.017030
    81  H    0.025821
    82  H    0.034917
    83  H    0.047849
    84  H    0.025289
    85  H    0.006866
    86  H    0.010150
    87  H    0.014744
    88  H    0.010151
    89  H    0.026860
    90  H    0.019140
    91  H    0.010638
    92  H    0.012517
    93  H    0.015167
    94  H    0.022438
    95  H    0.035768
    96  H    0.013635
    97  H    0.035680
    98  H    0.031167
    99  H    0.028919
   100  H    0.047166
   101  H    0.035600
   102  H    0.028528
   103  H    0.024090
   104  H   -0.004465
   105  H    0.024253
   106  H    0.008420
   107  H    0.020782
   108  H    0.009925
   109  H   -0.016415
   110  H    0.014999
   111  H    0.004447
   112  H   -0.002395
   113  H   -0.017135
   114  H   -0.010996
   115  H    0.013204
   116  H    0.008258
   117  H    0.001673
   118  H    0.000937
   119  H   -0.012252
   120  H    0.012089
   121  H   -0.018287
   122  H   -0.021257
   123  H    0.003822
   124  H   -0.008655
   125  H   -0.014137
   126  H    0.005460
   127  H   -0.003891
   128  H   -0.023218
   129  H   -0.019101
   130  H    0.007955
   131  H   -0.007556
   132  H    0.003000
   133  H   -0.003824
   134  H   -0.002486
   135  H   -0.008635
   136  H    0.008402
   137  H   -0.001796
   138  H    0.001339
   139  H    0.002541
   140  H   -0.002281
 Sum of Mulliken charges =  -0.00000

 Dipole moment (field-independent basis, Debye):
    X=             -4.6219    Y=              3.3662    Z=              3.3963  Tot=              6.6504
 Quadrupole moment (field-independent basis, Debye-Ang):
   XX=           -385.2216   YY=           -429.8257   ZZ=           -406.4795
   XY=             26.4079   XZ=             11.3807   YZ=             -1.5506

 Normal termination of Gaussian 16 at Thu Apr 28 22:01:17 2022.
