 Gaussian 16, Revision A.03,
 Gaussian 16:  ES64L-G16RevA.03 25-Dec-2016

 ---------------------------------
 #p PBE1PBE/Def2SVP td=(nstates=5)
 ---------------------------------

 -----------------------------------------------------
 step_1751_chromophore_3 TDDFT with PBE1PBE functional
 -----------------------------------------------------
 Symbolic Z-matrix:
 Charge =  0 Multiplicity = 1

                         Standard orientation:
 ---------------------------------------------------------------------
 Center     Atomic      Atomic             Coordinates (Angstroms)
 Number     Number       Type             X           Y           Z
 ---------------------------------------------------------------------
      1         12           0        5.345008    1.125913    0.047820
      2          6           0        4.444900   -2.226213   -0.035153
      3          6           0        2.052832    1.924863   -0.198608
      4          6           0        6.277838    4.331897   -0.076781
      5          6           0        8.715025    0.137873   -0.241132
      6          7           0        3.418640   -0.067604   -0.307628
      7          6           0        3.328151   -1.385587   -0.089588
      8          6           0        1.876890   -1.780994    0.058626
      9          6           0        1.065376   -0.542585   -0.298697
     10          6           0        2.216640    0.552878   -0.359835
     11          6           0        0.302201   -0.629989   -1.641746
     12          6           0        1.572607   -2.287434    1.480181
     13          6           0        0.950006   -3.640435    1.592314
     14          6           0       -0.124356   -3.880332    0.529531
     15          8           0       -0.011859   -4.564656   -0.444766
     16          8           0       -1.307133   -3.325063    0.911103
     17          7           0        4.288944    2.823826   -0.020081
     18          6           0        2.958822    2.990830    0.034125
     19          6           0        2.611258    4.376390    0.166189
     20          6           0        3.857433    5.109337    0.132671
     21          6           0        4.867237    4.071641   -0.073617
     22          6           0        1.239099    4.864491    0.259774
     23          6           0        4.086004    6.644158    0.389064
     24          8           0        5.170993    7.179972    0.210668
     25          6           0        2.942459    7.474931    0.780918
     26          7           0        7.201553    2.091267   -0.242604
     27          6           0        7.349836    3.426847   -0.092202
     28          6           0        8.797558    3.902840   -0.286701
     29          6           0        9.550390    2.551448   -0.078113
     30          6           0        8.421475    1.518851   -0.155721
     31          6           0        9.040212    4.535001   -1.637990
     32          6           0       10.169807    2.353259    1.378490
     33          6           0       11.598224    1.865272    1.391268
     34          7           0        6.441458   -0.655779   -0.185111
     35          6           0        7.791988   -0.934739   -0.175050
     36          6           0        8.056664   -2.304821   -0.368524
     37          6           0        6.762132   -2.893955   -0.289669
     38          6           0        5.827063   -1.824139   -0.223253
     39          6           0        9.343150   -3.025734   -0.300508
     40          6           0        6.024103   -4.131984   -0.164086
     41          8           0        6.374495   -5.320520   -0.101114
     42          6           0        4.494548   -3.748896    0.041659
     43          6           0        3.733046   -4.357296   -1.131443
     44          8           0        3.977637   -4.084415   -2.304184
     45          8           0        2.936210   -5.404147   -0.765648
     46          6           0        2.370338   -6.229838   -1.826447
     47          6           0       -2.407168   -3.554401   -0.023308
     48          6           0       -3.597203   -3.256021    0.796477
     49          6           0       -4.872678   -3.793356    0.761298
     50          6           0       -5.300173   -4.864877   -0.204852
     51          6           0       -5.881942   -3.199335    1.678236
     52          6           0       -6.937736   -2.360683    0.892372
     53          6           0       -7.273126   -1.025062    1.581790
     54          6           0       -8.600458   -1.065419    2.487981
     55          6           0       -8.513395   -0.459023    3.892777
     56          6           0       -9.547452   -0.242811    1.642575
     57          6           0      -10.115572   -0.897659    0.343160
     58          6           0      -10.213255    0.143407   -0.784638
     59          6           0      -11.694664    0.274640   -1.234957
     60          6           0      -11.979215   -0.187373   -2.595332
     61          6           0      -12.194519    1.708118   -0.873978
     62          6           0      -13.672837    1.824379   -0.276210
     63          6           0      -14.696197    2.439205   -1.213266
     64          6           0      -15.636260    3.447562   -0.526531
     65          6           0      -17.087291    3.056982   -0.505697
     66          6           0      -15.556165    4.867714   -1.078559
     67          1           0        0.987812    2.160593   -0.147183
     68          1           0        6.608278    5.371903   -0.059246
     69          1           0        9.737058   -0.149089   -0.498548
     70          1           0        1.776893   -2.609065   -0.643107
     71          1           0        0.461782   -0.258180    0.562519
     72          1           0        0.248756   -1.677955   -1.937698
     73          1           0        0.904603   -0.200476   -2.442228
     74          1           0       -0.711042   -0.236508   -1.567003
     75          1           0        0.980556   -1.597658    2.082017
     76          1           0        2.500385   -2.291252    2.051638
     77          1           0        0.474385   -3.752754    2.566300
     78          1           0        1.647485   -4.475696    1.535352
     79          1           0        1.035360    5.685442    0.947397
     80          1           0        0.449504    4.116180    0.336226
     81          1           0        1.099117    5.307349   -0.727021
     82          1           0        2.470848    6.979980    1.629164
     83          1           0        2.141832    7.728714    0.086480
     84          1           0        3.298992    8.455579    1.097861
     85          1           0        8.952278    4.760906    0.368418
     86          1           0       10.135541    2.387669   -0.982861
     87          1           0        8.532535    4.049597   -2.471148
     88          1           0       10.094576    4.441911   -1.900829
     89          1           0        8.745891    5.584146   -1.604006
     90          1           0        9.756014    1.518944    1.945039
     91          1           0        9.896784    3.232667    1.962150
     92          1           0       12.018696    1.699820    0.398846
     93          1           0       11.685866    0.902753    1.894280
     94          1           0       12.122382    2.659743    1.922091
     95          1           0        9.296553   -3.881983    0.372468
     96          1           0       10.245508   -2.505374    0.020274
     97          1           0        9.434022   -3.436788   -1.305761
     98          1           0        4.201830   -4.237368    0.971185
     99          1           0        2.033675   -5.489864   -2.552614
    100          1           0        1.544342   -6.812523   -1.417886
    101          1           0        3.168339   -6.776506   -2.328666
    102          1           0       -2.439985   -4.557118   -0.448642
    103          1           0       -2.290748   -2.886788   -0.877885
    104          1           0       -3.410344   -2.542467    1.599884
    105          1           0       -5.914280   -5.598785    0.318146
    106          1           0       -4.454534   -5.290136   -0.746387
    107          1           0       -5.913560   -4.358105   -0.949461
    108          1           0       -5.462409   -2.705523    2.554810
    109          1           0       -6.531466   -3.983785    2.065757
    110          1           0       -7.893884   -2.866734    0.758351
    111          1           0       -6.513382   -2.186676   -0.096186
    112          1           0       -7.361333   -0.274493    0.795295
    113          1           0       -6.423888   -0.688738    2.176788
    114          1           0       -8.846241   -2.123745    2.406669
    115          1           0       -8.750096   -1.248663    4.606597
    116          1           0       -9.179573    0.390060    4.048152
    117          1           0       -7.541997   -0.052886    4.174194
    118          1           0       -9.024987    0.705495    1.522417
    119          1           0      -10.480889   -0.088369    2.184187
    120          1           0      -11.000921   -1.463430    0.630478
    121          1           0       -9.345788   -1.606342    0.038339
    122          1           0       -9.675203   -0.248398   -1.648943
    123          1           0       -9.817785    1.147623   -0.631946
    124          1           0      -12.366984   -0.416469   -0.726607
    125          1           0      -11.375538    0.374996   -3.307820
    126          1           0      -13.022691   -0.144286   -2.908547
    127          1           0      -11.639890   -1.200384   -2.812706
    128          1           0      -12.107888    2.403391   -1.709858
    129          1           0      -11.427889    2.205321   -0.278961
    130          1           0      -13.555620    2.268266    0.711900
    131          1           0      -13.951274    0.775364   -0.176171
    132          1           0      -15.184997    1.609568   -1.722269
    133          1           0      -14.250888    3.094577   -1.962178
    134          1           0      -15.403243    3.564493    0.531862
    135          1           0      -17.163960    2.088619   -1.000802
    136          1           0      -17.792659    3.778296   -0.917858
    137          1           0      -17.380940    2.886664    0.529845
    138          1           0      -16.313222    5.589614   -0.774296
    139          1           0      -15.636378    4.985241   -2.158895
    140          1           0      -14.608991    5.324664   -0.791209
 ---------------------------------------------------------------------

 SCF Done:  E(RPBE1PBE) =  -3005.35796678     A.U. after   15 cycles

 Excitation energies and oscillator strengths:

 Excited State   1:      Singlet-A      1.8694 eV  663.24 nm  f=0.3546  <S**2>=0.000
     245 -> 248        0.16878
     246 -> 247        0.69113
     246 <- 247       -0.10561
 This state for optimization and/or second-order correction.
 Total Energy, E(TD-HF/TD-DFT) =  -3005.28926898
 Copying the excited state density for this state as the 1-particle RhoCI density.

 Excited State   2:      Singlet-A      2.1792 eV  568.94 nm  f=0.1670  <S**2>=0.000
     245 -> 247        0.66575
     246 -> 248       -0.22092

 Excited State   3:      Singlet-A      2.8715 eV  431.77 nm  f=0.0002  <S**2>=0.000
     242 -> 247        0.25594
     243 -> 247        0.62836
     243 -> 249        0.12478

 Excited State   4:      Singlet-A      3.0659 eV  404.39 nm  f=0.0016  <S**2>=0.000
     241 -> 247        0.13126
     242 -> 247        0.63757
     243 -> 247       -0.25386

 Excited State   5:      Singlet-A      3.1583 eV  392.56 nm  f=0.0063  <S**2>=0.000
     241 -> 247        0.67401
     246 -> 248        0.12913

 The electronic state is 1-A.
 Alpha  occ. eigenvalues --  -46.91853 -19.25882 -19.24208 -19.20467 -19.19552
 Alpha  occ. eigenvalues --  -19.18569 -19.18413 -14.41192 -14.40840 -14.39137
 Alpha  occ. eigenvalues --  -14.38349 -10.36142 -10.35216 -10.32951 -10.31657
 Alpha  occ. eigenvalues --  -10.29323 -10.28300 -10.28277 -10.28214 -10.27986
 Alpha  occ. eigenvalues --  -10.27743 -10.27322 -10.27138 -10.26681 -10.26416
 Alpha  occ. eigenvalues --  -10.25899 -10.25822 -10.25587 -10.25536 -10.25531
 Alpha  occ. eigenvalues --  -10.25319 -10.25137 -10.25107 -10.25087 -10.25041
 Alpha  occ. eigenvalues --  -10.24623 -10.24447 -10.24342 -10.24211 -10.24061
 Alpha  occ. eigenvalues --  -10.23946 -10.23789 -10.23712 -10.23563 -10.23561
 Alpha  occ. eigenvalues --  -10.23359 -10.23311 -10.23301 -10.23189 -10.23141
 Alpha  occ. eigenvalues --  -10.22918 -10.22759 -10.22755 -10.22746 -10.22680
 Alpha  occ. eigenvalues --  -10.22676 -10.22603 -10.22567 -10.22545 -10.22388
 Alpha  occ. eigenvalues --  -10.22224 -10.22116 -10.21999 -10.21526 -10.21392
 Alpha  occ. eigenvalues --  -10.20988  -3.14046  -1.86874  -1.86422  -1.86280
 Alpha  occ. eigenvalues --   -1.12557  -1.09676  -1.05191  -1.03908  -1.02744
 Alpha  occ. eigenvalues --   -1.00836  -0.99333  -0.98615  -0.98456  -0.97679
 Alpha  occ. eigenvalues --   -0.85912  -0.85250  -0.84697  -0.84203  -0.83335
 Alpha  occ. eigenvalues --   -0.83092  -0.82579  -0.82318  -0.81793  -0.81534
 Alpha  occ. eigenvalues --   -0.81015  -0.80220  -0.78645  -0.78161  -0.77379
 Alpha  occ. eigenvalues --   -0.76972  -0.76763  -0.75811  -0.75234  -0.74837
 Alpha  occ. eigenvalues --   -0.74057  -0.72696  -0.72268  -0.71571  -0.70734
 Alpha  occ. eigenvalues --   -0.70091  -0.69609  -0.69467  -0.69240  -0.68579
 Alpha  occ. eigenvalues --   -0.67440  -0.67037  -0.65426  -0.64747  -0.62942
 Alpha  occ. eigenvalues --   -0.62758  -0.62470  -0.61474  -0.61001  -0.60350
 Alpha  occ. eigenvalues --   -0.60201  -0.59407  -0.59148  -0.58890  -0.58364
 Alpha  occ. eigenvalues --   -0.58342  -0.57889  -0.57416  -0.55799  -0.55143
 Alpha  occ. eigenvalues --   -0.54831  -0.53875  -0.53523  -0.53183  -0.52580
 Alpha  occ. eigenvalues --   -0.51617  -0.51235  -0.50769  -0.50409  -0.49974
 Alpha  occ. eigenvalues --   -0.49664  -0.49259  -0.48984  -0.48508  -0.48369
 Alpha  occ. eigenvalues --   -0.47865  -0.47782  -0.47542  -0.47389  -0.47260
 Alpha  occ. eigenvalues --   -0.47155  -0.47080  -0.47006  -0.46616  -0.46270
 Alpha  occ. eigenvalues --   -0.46152  -0.45933  -0.45680  -0.45583  -0.45478
 Alpha  occ. eigenvalues --   -0.45144  -0.45042  -0.44837  -0.44545  -0.44358
 Alpha  occ. eigenvalues --   -0.44236  -0.43996  -0.43820  -0.43653  -0.43331
 Alpha  occ. eigenvalues --   -0.43244  -0.43098  -0.42928  -0.42498  -0.42422
 Alpha  occ. eigenvalues --   -0.42238  -0.41880  -0.41674  -0.41515  -0.41300
 Alpha  occ. eigenvalues --   -0.41243  -0.40915  -0.40643  -0.40529  -0.40482
 Alpha  occ. eigenvalues --   -0.40099  -0.39945  -0.39824  -0.39721  -0.39592
 Alpha  occ. eigenvalues --   -0.39401  -0.39310  -0.39232  -0.38951  -0.38824
 Alpha  occ. eigenvalues --   -0.38537  -0.38385  -0.38315  -0.38106  -0.37919
 Alpha  occ. eigenvalues --   -0.37774  -0.37713  -0.37546  -0.37330  -0.37223
 Alpha  occ. eigenvalues --   -0.37011  -0.36772  -0.36621  -0.36173  -0.35897
 Alpha  occ. eigenvalues --   -0.35703  -0.35680  -0.35344  -0.35054  -0.34660
 Alpha  occ. eigenvalues --   -0.34464  -0.34401  -0.33809  -0.33763  -0.33718
 Alpha  occ. eigenvalues --   -0.32937  -0.32929  -0.32666  -0.32449  -0.32294
 Alpha  occ. eigenvalues --   -0.32148  -0.31783  -0.31374  -0.31142  -0.30746
 Alpha  occ. eigenvalues --   -0.30486  -0.30020  -0.29763  -0.29287  -0.28896
 Alpha  occ. eigenvalues --   -0.28763  -0.28463  -0.27680  -0.26512  -0.26235
 Alpha  occ. eigenvalues --   -0.25411  -0.25147  -0.24968  -0.24606  -0.20355
 Alpha  occ. eigenvalues --   -0.18697
 Alpha virt. eigenvalues --   -0.11026  -0.04766  -0.03554  -0.01857  -0.00411
 Alpha virt. eigenvalues --    0.00156   0.01274   0.01491   0.02209   0.03142
 Alpha virt. eigenvalues --    0.04303   0.05071   0.05647   0.05870   0.06066

 Mulliken charges:
               1
     1  Mg   0.980157
     2  C   -0.024476
     3  C   -0.064543
     4  C   -0.067142
     5  C   -0.075834
     6  N   -0.347418
     7  C    0.032755
     8  C   -0.161849
     9  C   -0.114400
    10  C    0.040164
    11  C    0.035382
    12  C    0.027889
    13  C    0.023811
    14  C    0.181601
    15  O   -0.247309
    16  O   -0.363910
    17  N   -0.511433
    18  C    0.187067
    19  C   -0.181794
    20  C   -0.094650
    21  C    0.157616
    22  C    0.054841
    23  C    0.093397
    24  O   -0.234304
    25  C   -0.042632
    26  N   -0.380911
    27  C    0.074835
    28  C   -0.128673
    29  C   -0.087969
    30  C    0.063125
    31  C    0.009401
    32  C   -0.011776
    33  C   -0.059139
    34  N   -0.445712
    35  C    0.114118
    36  C   -0.155036
    37  C   -0.032590
    38  C    0.154701
    39  C    0.047653
    40  C    0.131022
    41  O   -0.239112
    42  C   -0.100680
    43  C    0.275011
    44  O   -0.272983
    45  O   -0.361529
    46  C    0.141414
    47  C    0.254899
    48  C   -0.142636
    49  C   -0.246415
    50  C    0.046242
    51  C    0.061373
    52  C   -0.090564
    53  C   -0.028820
    54  C   -0.204688
    55  C    0.021132
    56  C   -0.059927
    57  C   -0.027611
    58  C    0.027926
    59  C   -0.213139
    60  C    0.000486
    61  C   -0.022215
    62  C   -0.042986
    63  C    0.028776
    64  C   -0.231824
    65  C   -0.001068
    66  C   -0.047186
    67  H   -0.009742
    68  H    0.024854
    69  H    0.011062
    70  H    0.089987
    71  H    0.043299
    72  H    0.043900
    73  H    0.051964
    74  H    0.050652
    75  H    0.038521
    76  H    0.039751
    77  H    0.052409
    78  H    0.066288
    79  H    0.042093
    80  H    0.043957
    81  H    0.055751
    82  H    0.061546
    83  H    0.072970
    84  H    0.053049
    85  H    0.042613
    86  H    0.045581
    87  H    0.042976
    88  H    0.038873
    89  H    0.053997
    90  H    0.051817
    91  H    0.042223
    92  H    0.039431
    93  H    0.042117
    94  H    0.050226
    95  H    0.062727
    96  H    0.039124
    97  H    0.064037
    98  H    0.067026
    99  H    0.050303
   100  H    0.068212
   101  H    0.058234
   102  H    0.054387
   103  H    0.052381
   104  H    0.025512
   105  H    0.051060
   106  H    0.035992
   107  H    0.048477
   108  H    0.039138
   109  H    0.019226
   110  H    0.043637
   111  H    0.038573
   112  H    0.031286
   113  H    0.015696
   114  H    0.027855
   115  H    0.040864
   116  H    0.034608
   117  H    0.028310
   118  H    0.033498
   119  H    0.023142
   120  H    0.042370
   121  H    0.021375
   122  H    0.012636
   123  H    0.033589
   124  H    0.029034
   125  H    0.014551
   126  H    0.033727
   127  H    0.024967
   128  H    0.008903
   129  H    0.012619
   130  H    0.038830
   131  H    0.026880
   132  H    0.033326
   133  H    0.029458
   134  H    0.035454
   135  H    0.019357
   136  H    0.034879
   137  H    0.025925
   138  H    0.029314
   139  H    0.030339
   140  H    0.027092
 Sum of Mulliken charges =  -0.00000

 Dipole moment (field-independent basis, Debye):
    X=             -4.5626    Y=              3.3618    Z=              3.3764  Tot=              6.5969
 Quadrupole moment (field-independent basis, Debye-Ang):
   XX=           -379.2013   YY=           -427.0365   ZZ=           -403.9607
   XY=             26.6652   XZ=             11.3058   YZ=             -1.4141

 Normal termination of Gaussian 16 at Thu Apr 28 22:17:25 2022.
