 Gaussian 16, Revision A.03,
 Gaussian 16:  ES64L-G16RevA.03 25-Dec-2016

 --------------------------------
 #p wB97XD/Def2SVP td=(nstates=5)
 --------------------------------

 ----------------------------------------------------
 step_1751_chromophore_3 TDDFT with wB97XD functional
 ----------------------------------------------------
 Symbolic Z-matrix:
 Charge =  0 Multiplicity = 1

                         Standard orientation:
 ---------------------------------------------------------------------
 Center     Atomic      Atomic             Coordinates (Angstroms)
 Number     Number       Type             X           Y           Z
 ---------------------------------------------------------------------
      1         12           0        5.345008    1.125913    0.047820
      2          6           0        4.444900   -2.226213   -0.035153
      3          6           0        2.052832    1.924863   -0.198608
      4          6           0        6.277838    4.331897   -0.076781
      5          6           0        8.715025    0.137873   -0.241132
      6          7           0        3.418640   -0.067604   -0.307628
      7          6           0        3.328151   -1.385587   -0.089588
      8          6           0        1.876890   -1.780994    0.058626
      9          6           0        1.065376   -0.542585   -0.298697
     10          6           0        2.216640    0.552878   -0.359835
     11          6           0        0.302201   -0.629989   -1.641746
     12          6           0        1.572607   -2.287434    1.480181
     13          6           0        0.950006   -3.640435    1.592314
     14          6           0       -0.124356   -3.880332    0.529531
     15          8           0       -0.011859   -4.564656   -0.444766
     16          8           0       -1.307133   -3.325063    0.911103
     17          7           0        4.288944    2.823826   -0.020081
     18          6           0        2.958822    2.990830    0.034125
     19          6           0        2.611258    4.376390    0.166189
     20          6           0        3.857433    5.109337    0.132671
     21          6           0        4.867237    4.071641   -0.073617
     22          6           0        1.239099    4.864491    0.259774
     23          6           0        4.086004    6.644158    0.389064
     24          8           0        5.170993    7.179972    0.210668
     25          6           0        2.942459    7.474931    0.780918
     26          7           0        7.201553    2.091267   -0.242604
     27          6           0        7.349836    3.426847   -0.092202
     28          6           0        8.797558    3.902840   -0.286701
     29          6           0        9.550390    2.551448   -0.078113
     30          6           0        8.421475    1.518851   -0.155721
     31          6           0        9.040212    4.535001   -1.637990
     32          6           0       10.169807    2.353259    1.378490
     33          6           0       11.598224    1.865272    1.391268
     34          7           0        6.441458   -0.655779   -0.185111
     35          6           0        7.791988   -0.934739   -0.175050
     36          6           0        8.056664   -2.304821   -0.368524
     37          6           0        6.762132   -2.893955   -0.289669
     38          6           0        5.827063   -1.824139   -0.223253
     39          6           0        9.343150   -3.025734   -0.300508
     40          6           0        6.024103   -4.131984   -0.164086
     41          8           0        6.374495   -5.320520   -0.101114
     42          6           0        4.494548   -3.748896    0.041659
     43          6           0        3.733046   -4.357296   -1.131443
     44          8           0        3.977637   -4.084415   -2.304184
     45          8           0        2.936210   -5.404147   -0.765648
     46          6           0        2.370338   -6.229838   -1.826447
     47          6           0       -2.407168   -3.554401   -0.023308
     48          6           0       -3.597203   -3.256021    0.796477
     49          6           0       -4.872678   -3.793356    0.761298
     50          6           0       -5.300173   -4.864877   -0.204852
     51          6           0       -5.881942   -3.199335    1.678236
     52          6           0       -6.937736   -2.360683    0.892372
     53          6           0       -7.273126   -1.025062    1.581790
     54          6           0       -8.600458   -1.065419    2.487981
     55          6           0       -8.513395   -0.459023    3.892777
     56          6           0       -9.547452   -0.242811    1.642575
     57          6           0      -10.115572   -0.897659    0.343160
     58          6           0      -10.213255    0.143407   -0.784638
     59          6           0      -11.694664    0.274640   -1.234957
     60          6           0      -11.979215   -0.187373   -2.595332
     61          6           0      -12.194519    1.708118   -0.873978
     62          6           0      -13.672837    1.824379   -0.276210
     63          6           0      -14.696197    2.439205   -1.213266
     64          6           0      -15.636260    3.447562   -0.526531
     65          6           0      -17.087291    3.056982   -0.505697
     66          6           0      -15.556165    4.867714   -1.078559
     67          1           0        0.987812    2.160593   -0.147183
     68          1           0        6.608278    5.371903   -0.059246
     69          1           0        9.737058   -0.149089   -0.498548
     70          1           0        1.776893   -2.609065   -0.643107
     71          1           0        0.461782   -0.258180    0.562519
     72          1           0        0.248756   -1.677955   -1.937698
     73          1           0        0.904603   -0.200476   -2.442228
     74          1           0       -0.711042   -0.236508   -1.567003
     75          1           0        0.980556   -1.597658    2.082017
     76          1           0        2.500385   -2.291252    2.051638
     77          1           0        0.474385   -3.752754    2.566300
     78          1           0        1.647485   -4.475696    1.535352
     79          1           0        1.035360    5.685442    0.947397
     80          1           0        0.449504    4.116180    0.336226
     81          1           0        1.099117    5.307349   -0.727021
     82          1           0        2.470848    6.979980    1.629164
     83          1           0        2.141832    7.728714    0.086480
     84          1           0        3.298992    8.455579    1.097861
     85          1           0        8.952278    4.760906    0.368418
     86          1           0       10.135541    2.387669   -0.982861
     87          1           0        8.532535    4.049597   -2.471148
     88          1           0       10.094576    4.441911   -1.900829
     89          1           0        8.745891    5.584146   -1.604006
     90          1           0        9.756014    1.518944    1.945039
     91          1           0        9.896784    3.232667    1.962150
     92          1           0       12.018696    1.699820    0.398846
     93          1           0       11.685866    0.902753    1.894280
     94          1           0       12.122382    2.659743    1.922091
     95          1           0        9.296553   -3.881983    0.372468
     96          1           0       10.245508   -2.505374    0.020274
     97          1           0        9.434022   -3.436788   -1.305761
     98          1           0        4.201830   -4.237368    0.971185
     99          1           0        2.033675   -5.489864   -2.552614
    100          1           0        1.544342   -6.812523   -1.417886
    101          1           0        3.168339   -6.776506   -2.328666
    102          1           0       -2.439985   -4.557118   -0.448642
    103          1           0       -2.290748   -2.886788   -0.877885
    104          1           0       -3.410344   -2.542467    1.599884
    105          1           0       -5.914280   -5.598785    0.318146
    106          1           0       -4.454534   -5.290136   -0.746387
    107          1           0       -5.913560   -4.358105   -0.949461
    108          1           0       -5.462409   -2.705523    2.554810
    109          1           0       -6.531466   -3.983785    2.065757
    110          1           0       -7.893884   -2.866734    0.758351
    111          1           0       -6.513382   -2.186676   -0.096186
    112          1           0       -7.361333   -0.274493    0.795295
    113          1           0       -6.423888   -0.688738    2.176788
    114          1           0       -8.846241   -2.123745    2.406669
    115          1           0       -8.750096   -1.248663    4.606597
    116          1           0       -9.179573    0.390060    4.048152
    117          1           0       -7.541997   -0.052886    4.174194
    118          1           0       -9.024987    0.705495    1.522417
    119          1           0      -10.480889   -0.088369    2.184187
    120          1           0      -11.000921   -1.463430    0.630478
    121          1           0       -9.345788   -1.606342    0.038339
    122          1           0       -9.675203   -0.248398   -1.648943
    123          1           0       -9.817785    1.147623   -0.631946
    124          1           0      -12.366984   -0.416469   -0.726607
    125          1           0      -11.375538    0.374996   -3.307820
    126          1           0      -13.022691   -0.144286   -2.908547
    127          1           0      -11.639890   -1.200384   -2.812706
    128          1           0      -12.107888    2.403391   -1.709858
    129          1           0      -11.427889    2.205321   -0.278961
    130          1           0      -13.555620    2.268266    0.711900
    131          1           0      -13.951274    0.775364   -0.176171
    132          1           0      -15.184997    1.609568   -1.722269
    133          1           0      -14.250888    3.094577   -1.962178
    134          1           0      -15.403243    3.564493    0.531862
    135          1           0      -17.163960    2.088619   -1.000802
    136          1           0      -17.792659    3.778296   -0.917858
    137          1           0      -17.380940    2.886664    0.529845
    138          1           0      -16.313222    5.589614   -0.774296
    139          1           0      -15.636378    4.985241   -2.158895
    140          1           0      -14.608991    5.324664   -0.791209
 ---------------------------------------------------------------------

 SCF Done:  E(RwB97XD) =  -3007.86472354     A.U. after   19 cycles

 Excitation energies and oscillator strengths:

 Excited State   1:      Singlet-A      1.6499 eV  751.45 nm  f=0.3739  <S**2>=0.000
     245 -> 248        0.18692
     246 -> 247        0.68227
     245 <- 248        0.11680
 This state for optimization and/or second-order correction.
 Total Energy, E(TD-HF/TD-DFT) =  -3007.80408997
 Copying the excited state density for this state as the 1-particle RhoCI density.

 Excited State   2:      Singlet-A      2.1062 eV  588.67 nm  f=0.1695  <S**2>=0.000
     245 -> 247        0.65556
     246 -> 248       -0.25119

 Excited State   3:      Singlet-A      3.3758 eV  367.27 nm  f=0.0003  <S**2>=0.000
     241 -> 247        0.21237
     241 -> 249        0.11271
     241 -> 250       -0.11077
     243 -> 247        0.62402

 Excited State   4:      Singlet-A      3.4288 eV  361.59 nm  f=0.0014  <S**2>=0.000
     241 -> 247        0.47724
     241 -> 249        0.24086
     241 -> 250       -0.19758
     242 -> 247        0.29310
     243 -> 247       -0.25054

 Excited State   5:      Singlet-A      3.5346 eV  350.77 nm  f=0.0375  <S**2>=0.000
     241 -> 247       -0.27128
     242 -> 247        0.54750
     246 -> 248        0.30322

 The electronic state is 1-A.
 Alpha  occ. eigenvalues --  -46.94809 -19.30433 -19.28782 -19.25123 -19.24393
 Alpha  occ. eigenvalues --  -19.23281 -19.23226 -14.46315 -14.45907 -14.44112
 Alpha  occ. eigenvalues --  -14.43275 -10.42898 -10.42047 -10.39815 -10.38533
 Alpha  occ. eigenvalues --  -10.35822 -10.34625 -10.34533 -10.34503 -10.34356
 Alpha  occ. eigenvalues --  -10.34040 -10.33699 -10.33651 -10.32970 -10.32742
 Alpha  occ. eigenvalues --  -10.32381 -10.32081 -10.32018 -10.31817 -10.31797
 Alpha  occ. eigenvalues --  -10.31715 -10.31487 -10.31429 -10.31380 -10.31304
 Alpha  occ. eigenvalues --  -10.30978 -10.30883 -10.30742 -10.30719 -10.30485
 Alpha  occ. eigenvalues --  -10.30251 -10.30202 -10.30151 -10.29985 -10.29980
 Alpha  occ. eigenvalues --  -10.29755 -10.29678 -10.29663 -10.29643 -10.29525
 Alpha  occ. eigenvalues --  -10.29277 -10.29114 -10.29052 -10.29044 -10.29039
 Alpha  occ. eigenvalues --  -10.28997 -10.28932 -10.28899 -10.28877 -10.28812
 Alpha  occ. eigenvalues --  -10.28595 -10.28461 -10.28351 -10.27962 -10.27854
 Alpha  occ. eigenvalues --  -10.27413  -3.20854  -1.94431  -1.93982  -1.93834
 Alpha  occ. eigenvalues --   -1.19908  -1.17078  -1.12700  -1.11226  -1.10244
 Alpha  occ. eigenvalues --   -1.08216  -1.06705  -1.06008  -1.05807  -1.05045
 Alpha  occ. eigenvalues --   -0.93548  -0.92919  -0.92333  -0.91860  -0.90990
 Alpha  occ. eigenvalues --   -0.90666  -0.90209  -0.89963  -0.89446  -0.89132
 Alpha  occ. eigenvalues --   -0.88632  -0.87851  -0.86285  -0.85765  -0.85044
 Alpha  occ. eigenvalues --   -0.84664  -0.84463  -0.83458  -0.82870  -0.82497
 Alpha  occ. eigenvalues --   -0.81671  -0.80335  -0.79911  -0.79153  -0.78415
 Alpha  occ. eigenvalues --   -0.77684  -0.77283  -0.77156  -0.76840  -0.76233
 Alpha  occ. eigenvalues --   -0.74993  -0.74634  -0.72970  -0.72367  -0.70574
 Alpha  occ. eigenvalues --   -0.70341  -0.70022  -0.69005  -0.68631  -0.67866
 Alpha  occ. eigenvalues --   -0.67705  -0.66998  -0.66655  -0.66341  -0.66044
 Alpha  occ. eigenvalues --   -0.65755  -0.65537  -0.65068  -0.63230  -0.62606
 Alpha  occ. eigenvalues --   -0.62335  -0.61345  -0.60911  -0.60571  -0.59975
 Alpha  occ. eigenvalues --   -0.59167  -0.58678  -0.58154  -0.57869  -0.57376
 Alpha  occ. eigenvalues --   -0.57065  -0.56673  -0.56423  -0.55951  -0.55781
 Alpha  occ. eigenvalues --   -0.55274  -0.55117  -0.54945  -0.54721  -0.54691
 Alpha  occ. eigenvalues --   -0.54553  -0.54528  -0.54387  -0.53947  -0.53613
 Alpha  occ. eigenvalues --   -0.53488  -0.53270  -0.53134  -0.52949  -0.52817
 Alpha  occ. eigenvalues --   -0.52424  -0.52397  -0.52168  -0.51908  -0.51694
 Alpha  occ. eigenvalues --   -0.51582  -0.51308  -0.51215  -0.50948  -0.50636
 Alpha  occ. eigenvalues --   -0.50536  -0.50395  -0.50176  -0.49759  -0.49701
 Alpha  occ. eigenvalues --   -0.49480  -0.49152  -0.48946  -0.48748  -0.48596
 Alpha  occ. eigenvalues --   -0.48478  -0.48166  -0.47857  -0.47665  -0.47623
 Alpha  occ. eigenvalues --   -0.47306  -0.47115  -0.47012  -0.46932  -0.46799
 Alpha  occ. eigenvalues --   -0.46543  -0.46480  -0.46377  -0.46098  -0.45923
 Alpha  occ. eigenvalues --   -0.45736  -0.45514  -0.45425  -0.45258  -0.45058
 Alpha  occ. eigenvalues --   -0.44873  -0.44834  -0.44655  -0.44456  -0.44340
 Alpha  occ. eigenvalues --   -0.44128  -0.43963  -0.43856  -0.43222  -0.42927
 Alpha  occ. eigenvalues --   -0.42742  -0.42694  -0.42421  -0.42128  -0.41680
 Alpha  occ. eigenvalues --   -0.41511  -0.41437  -0.40899  -0.40785  -0.40731
 Alpha  occ. eigenvalues --   -0.39997  -0.39876  -0.39615  -0.39497  -0.39351
 Alpha  occ. eigenvalues --   -0.39211  -0.38809  -0.38425  -0.38179  -0.37645
 Alpha  occ. eigenvalues --   -0.37413  -0.37123  -0.36709  -0.36138  -0.35892
 Alpha  occ. eigenvalues --   -0.35657  -0.35181  -0.34782  -0.33604  -0.32876
 Alpha  occ. eigenvalues --   -0.32162  -0.31995  -0.31604  -0.31280  -0.25259
 Alpha  occ. eigenvalues --   -0.22923
 Alpha virt. eigenvalues --   -0.07001   0.00753   0.02666   0.04619   0.05443
 Alpha virt. eigenvalues --    0.06845   0.08015   0.08295   0.08977   0.09716
 Alpha virt. eigenvalues --    0.10731   0.11858   0.12456   0.12629   0.12831

 Mulliken charges:
               1
     1  Mg   0.970287
     2  C   -0.029826
     3  C   -0.077298
     4  C   -0.082476
     5  C   -0.095994
     6  N   -0.311527
     7  C    0.007913
     8  C   -0.126432
     9  C   -0.085210
    10  C    0.019818
    11  C    0.043774
    12  C    0.034372
    13  C    0.043038
    14  C    0.166613
    15  O   -0.242225
    16  O   -0.361924
    17  N   -0.478111
    18  C    0.178220
    19  C   -0.165687
    20  C   -0.096152
    21  C    0.151672
    22  C    0.065189
    23  C    0.093108
    24  O   -0.228490
    25  C   -0.034166
    26  N   -0.348866
    27  C    0.059847
    28  C   -0.104101
    29  C   -0.059867
    30  C    0.057016
    31  C    0.015911
    32  C    0.000127
    33  C   -0.044564
    34  N   -0.409373
    35  C    0.105996
    36  C   -0.149353
    37  C   -0.028556
    38  C    0.130886
    39  C    0.055447
    40  C    0.113498
    41  O   -0.229906
    42  C   -0.062450
    43  C    0.250850
    44  O   -0.268072
    45  O   -0.357285
    46  C    0.152663
    47  C    0.268560
    48  C   -0.154347
    49  C   -0.224222
    50  C    0.058714
    51  C    0.075835
    52  C   -0.071039
    53  C   -0.012436
    54  C   -0.174605
    55  C    0.030248
    56  C   -0.038190
    57  C   -0.007111
    58  C    0.042158
    59  C   -0.179694
    60  C    0.011475
    61  C   -0.012101
    62  C   -0.022752
    63  C    0.043409
    64  C   -0.202930
    65  C    0.009533
    66  C   -0.033913
    67  H   -0.018702
    68  H    0.019642
    69  H    0.005530
    70  H    0.064963
    71  H    0.033414
    72  H    0.037246
    73  H    0.047270
    74  H    0.046204
    75  H    0.032047
    76  H    0.031029
    77  H    0.048156
    78  H    0.058289
    79  H    0.037086
    80  H    0.040581
    81  H    0.049547
    82  H    0.054213
    83  H    0.069899
    84  H    0.051892
    85  H    0.034128
    86  H    0.034954
    87  H    0.037132
    88  H    0.032599
    89  H    0.049226
    90  H    0.041451
    91  H    0.035372
    92  H    0.033030
    93  H    0.036767
    94  H    0.044570
    95  H    0.058896
    96  H    0.035231
    97  H    0.058954
    98  H    0.060813
    99  H    0.046336
   100  H    0.067121
   101  H    0.055006
   102  H    0.047422
   103  H    0.047691
   104  H    0.021773
   105  H    0.046234
   106  H    0.030524
   107  H    0.042035
   108  H    0.032753
   109  H    0.010095
   110  H    0.032965
   111  H    0.027961
   112  H    0.019403
   113  H    0.005553
   114  H    0.013842
   115  H    0.035705
   116  H    0.029108
   117  H    0.022988
   118  H    0.021083
   119  H    0.012563
   120  H    0.036225
   121  H    0.005610
   122  H    0.004754
   123  H    0.024685
   124  H    0.012164
   125  H    0.006960
   126  H    0.028135
   127  H    0.018693
   128  H   -0.001118
   129  H    0.003543
   130  H    0.031989
   131  H    0.016485
   132  H    0.026240
   133  H    0.017574
   134  H    0.023818
   135  H    0.012178
   136  H    0.029532
   137  H    0.020556
   138  H    0.023416
   139  H    0.023581
   140  H    0.020461
 Sum of Mulliken charges =  -0.00000

 Dipole moment (field-independent basis, Debye):
    X=             -4.6954    Y=              3.4189    Z=              3.4336  Tot=              6.7473
 Quadrupole moment (field-independent basis, Debye-Ang):
   XX=           -380.1209   YY=           -425.4397   ZZ=           -403.6078
   XY=             26.2275   XZ=             11.7259   YZ=             -1.3061

 Normal termination of Gaussian 16 at Thu Apr 28 22:42:02 2022.
