 Gaussian 16, Revision A.03,
 Gaussian 16:  ES64L-G16RevA.03 25-Dec-2016

 --------------------
 #p ZINDO=(nstates=5)
 --------------------

 -----------------------------
 step_1751_chromophore_3 ZINDO
 -----------------------------
 Symbolic Z-matrix:
 Charge =  0 Multiplicity = 1

                         Standard orientation:
 ---------------------------------------------------------------------
 Center     Atomic      Atomic             Coordinates (Angstroms)
 Number     Number       Type             X           Y           Z
 ---------------------------------------------------------------------
      1         12           0        5.345008    1.125913    0.047820
      2          6           0        4.444900   -2.226213   -0.035153
      3          6           0        2.052832    1.924863   -0.198608
      4          6           0        6.277838    4.331897   -0.076781
      5          6           0        8.715025    0.137873   -0.241132
      6          7           0        3.418640   -0.067604   -0.307628
      7          6           0        3.328151   -1.385587   -0.089588
      8          6           0        1.876890   -1.780994    0.058626
      9          6           0        1.065376   -0.542585   -0.298697
     10          6           0        2.216640    0.552878   -0.359835
     11          6           0        0.302201   -0.629989   -1.641746
     12          6           0        1.572607   -2.287434    1.480181
     13          6           0        0.950006   -3.640435    1.592314
     14          6           0       -0.124356   -3.880332    0.529531
     15          8           0       -0.011859   -4.564656   -0.444766
     16          8           0       -1.307133   -3.325063    0.911103
     17          7           0        4.288944    2.823826   -0.020081
     18          6           0        2.958822    2.990830    0.034125
     19          6           0        2.611258    4.376390    0.166189
     20          6           0        3.857433    5.109337    0.132671
     21          6           0        4.867237    4.071641   -0.073617
     22          6           0        1.239099    4.864491    0.259774
     23          6           0        4.086004    6.644158    0.389064
     24          8           0        5.170993    7.179972    0.210668
     25          6           0        2.942459    7.474931    0.780918
     26          7           0        7.201553    2.091267   -0.242604
     27          6           0        7.349836    3.426847   -0.092202
     28          6           0        8.797558    3.902840   -0.286701
     29          6           0        9.550390    2.551448   -0.078113
     30          6           0        8.421475    1.518851   -0.155721
     31          6           0        9.040212    4.535001   -1.637990
     32          6           0       10.169807    2.353259    1.378490
     33          6           0       11.598224    1.865272    1.391268
     34          7           0        6.441458   -0.655779   -0.185111
     35          6           0        7.791988   -0.934739   -0.175050
     36          6           0        8.056664   -2.304821   -0.368524
     37          6           0        6.762132   -2.893955   -0.289669
     38          6           0        5.827063   -1.824139   -0.223253
     39          6           0        9.343150   -3.025734   -0.300508
     40          6           0        6.024103   -4.131984   -0.164086
     41          8           0        6.374495   -5.320520   -0.101114
     42          6           0        4.494548   -3.748896    0.041659
     43          6           0        3.733046   -4.357296   -1.131443
     44          8           0        3.977637   -4.084415   -2.304184
     45          8           0        2.936210   -5.404147   -0.765648
     46          6           0        2.370338   -6.229838   -1.826447
     47          6           0       -2.407168   -3.554401   -0.023308
     48          6           0       -3.597203   -3.256021    0.796477
     49          6           0       -4.872678   -3.793356    0.761298
     50          6           0       -5.300173   -4.864877   -0.204852
     51          6           0       -5.881942   -3.199335    1.678236
     52          6           0       -6.937736   -2.360683    0.892372
     53          6           0       -7.273126   -1.025062    1.581790
     54          6           0       -8.600458   -1.065419    2.487981
     55          6           0       -8.513395   -0.459023    3.892777
     56          6           0       -9.547452   -0.242811    1.642575
     57          6           0      -10.115572   -0.897659    0.343160
     58          6           0      -10.213255    0.143407   -0.784638
     59          6           0      -11.694664    0.274640   -1.234957
     60          6           0      -11.979215   -0.187373   -2.595332
     61          6           0      -12.194519    1.708118   -0.873978
     62          6           0      -13.672837    1.824379   -0.276210
     63          6           0      -14.696197    2.439205   -1.213266
     64          6           0      -15.636260    3.447562   -0.526531
     65          6           0      -17.087291    3.056982   -0.505697
     66          6           0      -15.556165    4.867714   -1.078559
     67          1           0        0.987812    2.160593   -0.147183
     68          1           0        6.608278    5.371903   -0.059246
     69          1           0        9.737058   -0.149089   -0.498548
     70          1           0        1.776893   -2.609065   -0.643107
     71          1           0        0.461782   -0.258180    0.562519
     72          1           0        0.248756   -1.677955   -1.937698
     73          1           0        0.904603   -0.200476   -2.442228
     74          1           0       -0.711042   -0.236508   -1.567003
     75          1           0        0.980556   -1.597658    2.082017
     76          1           0        2.500385   -2.291252    2.051638
     77          1           0        0.474385   -3.752754    2.566300
     78          1           0        1.647485   -4.475696    1.535352
     79          1           0        1.035360    5.685442    0.947397
     80          1           0        0.449504    4.116180    0.336226
     81          1           0        1.099117    5.307349   -0.727021
     82          1           0        2.470848    6.979980    1.629164
     83          1           0        2.141832    7.728714    0.086480
     84          1           0        3.298992    8.455579    1.097861
     85          1           0        8.952278    4.760906    0.368418
     86          1           0       10.135541    2.387669   -0.982861
     87          1           0        8.532535    4.049597   -2.471148
     88          1           0       10.094576    4.441911   -1.900829
     89          1           0        8.745891    5.584146   -1.604006
     90          1           0        9.756014    1.518944    1.945039
     91          1           0        9.896784    3.232667    1.962150
     92          1           0       12.018696    1.699820    0.398846
     93          1           0       11.685866    0.902753    1.894280
     94          1           0       12.122382    2.659743    1.922091
     95          1           0        9.296553   -3.881983    0.372468
     96          1           0       10.245508   -2.505374    0.020274
     97          1           0        9.434022   -3.436788   -1.305761
     98          1           0        4.201830   -4.237368    0.971185
     99          1           0        2.033675   -5.489864   -2.552614
    100          1           0        1.544342   -6.812523   -1.417886
    101          1           0        3.168339   -6.776506   -2.328666
    102          1           0       -2.439985   -4.557118   -0.448642
    103          1           0       -2.290748   -2.886788   -0.877885
    104          1           0       -3.410344   -2.542467    1.599884
    105          1           0       -5.914280   -5.598785    0.318146
    106          1           0       -4.454534   -5.290136   -0.746387
    107          1           0       -5.913560   -4.358105   -0.949461
    108          1           0       -5.462409   -2.705523    2.554810
    109          1           0       -6.531466   -3.983785    2.065757
    110          1           0       -7.893884   -2.866734    0.758351
    111          1           0       -6.513382   -2.186676   -0.096186
    112          1           0       -7.361333   -0.274493    0.795295
    113          1           0       -6.423888   -0.688738    2.176788
    114          1           0       -8.846241   -2.123745    2.406669
    115          1           0       -8.750096   -1.248663    4.606597
    116          1           0       -9.179573    0.390060    4.048152
    117          1           0       -7.541997   -0.052886    4.174194
    118          1           0       -9.024987    0.705495    1.522417
    119          1           0      -10.480889   -0.088369    2.184187
    120          1           0      -11.000921   -1.463430    0.630478
    121          1           0       -9.345788   -1.606342    0.038339
    122          1           0       -9.675203   -0.248398   -1.648943
    123          1           0       -9.817785    1.147623   -0.631946
    124          1           0      -12.366984   -0.416469   -0.726607
    125          1           0      -11.375538    0.374996   -3.307820
    126          1           0      -13.022691   -0.144286   -2.908547
    127          1           0      -11.639890   -1.200384   -2.812706
    128          1           0      -12.107888    2.403391   -1.709858
    129          1           0      -11.427889    2.205321   -0.278961
    130          1           0      -13.555620    2.268266    0.711900
    131          1           0      -13.951274    0.775364   -0.176171
    132          1           0      -15.184997    1.609568   -1.722269
    133          1           0      -14.250888    3.094577   -1.962178
    134          1           0      -15.403243    3.564493    0.531862
    135          1           0      -17.163960    2.088619   -1.000802
    136          1           0      -17.792659    3.778296   -0.917858
    137          1           0      -17.380940    2.886664    0.529845
    138          1           0      -16.313222    5.589614   -0.774296
    139          1           0      -15.636378    4.985241   -2.158895
    140          1           0      -14.608991    5.324664   -0.791209
 ---------------------------------------------------------------------

 SCF Done:  E(RZINDO/S) =  -474.733216693     A.U. after   19 cycles

 Excitation energies and oscillator strengths:

 Excited State   1:      Singlet-A      1.2250 eV 1012.12 nm  f=0.5865  <S**2>=0.000
     175 ->178         0.20204
     176 ->177         0.65924
 This state for optimization and/or second-order correction.
 Total Energy, E(CIS/TDA) =  -474.688199121
 Copying the excited state density for this state as the 1-particle RhoCI density.

 Excited State   2:      Singlet-A      1.8373 eV  674.83 nm  f=0.1209  <S**2>=0.000
     175 ->177         0.59132
     176 ->178        -0.36009

 Excited State   3:      Singlet-A      2.9519 eV  420.01 nm  f=0.0205  <S**2>=0.000
     169 ->177         0.33041
     169 ->179        -0.31438
     169 ->180         0.25299
     169 ->186        -0.15275
     169 ->187         0.13617
     170 ->177         0.19054
     170 ->179        -0.18093
     170 ->180         0.13812

 Excited State   4:      Singlet-A      3.0000 eV  413.28 nm  f=0.9294  <S**2>=0.000
     172 ->177        -0.16008
     175 ->177         0.31121
     176 ->178         0.54857

 Excited State   5:      Singlet-A      3.0652 eV  404.49 nm  f=0.0209  <S**2>=0.000
     168 ->177         0.22794
     168 ->178         0.15522
     168 ->179         0.33831
     168 ->180         0.34769
     168 ->186         0.23231
     168 ->187         0.10871
     172 ->177        -0.12768
     176 ->179        -0.14928

 The electronic state is 1-A.
 Alpha  occ. eigenvalues --   -1.85150  -1.82362  -1.82125  -1.76044  -1.72380
 Alpha  occ. eigenvalues --   -1.71745  -1.67226  -1.61972  -1.59034  -1.57560
 Alpha  occ. eigenvalues --   -1.56834  -1.53402  -1.49804  -1.46935  -1.46707
 Alpha  occ. eigenvalues --   -1.45483  -1.42262  -1.40523  -1.40227  -1.37183
 Alpha  occ. eigenvalues --   -1.35722  -1.34311  -1.33761  -1.32639  -1.29607
 Alpha  occ. eigenvalues --   -1.28910  -1.24841  -1.22783  -1.21271  -1.17952
 Alpha  occ. eigenvalues --   -1.16544  -1.16266  -1.15689  -1.14469  -1.14212
 Alpha  occ. eigenvalues --   -1.12714  -1.10688  -1.10230  -1.05442  -1.03137
 Alpha  occ. eigenvalues --   -1.02845  -1.01788  -0.99522  -0.98007  -0.97199
 Alpha  occ. eigenvalues --   -0.95437  -0.94858  -0.92942  -0.92891  -0.92252
 Alpha  occ. eigenvalues --   -0.91501  -0.90786  -0.90202  -0.89138  -0.88647
 Alpha  occ. eigenvalues --   -0.86583  -0.86508  -0.83108  -0.82305  -0.80783
 Alpha  occ. eigenvalues --   -0.80307  -0.78951  -0.76890  -0.76574  -0.75694
 Alpha  occ. eigenvalues --   -0.75081  -0.74670  -0.74153  -0.73700  -0.73097
 Alpha  occ. eigenvalues --   -0.72577  -0.72259  -0.71813  -0.71406  -0.71366
 Alpha  occ. eigenvalues --   -0.70294  -0.69773  -0.69542  -0.69138  -0.68573
 Alpha  occ. eigenvalues --   -0.67203  -0.66658  -0.66338  -0.66158  -0.65900
 Alpha  occ. eigenvalues --   -0.65165  -0.64583  -0.63995  -0.63844  -0.63528
 Alpha  occ. eigenvalues --   -0.63374  -0.63031  -0.62676  -0.62371  -0.61984
 Alpha  occ. eigenvalues --   -0.61646  -0.61245  -0.60656  -0.60531  -0.60318
 Alpha  occ. eigenvalues --   -0.59427  -0.59002  -0.58601  -0.58213  -0.58091
 Alpha  occ. eigenvalues --   -0.57937  -0.57377  -0.57187  -0.56871  -0.56433
 Alpha  occ. eigenvalues --   -0.55873  -0.55685  -0.55310  -0.54953  -0.54451
 Alpha  occ. eigenvalues --   -0.54005  -0.53797  -0.53452  -0.53293  -0.53228
 Alpha  occ. eigenvalues --   -0.52651  -0.52370  -0.52276  -0.52001  -0.51345
 Alpha  occ. eigenvalues --   -0.51173  -0.50945  -0.50762  -0.50043  -0.49773
 Alpha  occ. eigenvalues --   -0.49682  -0.49277  -0.49060  -0.48900  -0.48600
 Alpha  occ. eigenvalues --   -0.48492  -0.48327  -0.48045  -0.47868  -0.47529
 Alpha  occ. eigenvalues --   -0.46946  -0.46875  -0.46500  -0.46290  -0.46150
 Alpha  occ. eigenvalues --   -0.45915  -0.45527  -0.45429  -0.45157  -0.44836
 Alpha  occ. eigenvalues --   -0.44745  -0.44264  -0.44209  -0.44069  -0.43678
 Alpha  occ. eigenvalues --   -0.43234  -0.42700  -0.42560  -0.42144  -0.41919
 Alpha  occ. eigenvalues --   -0.41591  -0.40723  -0.40363  -0.38455  -0.38122
 Alpha  occ. eigenvalues --   -0.37330  -0.36834  -0.35581  -0.34613  -0.34396
 Alpha  occ. eigenvalues --   -0.32640  -0.32261  -0.31636  -0.31315  -0.25835
 Alpha  occ. eigenvalues --   -0.21793
 Alpha virt. eigenvalues --   -0.08626  -0.01653  -0.00232   0.01498   0.02291
 Alpha virt. eigenvalues --    0.02491   0.03267   0.03346   0.04384   0.04916
 Alpha virt. eigenvalues --    0.06379   0.07345   0.07591   0.08236   0.08403

 Mulliken charges:
               1
     1  Mg   0.429227
     2  C   -0.063604
     3  C   -0.079360
     4  C   -0.066223
     5  C   -0.075634
     6  N   -0.290585
     7  C    0.145038
     8  C    0.014244
     9  C    0.007292
    10  C    0.115217
    11  C   -0.049248
    12  C   -0.014378
    13  C    0.009439
    14  C    0.468294
    15  O   -0.514495
    16  O   -0.273571
    17  N   -0.309240
    18  C    0.114950
    19  C    0.006253
    20  C   -0.069637
    21  C    0.123211
    22  C   -0.041850
    23  C    0.339287
    24  O   -0.516520
    25  C   -0.027687
    26  N   -0.255148
    27  C    0.117454
    28  C    0.002016
    29  C   -0.001125
    30  C    0.132867
    31  C   -0.045300
    32  C   -0.029382
    33  C   -0.053289
    34  N   -0.324129
    35  C    0.093860
    36  C    0.046162
    37  C   -0.058533
    38  C    0.131329
    39  C   -0.036037
    40  C    0.332844
    41  O   -0.532327
    42  C    0.053476
    43  C    0.482790
    44  O   -0.528485
    45  O   -0.271079
    46  C    0.075472
    47  C    0.112942
    48  C   -0.107549
    49  C   -0.005117
    50  C   -0.039657
    51  C   -0.018357
    52  C   -0.032377
    53  C   -0.043595
    54  C   -0.015298
    55  C   -0.050819
    56  C   -0.036654
    57  C   -0.037864
    58  C   -0.030041
    59  C   -0.007080
    60  C   -0.045628
    61  C   -0.052521
    62  C   -0.037782
    63  C   -0.023776
    64  C   -0.003150
    65  C   -0.056759
    66  C   -0.055324
    67  H    0.012173
    68  H    0.046027
    69  H    0.027022
    70  H    0.046812
    71  H    0.030520
    72  H    0.023062
    73  H    0.030951
    74  H    0.025187
    75  H    0.023702
    76  H    0.014952
    77  H    0.029609
    78  H    0.040931
    79  H    0.029934
    80  H    0.025674
    81  H    0.026813
    82  H    0.029355
    83  H    0.045709
    84  H    0.029716
    85  H    0.035192
    86  H    0.044865
    87  H    0.021833
    88  H    0.012696
    89  H    0.024688
    90  H    0.023722
    91  H    0.028452
    92  H    0.021040
    93  H    0.021018
    94  H    0.020840
    95  H    0.031685
    96  H    0.024771
    97  H    0.038775
    98  H    0.054950
    99  H    0.043419
   100  H    0.045168
   101  H    0.047829
   102  H    0.054369
   103  H    0.045060
   104  H    0.025155
   105  H    0.030942
   106  H    0.028516
   107  H    0.027735
   108  H    0.031404
   109  H    0.011800
   110  H    0.025270
   111  H    0.017267
   112  H    0.015909
   113  H    0.012492
   114  H    0.028970
   115  H    0.016304
   116  H    0.021474
   117  H    0.018524
   118  H    0.025531
   119  H   -0.000562
   120  H    0.032861
   121  H    0.013904
   122  H    0.010258
   123  H    0.033231
   124  H    0.016630
   125  H    0.005854
   126  H    0.016354
   127  H    0.010289
   128  H    0.011411
   129  H    0.014933
   130  H    0.027623
   131  H    0.016584
   132  H    0.026700
   133  H    0.020292
   134  H    0.017802
   135  H    0.013770
   136  H    0.023888
   137  H    0.010449
   138  H    0.013873
   139  H    0.015298
   140  H    0.005297
 Sum of Mulliken charges =  -0.00000

 Dipole moment (field-independent basis, Debye):
    X=             -5.8504    Y=              4.0942    Z=              5.1776  Tot=              8.8202
 N-N= 4.290149228883D+03 E-N= 0.000000000000D+00  KE=-9.255375859638D+03
 Leave Link  601 at Thu Apr 28 22:53:33 2022, MaxMem=  6710886400 cpu:               0.8 elap:               0.0
 (Enter /sw/apps/gaussian-16.0/g16/l9999.exe)
 1\1\GINC-BP1-COMPUTE161\SP\RZINDO CIS\STO-3G\C55H74Mg1N4O6\OF15641\28-
 Apr-2022\0\\#p ZINDO=(nstates=5)\\step_1751_chromophore_3 ZINDO\\0,1\M
 g,0,0.711,7.963,25.875\C,0,1.455,9.946,28.626\C,0,1.152,5.227,27.839\C
 ,0,0.192,6.099,23.151\C,0,0.819,10.858,23.869\N,0,1.459,7.619,28.016\C
 ,0,1.479,8.584,28.944\C,0,1.549,7.967,30.322\C,0,1.771,6.476,30.104\C,
 0,1.527,6.371,28.536\C,0,3.18,5.965,30.488\C,0,0.273,8.254,31.134\C,0,
 0.457,8.898,32.469\C,0,1.649,8.323,33.237\O,0,2.709,8.854,33.394\O,0,1

 Normal termination of Gaussian 16 at Thu Apr 28 22:53:33 2022.
