 Gaussian 16, Revision A.03,
 Gaussian 16:  ES64L-G16RevA.03 25-Dec-2016

 ------------------------------
 #p blyp/Def2SVP td=(nstates=5)
 ------------------------------

 --------------------------------------------------
 step_751_chromophore_16 TDDFT with blyp functional
 --------------------------------------------------
 Symbolic Z-matrix:
 Charge =  0 Multiplicity = 1

                         Standard orientation:
 ---------------------------------------------------------------------
 Center     Atomic      Atomic             Coordinates (Angstroms)
 Number     Number       Type             X           Y           Z
 ---------------------------------------------------------------------
      1         12           0        5.864188    0.645586   -0.060225
      2          6           0        3.969765   -2.318614    0.097298
      3          6           0        3.168768    2.329575   -1.205526
      4          6           0        7.872057    3.402577   -0.345646
      5          6           0        8.551844   -1.238245    0.973992
      6          7           0        3.782681    0.052752   -0.581838
      7          6           0        3.226329   -1.231883   -0.378330
      8          6           0        1.746574   -1.192881   -0.754247
      9          6           0        1.544605    0.349569   -1.134701
     10          6           0        2.881671    0.989244   -0.959193
     11          6           0        1.039152    0.558306   -2.630598
     12          6           0        0.717797   -1.523851    0.392733
     13          6           0       -0.773752   -1.164413    0.476544
     14          6           0       -1.810224   -2.241154    0.747422
     15          8           0       -2.167161   -2.503859    1.900665
     16          8           0       -2.296793   -2.759045   -0.442679
     17          7           0        5.598487    2.563594   -0.749420
     18          6           0        4.372450    3.007377   -1.121342
     19          6           0        4.528983    4.438240   -1.335956
     20          6           0        5.866061    4.750746   -1.208752
     21          6           0        6.516132    3.615138   -0.736442
     22          6           0        3.386867    5.392989   -1.632963
     23          6           0        6.532994    6.088922   -1.423498
     24          8           0        7.766411    6.274665   -1.237823
     25          6           0        5.745539    7.223228   -1.911617
     26          7           0        7.835613    1.075094    0.376887
     27          6           0        8.471860    2.252378    0.151846
     28          6           0        9.897286    2.226064    0.758725
     29          6           0       10.119995    0.794226    1.098858
     30          6           0        8.755651    0.146595    0.824100
     31          6           0       10.944031    2.852638   -0.297133
     32          6           0       10.728324    0.532143    2.527644
     33          6           0        9.869101    0.974123    3.728750
     34          7           0        6.304979   -1.390997    0.462989
     35          6           0        7.446672   -2.023505    0.820113
     36          6           0        7.226769   -3.440428    1.017011
     37          6           0        5.832005   -3.576943    0.776521
     38          6           0        5.374276   -2.323621    0.421296
     39          6           0        8.161625   -4.555980    1.407851
     40          6           0        4.753369   -4.553223    0.818480
     41          8           0        4.679817   -5.723567    0.993655
     42          6           0        3.482353   -3.718926    0.489257
     43          6           0        2.808757   -4.308175   -0.638573
     44          8           0        3.199273   -4.316645   -1.765643
     45          8           0        1.652961   -4.966187   -0.215572
     46          6           0        0.731734   -5.641018   -1.150166
     47          6           0       -3.424386   -3.733641   -0.237485
     48          6           0       -4.766729   -3.039241   -0.201403
     49          6           0       -5.964503   -3.464542   -0.695744
     50          6           0       -6.099620   -4.626336   -1.660633
     51          6           0       -7.252832   -2.637992   -0.337504
     52          6           0       -7.817860   -1.702718   -1.442577
     53          6           0       -8.815556   -0.656605   -0.859036
     54          6           0      -10.279683   -0.742923   -1.406743
     55          6           0      -10.307484   -0.172730   -2.851045
     56          6           0      -11.274767   -0.076314   -0.517044
     57          6           0      -12.791462   -0.324261   -0.844158
     58          6           0      -13.481391    1.098440   -0.979139
     59          6           0      -14.411014    1.354113    0.315667
     60          6           0      -15.891722    1.021500   -0.007770
     61          6           0      -14.183756    2.794743    0.930603
     62          6           0      -13.366009    2.801173    2.239632
     63          6           0      -12.245058    3.834752    2.331071
     64          6           0      -10.839541    3.266318    2.797400
     65          6           0       -9.775822    3.222907    1.659141
     66          6           0      -10.270438    4.005491    4.032923
     67          1           0        2.273251    2.915857   -1.423722
     68          1           0        8.618312    4.180432   -0.522574
     69          1           0        9.391676   -1.804304    1.379855
     70          1           0        1.563195   -1.864462   -1.593131
     71          1           0        0.801051    0.781262   -0.464832
     72          1           0        1.800540    1.004373   -3.270859
     73          1           0        0.156158    1.197983   -2.609192
     74          1           0        0.791079   -0.381849   -3.122253
     75          1           0        1.162568   -1.442601    1.384460
     76          1           0        0.691575   -2.606942    0.272077
     77          1           0       -0.858498   -0.845277   -0.561987
     78          1           0       -1.020339   -0.406421    1.220919
     79          1           0        3.142947    6.211126   -0.955673
     80          1           0        2.413797    4.904024   -1.587173
     81          1           0        3.458239    5.858604   -2.616129
     82          1           0        5.416021    6.980624   -2.921803
     83          1           0        6.437814    8.064876   -1.935802
     84          1           0        4.991775    7.623418   -1.232729
     85          1           0        9.894051    2.896641    1.618479
     86          1           0       10.799625    0.382086    0.352305
     87          1           0       11.793034    2.222705   -0.560477
     88          1           0       11.442326    3.674660    0.218253
     89          1           0       10.473171    3.117711   -1.244304
     90          1           0       11.613505    1.168070    2.514390
     91          1           0       10.984653   -0.516378    2.676383
     92          1           0        9.985321    0.156287    4.439397
     93          1           0        8.864299    1.271982    3.428740
     94          1           0       10.413673    1.809929    4.168701
     95          1           0        8.983364   -4.130682    1.984121
     96          1           0        8.619243   -5.043296    0.547557
     97          1           0        7.723711   -5.257810    2.117869
     98          1           0        2.785527   -3.890448    1.310147
     99          1           0        0.901886   -5.208006   -2.136396
    100          1           0       -0.332073   -5.480896   -0.977891
    101          1           0        1.006668   -6.695520   -1.152609
    102          1           0       -3.290762   -4.285574    0.693076
    103          1           0       -3.334902   -4.419246   -1.080706
    104          1           0       -4.688113   -2.150724    0.426546
    105          1           0       -7.114896   -5.020805   -1.682698
    106          1           0       -5.467969   -5.457573   -1.348265
    107          1           0       -5.911934   -4.436306   -2.717674
    108          1           0       -6.985003   -1.968145    0.479376
    109          1           0       -8.032244   -3.379288   -0.155785
    110          1           0       -8.488543   -2.225823   -2.125186
    111          1           0       -7.039905   -1.201690   -2.018357
    112          1           0       -8.254860    0.267389   -1.003099
    113          1           0       -8.850144   -0.920863    0.197405
    114          1           0      -10.537612   -1.781976   -1.613574
    115          1           0      -10.787220   -0.898847   -3.507270
    116          1           0       -9.317620    0.109811   -3.210785
    117          1           0      -10.944362    0.712214   -2.843029
    118          1           0      -10.992894    0.962918   -0.344354
    119          1           0      -11.137427   -0.614534    0.420384
    120          1           0      -13.086067   -0.866155    0.055071
    121          1           0      -12.925345   -1.022729   -1.670701
    122          1           0      -14.069233    1.158674   -1.895632
    123          1           0      -12.716293    1.874809   -1.000774
    124          1           0      -14.089329    0.629092    1.062523
    125          1           0      -16.511235    0.708670    0.833709
    126          1           0      -15.849379    0.156307   -0.668686
    127          1           0      -16.292972    1.838855   -0.606438
    128          1           0      -15.147841    3.302056    0.949159
    129          1           0      -13.740629    3.371769    0.119083
    130          1           0      -13.015954    1.825896    2.577445
    131          1           0      -14.085704    3.111656    2.996218
    132          1           0      -12.568537    4.601016    3.035593
    133          1           0      -12.198464    4.264263    1.330455
    134          1           0      -10.959416    2.251509    3.177240
    135          1           0       -9.325433    2.231853    1.713475
    136          1           0       -9.014713    4.001639    1.717083
    137          1           0      -10.225127    3.332091    0.672729
    138          1           0      -10.350228    3.335785    4.888648
    139          1           0      -10.831071    4.907524    4.279963
    140          1           0       -9.269126    4.393572    3.845786
 ---------------------------------------------------------------------

 SCF Done:  E(RB-LYP) =  -3007.37168681     A.U. after   20 cycles

 Excitation energies and oscillator strengths:

 Excited State   1:      Singlet-A      1.8206 eV  680.99 nm  f=0.3014  <S**2>=0.000
     245 -> 248       -0.16675
     246 -> 247        0.69169
     246 <- 247       -0.15400
 This state for optimization and/or second-order correction.
 Total Energy, E(TD-HF/TD-DFT) =  -3007.30477925
 Copying the excited state density for this state as the 1-particle RhoCI density.

 Excited State   2:      Singlet-A      1.9216 eV  645.20 nm  f=0.0060  <S**2>=0.000
     244 -> 247        0.69080
     245 -> 247        0.13237

 Excited State   3:      Singlet-A      2.0051 eV  618.36 nm  f=0.0542  <S**2>=0.000
     243 -> 247        0.41851
     244 -> 247       -0.13210
     245 -> 247        0.52083
     246 -> 248        0.15947

 Excited State   4:      Singlet-A      2.1135 eV  586.62 nm  f=0.0304  <S**2>=0.000
     243 -> 247        0.56505
     245 -> 247       -0.37046
     246 -> 248       -0.16533

 Excited State   5:      Singlet-A      2.4229 eV  511.71 nm  f=0.0001  <S**2>=0.000
     242 -> 247        0.70339

 The electronic state is 1-A.
 Alpha  occ. eigenvalues --  -46.26673 -18.82941 -18.80782 -18.77201 -18.76156
 Alpha  occ. eigenvalues --  -18.76069 -18.75517 -14.03404 -14.03094 -14.00861
 Alpha  occ. eigenvalues --  -14.00460 -10.04404 -10.02904  -9.99815  -9.99583
 Alpha  occ. eigenvalues --   -9.98292  -9.97483  -9.97019  -9.96502  -9.96373
 Alpha  occ. eigenvalues --   -9.96083  -9.95649  -9.95598  -9.94806  -9.94678
 Alpha  occ. eigenvalues --   -9.94199  -9.94103  -9.94020  -9.93923  -9.93787
 Alpha  occ. eigenvalues --   -9.93716  -9.93624  -9.93576  -9.93262  -9.93015
 Alpha  occ. eigenvalues --   -9.92933  -9.92858  -9.92829  -9.92806  -9.92774
 Alpha  occ. eigenvalues --   -9.92730  -9.92567  -9.92425  -9.92344  -9.92168
 Alpha  occ. eigenvalues --   -9.92166  -9.92131  -9.91990  -9.91981  -9.91969
 Alpha  occ. eigenvalues --   -9.91825  -9.91804  -9.91743  -9.91680  -9.91652
 Alpha  occ. eigenvalues --   -9.91593  -9.91214  -9.91003  -9.90960  -9.90889
 Alpha  occ. eigenvalues --   -9.90888  -9.90873  -9.90840  -9.90705  -9.90593
 Alpha  occ. eigenvalues --   -9.90567  -2.91327  -1.71772  -1.71161  -1.71071
 Alpha  occ. eigenvalues --   -0.97057  -0.97001  -0.93524  -0.89833  -0.89806
 Alpha  occ. eigenvalues --   -0.89649  -0.87453  -0.86167  -0.85558  -0.84856
 Alpha  occ. eigenvalues --   -0.75715  -0.73455  -0.72705  -0.72439  -0.72259
 Alpha  occ. eigenvalues --   -0.71765  -0.71691  -0.70975  -0.70573  -0.70277
 Alpha  occ. eigenvalues --   -0.69933  -0.68995  -0.68259  -0.67771  -0.67215
 Alpha  occ. eigenvalues --   -0.66374  -0.66043  -0.65627  -0.65123  -0.64930
 Alpha  occ. eigenvalues --   -0.63959  -0.63074  -0.62408  -0.61812  -0.60907
 Alpha  occ. eigenvalues --   -0.60468  -0.59916  -0.59858  -0.59379  -0.59118
 Alpha  occ. eigenvalues --   -0.58162  -0.57729  -0.57117  -0.55844  -0.54981
 Alpha  occ. eigenvalues --   -0.54535  -0.54030  -0.52908  -0.52027  -0.51358
 Alpha  occ. eigenvalues --   -0.51071  -0.50621  -0.50492  -0.50199  -0.49856
 Alpha  occ. eigenvalues --   -0.49158  -0.49053  -0.48777  -0.48107  -0.47231
 Alpha  occ. eigenvalues --   -0.47103  -0.46278  -0.46100  -0.45635  -0.44457
 Alpha  occ. eigenvalues --   -0.44076  -0.43465  -0.43142  -0.42793  -0.42575
 Alpha  occ. eigenvalues --   -0.42183  -0.42093  -0.41819  -0.41633  -0.40888
 Alpha  occ. eigenvalues --   -0.40771  -0.40596  -0.40546  -0.40083  -0.39932
 Alpha  occ. eigenvalues --   -0.39830  -0.39685  -0.39549  -0.39269  -0.39141
 Alpha  occ. eigenvalues --   -0.38922  -0.38623  -0.38528  -0.38493  -0.38395
 Alpha  occ. eigenvalues --   -0.38049  -0.37735  -0.37483  -0.37392  -0.37245
 Alpha  occ. eigenvalues --   -0.36937  -0.36862  -0.36680  -0.36414  -0.36403
 Alpha  occ. eigenvalues --   -0.36283  -0.36047  -0.35982  -0.35892  -0.35768
 Alpha  occ. eigenvalues --   -0.35536  -0.35185  -0.34880  -0.34799  -0.34699
 Alpha  occ. eigenvalues --   -0.34582  -0.34544  -0.34322  -0.34231  -0.33967
 Alpha  occ. eigenvalues --   -0.33852  -0.33710  -0.33604  -0.33417  -0.33210
 Alpha  occ. eigenvalues --   -0.33058  -0.32913  -0.32549  -0.32178  -0.32045
 Alpha  occ. eigenvalues --   -0.31958  -0.31890  -0.31610  -0.31587  -0.31486
 Alpha  occ. eigenvalues --   -0.31372  -0.31265  -0.31042  -0.30825  -0.30811
 Alpha  occ. eigenvalues --   -0.30622  -0.30441  -0.30215  -0.29642  -0.29548
 Alpha  occ. eigenvalues --   -0.29450  -0.29347  -0.29128  -0.28944  -0.28755
 Alpha  occ. eigenvalues --   -0.28670  -0.28158  -0.28057  -0.27962  -0.27817
 Alpha  occ. eigenvalues --   -0.27358  -0.27123  -0.26806  -0.26657  -0.26347
 Alpha  occ. eigenvalues --   -0.26246  -0.26149  -0.25886  -0.25640  -0.25436
 Alpha  occ. eigenvalues --   -0.25210  -0.24762  -0.24435  -0.24233  -0.23723
 Alpha  occ. eigenvalues --   -0.23548  -0.22175  -0.21829  -0.21582  -0.21098
 Alpha  occ. eigenvalues --   -0.20628  -0.20549  -0.19157  -0.18646  -0.17416
 Alpha  occ. eigenvalues --   -0.15901
 Alpha virt. eigenvalues --   -0.11647  -0.06818  -0.06031  -0.04775  -0.03632
 Alpha virt. eigenvalues --   -0.02836  -0.01945  -0.01719  -0.01010   0.00129
 Alpha virt. eigenvalues --    0.01193   0.01343   0.02309   0.02394   0.02469

 Mulliken charges:
               1
     1  Mg   0.688737
     2  C    0.042615
     3  C   -0.085689
     4  C   -0.041246
     5  C   -0.095339
     6  N   -0.239296
     7  C   -0.066603
     8  C    0.036295
     9  C   -0.001026
    10  C    0.015793
    11  C    0.103505
    12  C    0.039756
    13  C    0.184417
    14  C    0.077292
    15  O   -0.204195
    16  O   -0.287250
    17  N   -0.305912
    18  C    0.204565
    19  C   -0.132345
    20  C    0.103935
    21  C    0.089073
    22  C    0.164313
    23  C   -0.094652
    24  O   -0.191007
    25  C    0.158814
    26  N   -0.234648
    27  C    0.009616
    28  C   -0.026581
    29  C    0.113711
    30  C    0.027717
    31  C    0.102958
    32  C    0.049551
    33  C    0.078720
    34  N   -0.200232
    35  C    0.108288
    36  C   -0.160958
    37  C    0.043476
    38  C    0.076600
    39  C    0.174603
    40  C   -0.044874
    41  O   -0.077675
    42  C    0.072587
    43  C    0.059814
    44  O   -0.145177
    45  O   -0.301204
    46  C    0.209225
    47  C    0.303600
    48  C   -0.097654
    49  C   -0.118776
    50  C    0.122438
    51  C    0.132670
    52  C    0.059722
    53  C    0.076777
    54  C   -0.081179
    55  C    0.106047
    56  C    0.076531
    57  C    0.088805
    58  C    0.090506
    59  C   -0.104269
    60  C    0.110927
    61  C    0.112372
    62  C    0.088260
    63  C    0.114472
    64  C   -0.106873
    65  C    0.089534
    66  C    0.095669
    67  H   -0.069089
    68  H   -0.042648
    69  H   -0.077759
    70  H   -0.001529
    71  H   -0.011372
    72  H   -0.000201
    73  H   -0.004615
    74  H   -0.005967
    75  H   -0.019275
    76  H   -0.017026
    77  H   -0.025961
    78  H    0.004194
    79  H   -0.005815
    80  H   -0.036264
    81  H   -0.005507
    82  H    0.015184
    83  H   -0.020590
    84  H    0.007109
    85  H   -0.006254
    86  H   -0.033144
    87  H   -0.018943
    88  H   -0.009277
    89  H    0.014535
    90  H   -0.020665
    91  H   -0.012926
    92  H   -0.007726
    93  H    0.016399
    94  H   -0.015413
    95  H   -0.029513
    96  H    0.014556
    97  H    0.008993
    98  H   -0.006429
    99  H    0.005194
   100  H    0.018266
   101  H    0.026141
   102  H    0.016578
   103  H   -0.010687
   104  H   -0.026660
   105  H   -0.025008
   106  H   -0.002324
   107  H    0.012091
   108  H   -0.016067
   109  H   -0.020883
   110  H   -0.041238
   111  H   -0.027776
   112  H   -0.020273
   113  H   -0.038786
   114  H   -0.046454
   115  H   -0.018628
   116  H   -0.013535
   117  H   -0.023722
   118  H   -0.016108
   119  H   -0.044410
   120  H   -0.024610
   121  H   -0.030584
   122  H   -0.031275
   123  H   -0.017621
   124  H   -0.033796
   125  H   -0.008691
   126  H   -0.028393
   127  H   -0.013271
   128  H   -0.048677
   129  H   -0.046623
   130  H   -0.022860
   131  H   -0.035472
   132  H   -0.034782
   133  H   -0.033920
   134  H   -0.028529
   135  H   -0.005327
   136  H   -0.013336
   137  H   -0.010891
   138  H   -0.009850
   139  H   -0.024815
   140  H   -0.019098
 Sum of Mulliken charges =  -0.00000

 Dipole moment (field-independent basis, Debye):
    X=             -3.1066    Y=              2.3953    Z=             -0.6650  Tot=              3.9788
 Quadrupole moment (field-independent basis, Debye-Ang):
   XX=           -375.0254   YY=           -422.7024   ZZ=           -409.4957
   XY=              8.0072   XZ=             23.0989   YZ=              7.1402

 Normal termination of Gaussian 16 at Thu May  5 08:14:09 2022.
