 Gaussian 16, Revision A.03,
 Gaussian 16:  ES64L-G16RevA.03 25-Dec-2016

 -----------------------------------
 #p cam-b3lyp/Def2SVP td=(nstates=5)
 -----------------------------------

 -------------------------------------------------------
 step_751_chromophore_16 TDDFT with cam-b3lyp functional
 -------------------------------------------------------
 Symbolic Z-matrix:
 Charge =  0 Multiplicity = 1

                         Standard orientation:
 ---------------------------------------------------------------------
 Center     Atomic      Atomic             Coordinates (Angstroms)
 Number     Number       Type             X           Y           Z
 ---------------------------------------------------------------------
      1         12           0        5.864188    0.645586   -0.060225
      2          6           0        3.969765   -2.318614    0.097298
      3          6           0        3.168768    2.329575   -1.205526
      4          6           0        7.872057    3.402577   -0.345646
      5          6           0        8.551844   -1.238245    0.973992
      6          7           0        3.782681    0.052752   -0.581838
      7          6           0        3.226329   -1.231883   -0.378330
      8          6           0        1.746574   -1.192881   -0.754247
      9          6           0        1.544605    0.349569   -1.134701
     10          6           0        2.881671    0.989244   -0.959193
     11          6           0        1.039152    0.558306   -2.630598
     12          6           0        0.717797   -1.523851    0.392733
     13          6           0       -0.773752   -1.164413    0.476544
     14          6           0       -1.810224   -2.241154    0.747422
     15          8           0       -2.167161   -2.503859    1.900665
     16          8           0       -2.296793   -2.759045   -0.442679
     17          7           0        5.598487    2.563594   -0.749420
     18          6           0        4.372450    3.007377   -1.121342
     19          6           0        4.528983    4.438240   -1.335956
     20          6           0        5.866061    4.750746   -1.208752
     21          6           0        6.516132    3.615138   -0.736442
     22          6           0        3.386867    5.392989   -1.632963
     23          6           0        6.532994    6.088922   -1.423498
     24          8           0        7.766411    6.274665   -1.237823
     25          6           0        5.745539    7.223228   -1.911617
     26          7           0        7.835613    1.075094    0.376887
     27          6           0        8.471860    2.252378    0.151846
     28          6           0        9.897286    2.226064    0.758725
     29          6           0       10.119995    0.794226    1.098858
     30          6           0        8.755651    0.146595    0.824100
     31          6           0       10.944031    2.852638   -0.297133
     32          6           0       10.728324    0.532143    2.527644
     33          6           0        9.869101    0.974123    3.728750
     34          7           0        6.304979   -1.390997    0.462989
     35          6           0        7.446672   -2.023505    0.820113
     36          6           0        7.226769   -3.440428    1.017011
     37          6           0        5.832005   -3.576943    0.776521
     38          6           0        5.374276   -2.323621    0.421296
     39          6           0        8.161625   -4.555980    1.407851
     40          6           0        4.753369   -4.553223    0.818480
     41          8           0        4.679817   -5.723567    0.993655
     42          6           0        3.482353   -3.718926    0.489257
     43          6           0        2.808757   -4.308175   -0.638573
     44          8           0        3.199273   -4.316645   -1.765643
     45          8           0        1.652961   -4.966187   -0.215572
     46          6           0        0.731734   -5.641018   -1.150166
     47          6           0       -3.424386   -3.733641   -0.237485
     48          6           0       -4.766729   -3.039241   -0.201403
     49          6           0       -5.964503   -3.464542   -0.695744
     50          6           0       -6.099620   -4.626336   -1.660633
     51          6           0       -7.252832   -2.637992   -0.337504
     52          6           0       -7.817860   -1.702718   -1.442577
     53          6           0       -8.815556   -0.656605   -0.859036
     54          6           0      -10.279683   -0.742923   -1.406743
     55          6           0      -10.307484   -0.172730   -2.851045
     56          6           0      -11.274767   -0.076314   -0.517044
     57          6           0      -12.791462   -0.324261   -0.844158
     58          6           0      -13.481391    1.098440   -0.979139
     59          6           0      -14.411014    1.354113    0.315667
     60          6           0      -15.891722    1.021500   -0.007770
     61          6           0      -14.183756    2.794743    0.930603
     62          6           0      -13.366009    2.801173    2.239632
     63          6           0      -12.245058    3.834752    2.331071
     64          6           0      -10.839541    3.266318    2.797400
     65          6           0       -9.775822    3.222907    1.659141
     66          6           0      -10.270438    4.005491    4.032923
     67          1           0        2.273251    2.915857   -1.423722
     68          1           0        8.618312    4.180432   -0.522574
     69          1           0        9.391676   -1.804304    1.379855
     70          1           0        1.563195   -1.864462   -1.593131
     71          1           0        0.801051    0.781262   -0.464832
     72          1           0        1.800540    1.004373   -3.270859
     73          1           0        0.156158    1.197983   -2.609192
     74          1           0        0.791079   -0.381849   -3.122253
     75          1           0        1.162568   -1.442601    1.384460
     76          1           0        0.691575   -2.606942    0.272077
     77          1           0       -0.858498   -0.845277   -0.561987
     78          1           0       -1.020339   -0.406421    1.220919
     79          1           0        3.142947    6.211126   -0.955673
     80          1           0        2.413797    4.904024   -1.587173
     81          1           0        3.458239    5.858604   -2.616129
     82          1           0        5.416021    6.980624   -2.921803
     83          1           0        6.437814    8.064876   -1.935802
     84          1           0        4.991775    7.623418   -1.232729
     85          1           0        9.894051    2.896641    1.618479
     86          1           0       10.799625    0.382086    0.352305
     87          1           0       11.793034    2.222705   -0.560477
     88          1           0       11.442326    3.674660    0.218253
     89          1           0       10.473171    3.117711   -1.244304
     90          1           0       11.613505    1.168070    2.514390
     91          1           0       10.984653   -0.516378    2.676383
     92          1           0        9.985321    0.156287    4.439397
     93          1           0        8.864299    1.271982    3.428740
     94          1           0       10.413673    1.809929    4.168701
     95          1           0        8.983364   -4.130682    1.984121
     96          1           0        8.619243   -5.043296    0.547557
     97          1           0        7.723711   -5.257810    2.117869
     98          1           0        2.785527   -3.890448    1.310147
     99          1           0        0.901886   -5.208006   -2.136396
    100          1           0       -0.332073   -5.480896   -0.977891
    101          1           0        1.006668   -6.695520   -1.152609
    102          1           0       -3.290762   -4.285574    0.693076
    103          1           0       -3.334902   -4.419246   -1.080706
    104          1           0       -4.688113   -2.150724    0.426546
    105          1           0       -7.114896   -5.020805   -1.682698
    106          1           0       -5.467969   -5.457573   -1.348265
    107          1           0       -5.911934   -4.436306   -2.717674
    108          1           0       -6.985003   -1.968145    0.479376
    109          1           0       -8.032244   -3.379288   -0.155785
    110          1           0       -8.488543   -2.225823   -2.125186
    111          1           0       -7.039905   -1.201690   -2.018357
    112          1           0       -8.254860    0.267389   -1.003099
    113          1           0       -8.850144   -0.920863    0.197405
    114          1           0      -10.537612   -1.781976   -1.613574
    115          1           0      -10.787220   -0.898847   -3.507270
    116          1           0       -9.317620    0.109811   -3.210785
    117          1           0      -10.944362    0.712214   -2.843029
    118          1           0      -10.992894    0.962918   -0.344354
    119          1           0      -11.137427   -0.614534    0.420384
    120          1           0      -13.086067   -0.866155    0.055071
    121          1           0      -12.925345   -1.022729   -1.670701
    122          1           0      -14.069233    1.158674   -1.895632
    123          1           0      -12.716293    1.874809   -1.000774
    124          1           0      -14.089329    0.629092    1.062523
    125          1           0      -16.511235    0.708670    0.833709
    126          1           0      -15.849379    0.156307   -0.668686
    127          1           0      -16.292972    1.838855   -0.606438
    128          1           0      -15.147841    3.302056    0.949159
    129          1           0      -13.740629    3.371769    0.119083
    130          1           0      -13.015954    1.825896    2.577445
    131          1           0      -14.085704    3.111656    2.996218
    132          1           0      -12.568537    4.601016    3.035593
    133          1           0      -12.198464    4.264263    1.330455
    134          1           0      -10.959416    2.251509    3.177240
    135          1           0       -9.325433    2.231853    1.713475
    136          1           0       -9.014713    4.001639    1.717083
    137          1           0      -10.225127    3.332091    0.672729
    138          1           0      -10.350228    3.335785    4.888648
    139          1           0      -10.831071    4.907524    4.279963
    140          1           0       -9.269126    4.393572    3.845786
 ---------------------------------------------------------------------

 SCF Done:  E(RCAM-B3LYP) =  -3007.16781238     A.U. after   19 cycles

 Excitation energies and oscillator strengths:

 Excited State   1:      Singlet-A      1.7249 eV  718.78 nm  f=0.3856  <S**2>=0.000
     245 -> 248        0.16808
     246 -> 247        0.68774
     245 <- 248        0.10397
 This state for optimization and/or second-order correction.
 Total Energy, E(TD-HF/TD-DFT) =  -3007.10442260
 Copying the excited state density for this state as the 1-particle RhoCI density.

 Excited State   2:      Singlet-A      2.2521 eV  550.52 nm  f=0.1218  <S**2>=0.000
     245 -> 247        0.64189
     246 -> 248       -0.28101

 Excited State   3:      Singlet-A      3.4206 eV  362.46 nm  f=0.0135  <S**2>=0.000
     241 -> 247       -0.16669
     242 -> 247       -0.35604
     244 -> 247        0.55400
     246 -> 248       -0.11463

 Excited State   4:      Singlet-A      3.5533 eV  348.92 nm  f=0.1908  <S**2>=0.000
     240 -> 247        0.14704
     241 -> 247        0.20882
     242 -> 247        0.27459
     244 -> 247        0.35891
     245 -> 247        0.13773
     246 -> 248        0.41671

 Excited State   5:      Singlet-A      3.6102 eV  343.42 nm  f=0.0776  <S**2>=0.000
     239 -> 247        0.38814
     239 -> 248        0.13015
     239 -> 249       -0.25558
     239 -> 250        0.13704
     240 -> 247        0.30158
     240 -> 248        0.11201
     240 -> 249       -0.21488
     240 -> 250        0.13329
     246 -> 248       -0.21089

 The electronic state is 1-A.
 Alpha  occ. eigenvalues --  -46.88166 -19.25888 -19.23653 -19.20226 -19.19234
 Alpha  occ. eigenvalues --  -19.19048 -19.19016 -14.42274 -14.41976 -14.39396
 Alpha  occ. eigenvalues --  -14.38670 -10.39792 -10.38268 -10.35298 -10.34641
 Alpha  occ. eigenvalues --  -10.32480 -10.31484 -10.31377 -10.31177 -10.30661
 Alpha  occ. eigenvalues --  -10.30510 -10.30297 -10.30251 -10.28773 -10.28622
 Alpha  occ. eigenvalues --  -10.28567 -10.28222 -10.28186 -10.28177 -10.28144
 Alpha  occ. eigenvalues --  -10.27721 -10.27720 -10.27545 -10.27184 -10.27020
 Alpha  occ. eigenvalues --  -10.27003 -10.26948 -10.26864 -10.26582 -10.26561
 Alpha  occ. eigenvalues --  -10.26453 -10.26415 -10.26374 -10.26369 -10.26166
 Alpha  occ. eigenvalues --  -10.26124 -10.25977 -10.25924 -10.25903 -10.25872
 Alpha  occ. eigenvalues --  -10.25804 -10.25552 -10.25418 -10.25403 -10.25295
 Alpha  occ. eigenvalues --  -10.25295 -10.24934 -10.24657 -10.24623 -10.24564
 Alpha  occ. eigenvalues --  -10.24505 -10.24492 -10.24484 -10.24477 -10.24202
 Alpha  occ. eigenvalues --  -10.24160  -3.16727  -1.91649  -1.91147  -1.91059
 Alpha  occ. eigenvalues --   -1.15579  -1.15515  -1.11820  -1.08428  -1.07700
 Alpha  occ. eigenvalues --   -1.07514  -1.04913  -1.03970  -1.03202  -1.02470
 Alpha  occ. eigenvalues --   -0.92738  -0.90332  -0.89507  -0.89112  -0.89014
 Alpha  occ. eigenvalues --   -0.88468  -0.88392  -0.87833  -0.87233  -0.86833
 Alpha  occ. eigenvalues --   -0.86255  -0.85350  -0.84538  -0.83949  -0.83374
 Alpha  occ. eigenvalues --   -0.82437  -0.82310  -0.81726  -0.80909  -0.80783
 Alpha  occ. eigenvalues --   -0.79731  -0.78912  -0.77998  -0.77280  -0.76264
 Alpha  occ. eigenvalues --   -0.75817  -0.75265  -0.75119  -0.74673  -0.74402
 Alpha  occ. eigenvalues --   -0.73180  -0.72725  -0.72046  -0.70711  -0.69567
 Alpha  occ. eigenvalues --   -0.69106  -0.68625  -0.67640  -0.66396  -0.65552
 Alpha  occ. eigenvalues --   -0.65231  -0.64664  -0.64395  -0.64094  -0.63909
 Alpha  occ. eigenvalues --   -0.63080  -0.62894  -0.62703  -0.61707  -0.61052
 Alpha  occ. eigenvalues --   -0.60680  -0.59839  -0.59641  -0.58949  -0.57937
 Alpha  occ. eigenvalues --   -0.57520  -0.56787  -0.56378  -0.55910  -0.55768
 Alpha  occ. eigenvalues --   -0.55256  -0.55128  -0.54882  -0.54503  -0.53923
 Alpha  occ. eigenvalues --   -0.53627  -0.53578  -0.53252  -0.52891  -0.52739
 Alpha  occ. eigenvalues --   -0.52471  -0.52356  -0.52248  -0.51984  -0.51587
 Alpha  occ. eigenvalues --   -0.51339  -0.51272  -0.51198  -0.50983  -0.50727
 Alpha  occ. eigenvalues --   -0.50631  -0.50427  -0.49857  -0.49738  -0.49612
 Alpha  occ. eigenvalues --   -0.49567  -0.49346  -0.49149  -0.48957  -0.48692
 Alpha  occ. eigenvalues --   -0.48537  -0.48149  -0.48009  -0.47933  -0.47804
 Alpha  occ. eigenvalues --   -0.47578  -0.47262  -0.47085  -0.46869  -0.46652
 Alpha  occ. eigenvalues --   -0.46426  -0.46340  -0.46181  -0.45993  -0.45886
 Alpha  occ. eigenvalues --   -0.45704  -0.45488  -0.45328  -0.45285  -0.45043
 Alpha  occ. eigenvalues --   -0.44777  -0.44613  -0.44143  -0.43941  -0.43776
 Alpha  occ. eigenvalues --   -0.43667  -0.43596  -0.43263  -0.43098  -0.42982
 Alpha  occ. eigenvalues --   -0.42853  -0.42584  -0.42468  -0.42326  -0.42184
 Alpha  occ. eigenvalues --   -0.42029  -0.41791  -0.41461  -0.41236  -0.40793
 Alpha  occ. eigenvalues --   -0.40702  -0.40496  -0.40297  -0.40224  -0.39927
 Alpha  occ. eigenvalues --   -0.39814  -0.39580  -0.39146  -0.38899  -0.38719
 Alpha  occ. eigenvalues --   -0.38295  -0.37918  -0.37762  -0.37612  -0.37522
 Alpha  occ. eigenvalues --   -0.37170  -0.36939  -0.36891  -0.36608  -0.36284
 Alpha  occ. eigenvalues --   -0.35928  -0.35773  -0.35315  -0.34565  -0.34086
 Alpha  occ. eigenvalues --   -0.34008  -0.33856  -0.33529  -0.31436  -0.31392
 Alpha  occ. eigenvalues --   -0.30803  -0.30460  -0.30173  -0.29726  -0.24222
 Alpha  occ. eigenvalues --   -0.21199
 Alpha virt. eigenvalues --   -0.08766  -0.01479   0.00472   0.02276   0.03416
 Alpha virt. eigenvalues --    0.03954   0.04737   0.05513   0.06041   0.06561
 Alpha virt. eigenvalues --    0.07894   0.08489   0.08553   0.08679   0.08791

 Mulliken charges:
               1
     1  Mg   0.823876
     2  C    0.011916
     3  C   -0.103758
     4  C   -0.055778
     5  C   -0.093448
     6  N   -0.312322
     7  C   -0.020394
     8  C   -0.009248
     9  C   -0.060795
    10  C    0.044338
    11  C    0.044668
    12  C   -0.006855
    13  C    0.110445
    14  C    0.159866
    15  O   -0.245122
    16  O   -0.351074
    17  N   -0.397788
    18  C    0.218201
    19  C   -0.139339
    20  C    0.028591
    21  C    0.114881
    22  C    0.105405
    23  C   -0.006441
    24  O   -0.230513
    25  C    0.065961
    26  N   -0.308294
    27  C    0.034855
    28  C   -0.082918
    29  C    0.053789
    30  C    0.039592
    31  C    0.044526
    32  C    0.003287
    33  C    0.013768
    34  N   -0.288409
    35  C    0.100873
    36  C   -0.155882
    37  C   -0.038785
    38  C    0.107460
    39  C    0.127131
    40  C    0.056489
    41  O   -0.118182
    42  C   -0.007260
    43  C    0.151743
    44  O   -0.180535
    45  O   -0.367975
    46  C    0.177528
    47  C    0.264350
    48  C   -0.112356
    49  C   -0.144594
    50  C    0.061302
    51  C    0.075418
    52  C    0.011852
    53  C    0.022609
    54  C   -0.133243
    55  C    0.046923
    56  C    0.028416
    57  C    0.031769
    58  C    0.037101
    59  C   -0.153301
    60  C    0.054896
    61  C    0.058060
    62  C    0.028625
    63  C    0.061592
    64  C   -0.166489
    65  C    0.036090
    66  C    0.038357
    67  H   -0.033241
    68  H   -0.001197
    69  H   -0.043379
    70  H    0.030768
    71  H    0.022376
    72  H    0.026797
    73  H    0.018585
    74  H    0.019474
    75  H    0.013088
    76  H    0.010378
    77  H    0.007398
    78  H    0.036027
    79  H    0.022967
    80  H   -0.005339
    81  H    0.022021
    82  H    0.043425
    83  H    0.018703
    84  H    0.037436
    85  H    0.027701
    86  H    0.003445
    87  H    0.007303
    88  H    0.015406
    89  H    0.038462
    90  H    0.006022
    91  H    0.013344
    92  H    0.016874
    93  H    0.037081
    94  H    0.007883
    95  H   -0.006051
    96  H    0.039723
    97  H    0.034547
    98  H    0.039037
    99  H    0.030173
   100  H    0.035671
   101  H    0.048268
   102  H    0.050064
   103  H    0.017600
   104  H    0.004916
   105  H    0.001294
   106  H    0.020538
   107  H    0.036642
   108  H    0.013001
   109  H    0.006624
   110  H   -0.014345
   111  H    0.000951
   112  H    0.007371
   113  H   -0.010740
   114  H   -0.014685
   115  H    0.005136
   116  H    0.010483
   117  H   -0.000328
   118  H    0.006063
   119  H   -0.015368
   120  H    0.003968
   121  H   -0.001610
   122  H   -0.001809
   123  H    0.006928
   124  H   -0.004439
   125  H    0.016046
   126  H   -0.004774
   127  H    0.008769
   128  H   -0.017202
   129  H   -0.018604
   130  H    0.003599
   131  H   -0.005108
   132  H   -0.005265
   133  H   -0.006466
   134  H    0.002509
   135  H    0.015693
   136  H    0.010303
   137  H    0.008408
   138  H    0.013469
   139  H   -0.001004
   140  H    0.004746
 Sum of Mulliken charges =  -0.00000

 Dipole moment (field-independent basis, Debye):
    X=             -3.4187    Y=              3.3877    Z=             -1.0106  Tot=              4.9179
 Quadrupole moment (field-independent basis, Debye-Ang):
   XX=           -376.1429   YY=           -417.1977   ZZ=           -409.6950
   XY=             13.5181   XZ=             23.0214   YZ=              6.0595

 Normal termination of Gaussian 16 at Thu May  5 07:13:50 2022.
