 Gaussian 16, Revision A.03,
 Gaussian 16:  ES64L-G16RevA.03 25-Dec-2016

 ---------------------------------
 #p PBE1PBE/Def2SVP td=(nstates=5)
 ---------------------------------

 -----------------------------------------------------
 step_751_chromophore_16 TDDFT with PBE1PBE functional
 -----------------------------------------------------
 Symbolic Z-matrix:
 Charge =  0 Multiplicity = 1

                         Standard orientation:
 ---------------------------------------------------------------------
 Center     Atomic      Atomic             Coordinates (Angstroms)
 Number     Number       Type             X           Y           Z
 ---------------------------------------------------------------------
      1         12           0        5.864188    0.645586   -0.060225
      2          6           0        3.969765   -2.318614    0.097298
      3          6           0        3.168768    2.329575   -1.205526
      4          6           0        7.872057    3.402577   -0.345646
      5          6           0        8.551844   -1.238245    0.973992
      6          7           0        3.782681    0.052752   -0.581838
      7          6           0        3.226329   -1.231883   -0.378330
      8          6           0        1.746574   -1.192881   -0.754247
      9          6           0        1.544605    0.349569   -1.134701
     10          6           0        2.881671    0.989244   -0.959193
     11          6           0        1.039152    0.558306   -2.630598
     12          6           0        0.717797   -1.523851    0.392733
     13          6           0       -0.773752   -1.164413    0.476544
     14          6           0       -1.810224   -2.241154    0.747422
     15          8           0       -2.167161   -2.503859    1.900665
     16          8           0       -2.296793   -2.759045   -0.442679
     17          7           0        5.598487    2.563594   -0.749420
     18          6           0        4.372450    3.007377   -1.121342
     19          6           0        4.528983    4.438240   -1.335956
     20          6           0        5.866061    4.750746   -1.208752
     21          6           0        6.516132    3.615138   -0.736442
     22          6           0        3.386867    5.392989   -1.632963
     23          6           0        6.532994    6.088922   -1.423498
     24          8           0        7.766411    6.274665   -1.237823
     25          6           0        5.745539    7.223228   -1.911617
     26          7           0        7.835613    1.075094    0.376887
     27          6           0        8.471860    2.252378    0.151846
     28          6           0        9.897286    2.226064    0.758725
     29          6           0       10.119995    0.794226    1.098858
     30          6           0        8.755651    0.146595    0.824100
     31          6           0       10.944031    2.852638   -0.297133
     32          6           0       10.728324    0.532143    2.527644
     33          6           0        9.869101    0.974123    3.728750
     34          7           0        6.304979   -1.390997    0.462989
     35          6           0        7.446672   -2.023505    0.820113
     36          6           0        7.226769   -3.440428    1.017011
     37          6           0        5.832005   -3.576943    0.776521
     38          6           0        5.374276   -2.323621    0.421296
     39          6           0        8.161625   -4.555980    1.407851
     40          6           0        4.753369   -4.553223    0.818480
     41          8           0        4.679817   -5.723567    0.993655
     42          6           0        3.482353   -3.718926    0.489257
     43          6           0        2.808757   -4.308175   -0.638573
     44          8           0        3.199273   -4.316645   -1.765643
     45          8           0        1.652961   -4.966187   -0.215572
     46          6           0        0.731734   -5.641018   -1.150166
     47          6           0       -3.424386   -3.733641   -0.237485
     48          6           0       -4.766729   -3.039241   -0.201403
     49          6           0       -5.964503   -3.464542   -0.695744
     50          6           0       -6.099620   -4.626336   -1.660633
     51          6           0       -7.252832   -2.637992   -0.337504
     52          6           0       -7.817860   -1.702718   -1.442577
     53          6           0       -8.815556   -0.656605   -0.859036
     54          6           0      -10.279683   -0.742923   -1.406743
     55          6           0      -10.307484   -0.172730   -2.851045
     56          6           0      -11.274767   -0.076314   -0.517044
     57          6           0      -12.791462   -0.324261   -0.844158
     58          6           0      -13.481391    1.098440   -0.979139
     59          6           0      -14.411014    1.354113    0.315667
     60          6           0      -15.891722    1.021500   -0.007770
     61          6           0      -14.183756    2.794743    0.930603
     62          6           0      -13.366009    2.801173    2.239632
     63          6           0      -12.245058    3.834752    2.331071
     64          6           0      -10.839541    3.266318    2.797400
     65          6           0       -9.775822    3.222907    1.659141
     66          6           0      -10.270438    4.005491    4.032923
     67          1           0        2.273251    2.915857   -1.423722
     68          1           0        8.618312    4.180432   -0.522574
     69          1           0        9.391676   -1.804304    1.379855
     70          1           0        1.563195   -1.864462   -1.593131
     71          1           0        0.801051    0.781262   -0.464832
     72          1           0        1.800540    1.004373   -3.270859
     73          1           0        0.156158    1.197983   -2.609192
     74          1           0        0.791079   -0.381849   -3.122253
     75          1           0        1.162568   -1.442601    1.384460
     76          1           0        0.691575   -2.606942    0.272077
     77          1           0       -0.858498   -0.845277   -0.561987
     78          1           0       -1.020339   -0.406421    1.220919
     79          1           0        3.142947    6.211126   -0.955673
     80          1           0        2.413797    4.904024   -1.587173
     81          1           0        3.458239    5.858604   -2.616129
     82          1           0        5.416021    6.980624   -2.921803
     83          1           0        6.437814    8.064876   -1.935802
     84          1           0        4.991775    7.623418   -1.232729
     85          1           0        9.894051    2.896641    1.618479
     86          1           0       10.799625    0.382086    0.352305
     87          1           0       11.793034    2.222705   -0.560477
     88          1           0       11.442326    3.674660    0.218253
     89          1           0       10.473171    3.117711   -1.244304
     90          1           0       11.613505    1.168070    2.514390
     91          1           0       10.984653   -0.516378    2.676383
     92          1           0        9.985321    0.156287    4.439397
     93          1           0        8.864299    1.271982    3.428740
     94          1           0       10.413673    1.809929    4.168701
     95          1           0        8.983364   -4.130682    1.984121
     96          1           0        8.619243   -5.043296    0.547557
     97          1           0        7.723711   -5.257810    2.117869
     98          1           0        2.785527   -3.890448    1.310147
     99          1           0        0.901886   -5.208006   -2.136396
    100          1           0       -0.332073   -5.480896   -0.977891
    101          1           0        1.006668   -6.695520   -1.152609
    102          1           0       -3.290762   -4.285574    0.693076
    103          1           0       -3.334902   -4.419246   -1.080706
    104          1           0       -4.688113   -2.150724    0.426546
    105          1           0       -7.114896   -5.020805   -1.682698
    106          1           0       -5.467969   -5.457573   -1.348265
    107          1           0       -5.911934   -4.436306   -2.717674
    108          1           0       -6.985003   -1.968145    0.479376
    109          1           0       -8.032244   -3.379288   -0.155785
    110          1           0       -8.488543   -2.225823   -2.125186
    111          1           0       -7.039905   -1.201690   -2.018357
    112          1           0       -8.254860    0.267389   -1.003099
    113          1           0       -8.850144   -0.920863    0.197405
    114          1           0      -10.537612   -1.781976   -1.613574
    115          1           0      -10.787220   -0.898847   -3.507270
    116          1           0       -9.317620    0.109811   -3.210785
    117          1           0      -10.944362    0.712214   -2.843029
    118          1           0      -10.992894    0.962918   -0.344354
    119          1           0      -11.137427   -0.614534    0.420384
    120          1           0      -13.086067   -0.866155    0.055071
    121          1           0      -12.925345   -1.022729   -1.670701
    122          1           0      -14.069233    1.158674   -1.895632
    123          1           0      -12.716293    1.874809   -1.000774
    124          1           0      -14.089329    0.629092    1.062523
    125          1           0      -16.511235    0.708670    0.833709
    126          1           0      -15.849379    0.156307   -0.668686
    127          1           0      -16.292972    1.838855   -0.606438
    128          1           0      -15.147841    3.302056    0.949159
    129          1           0      -13.740629    3.371769    0.119083
    130          1           0      -13.015954    1.825896    2.577445
    131          1           0      -14.085704    3.111656    2.996218
    132          1           0      -12.568537    4.601016    3.035593
    133          1           0      -12.198464    4.264263    1.330455
    134          1           0      -10.959416    2.251509    3.177240
    135          1           0       -9.325433    2.231853    1.713475
    136          1           0       -9.014713    4.001639    1.717083
    137          1           0      -10.225127    3.332091    0.672729
    138          1           0      -10.350228    3.335785    4.888648
    139          1           0      -10.831071    4.907524    4.279963
    140          1           0       -9.269126    4.393572    3.845786
 ---------------------------------------------------------------------

 SCF Done:  E(RPBE1PBE) =  -3005.35511768     A.U. after   16 cycles

 Excitation energies and oscillator strengths:

 Excited State   1:      Singlet-A      1.8684 eV  663.58 nm  f=0.3701  <S**2>=0.000
     245 -> 248       -0.16095
     246 -> 247        0.69490
     246 <- 247       -0.11216
 This state for optimization and/or second-order correction.
 Total Energy, E(TD-HF/TD-DFT) =  -3005.28645522
 Copying the excited state density for this state as the 1-particle RhoCI density.

 Excited State   2:      Singlet-A      2.2567 eV  549.40 nm  f=0.1175  <S**2>=0.000
     245 -> 247        0.65201
     246 -> 248        0.25651

 Excited State   3:      Singlet-A      3.0582 eV  405.41 nm  f=0.0008  <S**2>=0.000
     242 -> 247       -0.30991
     244 -> 247        0.60900

 Excited State   4:      Singlet-A      3.1053 eV  399.26 nm  f=0.0010  <S**2>=0.000
     240 -> 247        0.15530
     241 -> 247        0.33305
     242 -> 247        0.49441
     242 -> 249       -0.12083
     244 -> 247        0.26492

 Excited State   5:      Singlet-A      3.1749 eV  390.51 nm  f=0.0064  <S**2>=0.000
     240 -> 247       -0.28591
     241 -> 247        0.55653
     241 -> 249        0.10268
     242 -> 247       -0.20650
     244 -> 247       -0.17271

 The electronic state is 1-A.
 Alpha  occ. eigenvalues --  -46.91566 -19.26619 -19.24355 -19.20557 -19.19442
 Alpha  occ. eigenvalues --  -19.19406 -19.19080 -14.41821 -14.41498 -14.39000
 Alpha  occ. eigenvalues --  -14.38405 -10.36872 -10.35283 -10.32259 -10.31916
 Alpha  occ. eigenvalues --  -10.29890 -10.29260 -10.28721 -10.28689 -10.28475
 Alpha  occ. eigenvalues --  -10.28279 -10.27728 -10.27709 -10.26611 -10.26513
 Alpha  occ. eigenvalues --  -10.26123 -10.26042 -10.26036 -10.25950 -10.25833
 Alpha  occ. eigenvalues --  -10.25669 -10.25517 -10.25068 -10.24902 -10.24683
 Alpha  occ. eigenvalues --  -10.24582 -10.24528 -10.24469 -10.24153 -10.24130
 Alpha  occ. eigenvalues --  -10.23991 -10.23921 -10.23825 -10.23793 -10.23786
 Alpha  occ. eigenvalues --  -10.23742 -10.23562 -10.23542 -10.23497 -10.23424
 Alpha  occ. eigenvalues --  -10.23238 -10.23123 -10.23036 -10.22996 -10.22848
 Alpha  occ. eigenvalues --  -10.22754 -10.22532 -10.22424 -10.22234 -10.22153
 Alpha  occ. eigenvalues --  -10.22121 -10.22070 -10.21875 -10.21872 -10.21584
 Alpha  occ. eigenvalues --  -10.21553  -3.13708  -1.86572  -1.86047  -1.85963
 Alpha  occ. eigenvalues --   -1.10343  -1.10334  -1.06737  -1.02951  -1.02602
 Alpha  occ. eigenvalues --   -1.02371  -0.99777  -0.98520  -0.97802  -0.97055
 Alpha  occ. eigenvalues --   -0.87199  -0.84434  -0.83680  -0.83397  -0.83180
 Alpha  occ. eigenvalues --   -0.82703  -0.82550  -0.81996  -0.81531  -0.80932
 Alpha  occ. eigenvalues --   -0.80730  -0.79603  -0.78774  -0.78249  -0.77633
 Alpha  occ. eigenvalues --   -0.76604  -0.76407  -0.75953  -0.75256  -0.75042
 Alpha  occ. eigenvalues --   -0.73898  -0.73155  -0.72301  -0.71612  -0.70603
 Alpha  occ. eigenvalues --   -0.70007  -0.69457  -0.69348  -0.68800  -0.68555
 Alpha  occ. eigenvalues --   -0.67627  -0.67090  -0.66449  -0.65027  -0.63926
 Alpha  occ. eigenvalues --   -0.63649  -0.62875  -0.61958  -0.60640  -0.59971
 Alpha  occ. eigenvalues --   -0.59794  -0.59076  -0.58891  -0.58564  -0.58023
 Alpha  occ. eigenvalues --   -0.57429  -0.57199  -0.56909  -0.56330  -0.55482
 Alpha  occ. eigenvalues --   -0.55018  -0.54392  -0.54261  -0.53625  -0.52488
 Alpha  occ. eigenvalues --   -0.52041  -0.51281  -0.50930  -0.50492  -0.50308
 Alpha  occ. eigenvalues --   -0.49793  -0.49659  -0.49340  -0.49064  -0.48504
 Alpha  occ. eigenvalues --   -0.48094  -0.47731  -0.47665  -0.47530  -0.47232
 Alpha  occ. eigenvalues --   -0.46971  -0.46942  -0.46758  -0.46575  -0.46048
 Alpha  occ. eigenvalues --   -0.45921  -0.45830  -0.45815  -0.45544  -0.45350
 Alpha  occ. eigenvalues --   -0.45160  -0.44906  -0.44492  -0.44321  -0.44187
 Alpha  occ. eigenvalues --   -0.44125  -0.43968  -0.43678  -0.43485  -0.43333
 Alpha  occ. eigenvalues --   -0.43142  -0.42750  -0.42628  -0.42545  -0.42399
 Alpha  occ. eigenvalues --   -0.42189  -0.41919  -0.41761  -0.41496  -0.41320
 Alpha  occ. eigenvalues --   -0.41107  -0.40996  -0.40860  -0.40659  -0.40621
 Alpha  occ. eigenvalues --   -0.40349  -0.40240  -0.40093  -0.40021  -0.39821
 Alpha  occ. eigenvalues --   -0.39441  -0.39422  -0.38854  -0.38680  -0.38553
 Alpha  occ. eigenvalues --   -0.38470  -0.38356  -0.38091  -0.37987  -0.37730
 Alpha  occ. eigenvalues --   -0.37697  -0.37448  -0.37229  -0.37077  -0.36871
 Alpha  occ. eigenvalues --   -0.36862  -0.36698  -0.36261  -0.35960  -0.35640
 Alpha  occ. eigenvalues --   -0.35458  -0.35363  -0.35160  -0.35024  -0.34791
 Alpha  occ. eigenvalues --   -0.34575  -0.34528  -0.34087  -0.33685  -0.33520
 Alpha  occ. eigenvalues --   -0.33168  -0.32750  -0.32728  -0.32483  -0.32362
 Alpha  occ. eigenvalues --   -0.32048  -0.31990  -0.31925  -0.31570  -0.31135
 Alpha  occ. eigenvalues --   -0.30896  -0.30716  -0.30196  -0.29759  -0.29397
 Alpha  occ. eigenvalues --   -0.29066  -0.28748  -0.28557  -0.26984  -0.26182
 Alpha  occ. eigenvalues --   -0.25899  -0.25853  -0.25493  -0.25439  -0.21122
 Alpha  occ. eigenvalues --   -0.18827
 Alpha virt. eigenvalues --   -0.11236  -0.05041  -0.03751  -0.02187  -0.00580
 Alpha virt. eigenvalues --    0.00148   0.00586   0.01349   0.01582   0.02865
 Alpha virt. eigenvalues --    0.04019   0.04428   0.05230   0.05312   0.05335

 Mulliken charges:
               1
     1  Mg   0.975474
     2  C   -0.004999
     3  C   -0.088918
     4  C   -0.046051
     5  C   -0.086393
     6  N   -0.418270
     7  C    0.066350
     8  C   -0.085789
     9  C   -0.141535
    10  C    0.087544
    11  C   -0.011273
    12  C   -0.054663
    13  C    0.024480
    14  C    0.227012
    15  O   -0.276176
    16  O   -0.378096
    17  N   -0.518336
    18  C    0.240557
    19  C   -0.171455
    20  C   -0.034191
    21  C    0.152076
    22  C    0.050845
    23  C    0.049505
    24  O   -0.268470
    25  C   -0.009108
    26  N   -0.418698
    27  C    0.070379
    28  C   -0.159712
    29  C   -0.022627
    30  C    0.080350
    31  C   -0.011287
    32  C   -0.059460
    33  C   -0.059842
    34  N   -0.418570
    35  C    0.114761
    36  C   -0.164381
    37  C   -0.084522
    38  C    0.156545
    39  C    0.077308
    40  C    0.152837
    41  O   -0.166452
    42  C   -0.117004
    43  C    0.250802
    44  O   -0.218134
    45  O   -0.403059
    46  C    0.123260
    47  C    0.215392
    48  C   -0.117287
    49  C   -0.188001
    50  C    0.001891
    51  C    0.004393
    52  C   -0.045220
    53  C   -0.032208
    54  C   -0.219121
    55  C   -0.009784
    56  C   -0.035426
    57  C   -0.028498
    58  C   -0.020069
    59  C   -0.233548
    60  C   -0.008876
    61  C    0.007528
    62  C   -0.035671
    63  C    0.006387
    64  C   -0.257987
    65  C   -0.024229
    66  C   -0.019476
    67  H    0.000525
    68  H    0.030262
    69  H   -0.009759
    70  H    0.066190
    71  H    0.059929
    72  H    0.054720
    73  H    0.045002
    74  H    0.045998
    75  H    0.045219
    76  H    0.053035
    77  H    0.045067
    78  H    0.067369
    79  H    0.048970
    80  H    0.021583
    81  H    0.048968
    82  H    0.070176
    83  H    0.046244
    84  H    0.063072
    85  H    0.064644
    86  H    0.042560
    87  H    0.034242
    88  H    0.042923
    89  H    0.064858
    90  H    0.041126
    91  H    0.044192
    92  H    0.044977
    93  H    0.065830
    94  H    0.036188
    95  H    0.022349
    96  H    0.067899
    97  H    0.061718
    98  H    0.074895
    99  H    0.050624
   100  H    0.057920
   101  H    0.070085
   102  H    0.077230
   103  H    0.043586
   104  H    0.034186
   105  H    0.028625
   106  H    0.047200
   107  H    0.063129
   108  H    0.044589
   109  H    0.040370
   110  H    0.020238
   111  H    0.033028
   112  H    0.039334
   113  H    0.022489
   114  H    0.022914
   115  H    0.031968
   116  H    0.037901
   117  H    0.029693
   118  H    0.043737
   119  H    0.019175
   120  H    0.035731
   121  H    0.029528
   122  H    0.030202
   123  H    0.037966
   124  H    0.034260
   125  H    0.043739
   126  H    0.024793
   127  H    0.036737
   128  H    0.014927
   129  H    0.012406
   130  H    0.033534
   131  H    0.029395
   132  H    0.026939
   133  H    0.025765
   134  H    0.039717
   135  H    0.042991
   136  H    0.037069
   137  H    0.034656
   138  H    0.040387
   139  H    0.025952
   140  H    0.031513
 Sum of Mulliken charges =  -0.00000

 Dipole moment (field-independent basis, Debye):
    X=             -3.2832    Y=              2.9694    Z=             -0.8513  Tot=              4.5080
 Quadrupole moment (field-independent basis, Debye-Ang):
   XX=           -368.4553   YY=           -415.1879   ZZ=           -407.1467
   XY=             11.0190   XZ=             24.9760   YZ=              6.3389

 Normal termination of Gaussian 16 at Thu May  5 07:34:11 2022.
