 Gaussian 16, Revision A.03,
 Gaussian 16:  ES64L-G16RevA.03 25-Dec-2016

 --------------------------------
 #p wB97XD/Def2SVP td=(nstates=5)
 --------------------------------

 ----------------------------------------------------
 step_751_chromophore_16 TDDFT with wB97XD functional
 ----------------------------------------------------
 Symbolic Z-matrix:
 Charge =  0 Multiplicity = 1

                         Standard orientation:
 ---------------------------------------------------------------------
 Center     Atomic      Atomic             Coordinates (Angstroms)
 Number     Number       Type             X           Y           Z
 ---------------------------------------------------------------------
      1         12           0        5.864188    0.645586   -0.060225
      2          6           0        3.969765   -2.318614    0.097298
      3          6           0        3.168768    2.329575   -1.205526
      4          6           0        7.872057    3.402577   -0.345646
      5          6           0        8.551844   -1.238245    0.973992
      6          7           0        3.782681    0.052752   -0.581838
      7          6           0        3.226329   -1.231883   -0.378330
      8          6           0        1.746574   -1.192881   -0.754247
      9          6           0        1.544605    0.349569   -1.134701
     10          6           0        2.881671    0.989244   -0.959193
     11          6           0        1.039152    0.558306   -2.630598
     12          6           0        0.717797   -1.523851    0.392733
     13          6           0       -0.773752   -1.164413    0.476544
     14          6           0       -1.810224   -2.241154    0.747422
     15          8           0       -2.167161   -2.503859    1.900665
     16          8           0       -2.296793   -2.759045   -0.442679
     17          7           0        5.598487    2.563594   -0.749420
     18          6           0        4.372450    3.007377   -1.121342
     19          6           0        4.528983    4.438240   -1.335956
     20          6           0        5.866061    4.750746   -1.208752
     21          6           0        6.516132    3.615138   -0.736442
     22          6           0        3.386867    5.392989   -1.632963
     23          6           0        6.532994    6.088922   -1.423498
     24          8           0        7.766411    6.274665   -1.237823
     25          6           0        5.745539    7.223228   -1.911617
     26          7           0        7.835613    1.075094    0.376887
     27          6           0        8.471860    2.252378    0.151846
     28          6           0        9.897286    2.226064    0.758725
     29          6           0       10.119995    0.794226    1.098858
     30          6           0        8.755651    0.146595    0.824100
     31          6           0       10.944031    2.852638   -0.297133
     32          6           0       10.728324    0.532143    2.527644
     33          6           0        9.869101    0.974123    3.728750
     34          7           0        6.304979   -1.390997    0.462989
     35          6           0        7.446672   -2.023505    0.820113
     36          6           0        7.226769   -3.440428    1.017011
     37          6           0        5.832005   -3.576943    0.776521
     38          6           0        5.374276   -2.323621    0.421296
     39          6           0        8.161625   -4.555980    1.407851
     40          6           0        4.753369   -4.553223    0.818480
     41          8           0        4.679817   -5.723567    0.993655
     42          6           0        3.482353   -3.718926    0.489257
     43          6           0        2.808757   -4.308175   -0.638573
     44          8           0        3.199273   -4.316645   -1.765643
     45          8           0        1.652961   -4.966187   -0.215572
     46          6           0        0.731734   -5.641018   -1.150166
     47          6           0       -3.424386   -3.733641   -0.237485
     48          6           0       -4.766729   -3.039241   -0.201403
     49          6           0       -5.964503   -3.464542   -0.695744
     50          6           0       -6.099620   -4.626336   -1.660633
     51          6           0       -7.252832   -2.637992   -0.337504
     52          6           0       -7.817860   -1.702718   -1.442577
     53          6           0       -8.815556   -0.656605   -0.859036
     54          6           0      -10.279683   -0.742923   -1.406743
     55          6           0      -10.307484   -0.172730   -2.851045
     56          6           0      -11.274767   -0.076314   -0.517044
     57          6           0      -12.791462   -0.324261   -0.844158
     58          6           0      -13.481391    1.098440   -0.979139
     59          6           0      -14.411014    1.354113    0.315667
     60          6           0      -15.891722    1.021500   -0.007770
     61          6           0      -14.183756    2.794743    0.930603
     62          6           0      -13.366009    2.801173    2.239632
     63          6           0      -12.245058    3.834752    2.331071
     64          6           0      -10.839541    3.266318    2.797400
     65          6           0       -9.775822    3.222907    1.659141
     66          6           0      -10.270438    4.005491    4.032923
     67          1           0        2.273251    2.915857   -1.423722
     68          1           0        8.618312    4.180432   -0.522574
     69          1           0        9.391676   -1.804304    1.379855
     70          1           0        1.563195   -1.864462   -1.593131
     71          1           0        0.801051    0.781262   -0.464832
     72          1           0        1.800540    1.004373   -3.270859
     73          1           0        0.156158    1.197983   -2.609192
     74          1           0        0.791079   -0.381849   -3.122253
     75          1           0        1.162568   -1.442601    1.384460
     76          1           0        0.691575   -2.606942    0.272077
     77          1           0       -0.858498   -0.845277   -0.561987
     78          1           0       -1.020339   -0.406421    1.220919
     79          1           0        3.142947    6.211126   -0.955673
     80          1           0        2.413797    4.904024   -1.587173
     81          1           0        3.458239    5.858604   -2.616129
     82          1           0        5.416021    6.980624   -2.921803
     83          1           0        6.437814    8.064876   -1.935802
     84          1           0        4.991775    7.623418   -1.232729
     85          1           0        9.894051    2.896641    1.618479
     86          1           0       10.799625    0.382086    0.352305
     87          1           0       11.793034    2.222705   -0.560477
     88          1           0       11.442326    3.674660    0.218253
     89          1           0       10.473171    3.117711   -1.244304
     90          1           0       11.613505    1.168070    2.514390
     91          1           0       10.984653   -0.516378    2.676383
     92          1           0        9.985321    0.156287    4.439397
     93          1           0        8.864299    1.271982    3.428740
     94          1           0       10.413673    1.809929    4.168701
     95          1           0        8.983364   -4.130682    1.984121
     96          1           0        8.619243   -5.043296    0.547557
     97          1           0        7.723711   -5.257810    2.117869
     98          1           0        2.785527   -3.890448    1.310147
     99          1           0        0.901886   -5.208006   -2.136396
    100          1           0       -0.332073   -5.480896   -0.977891
    101          1           0        1.006668   -6.695520   -1.152609
    102          1           0       -3.290762   -4.285574    0.693076
    103          1           0       -3.334902   -4.419246   -1.080706
    104          1           0       -4.688113   -2.150724    0.426546
    105          1           0       -7.114896   -5.020805   -1.682698
    106          1           0       -5.467969   -5.457573   -1.348265
    107          1           0       -5.911934   -4.436306   -2.717674
    108          1           0       -6.985003   -1.968145    0.479376
    109          1           0       -8.032244   -3.379288   -0.155785
    110          1           0       -8.488543   -2.225823   -2.125186
    111          1           0       -7.039905   -1.201690   -2.018357
    112          1           0       -8.254860    0.267389   -1.003099
    113          1           0       -8.850144   -0.920863    0.197405
    114          1           0      -10.537612   -1.781976   -1.613574
    115          1           0      -10.787220   -0.898847   -3.507270
    116          1           0       -9.317620    0.109811   -3.210785
    117          1           0      -10.944362    0.712214   -2.843029
    118          1           0      -10.992894    0.962918   -0.344354
    119          1           0      -11.137427   -0.614534    0.420384
    120          1           0      -13.086067   -0.866155    0.055071
    121          1           0      -12.925345   -1.022729   -1.670701
    122          1           0      -14.069233    1.158674   -1.895632
    123          1           0      -12.716293    1.874809   -1.000774
    124          1           0      -14.089329    0.629092    1.062523
    125          1           0      -16.511235    0.708670    0.833709
    126          1           0      -15.849379    0.156307   -0.668686
    127          1           0      -16.292972    1.838855   -0.606438
    128          1           0      -15.147841    3.302056    0.949159
    129          1           0      -13.740629    3.371769    0.119083
    130          1           0      -13.015954    1.825896    2.577445
    131          1           0      -14.085704    3.111656    2.996218
    132          1           0      -12.568537    4.601016    3.035593
    133          1           0      -12.198464    4.264263    1.330455
    134          1           0      -10.959416    2.251509    3.177240
    135          1           0       -9.325433    2.231853    1.713475
    136          1           0       -9.014713    4.001639    1.717083
    137          1           0      -10.225127    3.332091    0.672729
    138          1           0      -10.350228    3.335785    4.888648
    139          1           0      -10.831071    4.907524    4.279963
    140          1           0       -9.269126    4.393572    3.845786
 ---------------------------------------------------------------------

 SCF Done:  E(RwB97XD) =  -3007.86422266     A.U. after   19 cycles

 Excitation energies and oscillator strengths:

 Excited State   1:      Singlet-A      1.6745 eV  740.41 nm  f=0.3846  <S**2>=0.000
     245 -> 248        0.17302
     246 -> 247        0.68571
     245 <- 248        0.11250
 This state for optimization and/or second-order correction.
 Total Energy, E(TD-HF/TD-DFT) =  -3007.80268483
 Copying the excited state density for this state as the 1-particle RhoCI density.

 Excited State   2:      Singlet-A      2.1976 eV  564.17 nm  f=0.1189  <S**2>=0.000
     245 -> 247        0.64015
     246 -> 248       -0.28308

 Excited State   3:      Singlet-A      3.4358 eV  360.86 nm  f=0.0220  <S**2>=0.000
     241 -> 247       -0.31767
     242 -> 247        0.32057
     244 -> 247        0.48928
     246 -> 248       -0.15075

 Excited State   4:      Singlet-A      3.5787 eV  346.45 nm  f=0.1984  <S**2>=0.000
     240 -> 247        0.18658
     240 -> 249       -0.16592
     241 -> 247        0.20065
     242 -> 247       -0.15422
     244 -> 247        0.39656
     245 -> 247        0.13850
     246 -> 248        0.40050

 Excited State   5:      Singlet-A      3.6134 eV  343.12 nm  f=0.1134  <S**2>=0.000
     240 -> 247        0.45504
     240 -> 248        0.15665
     240 -> 249       -0.32545
     240 -> 250        0.17861
     246 -> 248       -0.26194

 The electronic state is 1-A.
 Alpha  occ. eigenvalues --  -46.94517 -19.31158 -19.28872 -19.25214 -19.24121
 Alpha  occ. eigenvalues --  -19.24093 -19.24048 -14.46890 -14.46593 -14.44048
 Alpha  occ. eigenvalues --  -14.43231 -10.43651 -10.42074 -10.39299 -10.38609
 Alpha  occ. eigenvalues --  -10.36392 -10.35409 -10.35225 -10.35198 -10.34725
 Alpha  occ. eigenvalues --  -10.34489 -10.34395 -10.34356 -10.32853 -10.32833
 Alpha  occ. eigenvalues --  -10.32498 -10.32348 -10.32246 -10.32187 -10.32118
 Alpha  occ. eigenvalues --  -10.31802 -10.31766 -10.31486 -10.31184 -10.31071
 Alpha  occ. eigenvalues --  -10.31036 -10.30972 -10.30861 -10.30687 -10.30523
 Alpha  occ. eigenvalues --  -10.30375 -10.30327 -10.30264 -10.30261 -10.30255
 Alpha  occ. eigenvalues --  -10.30116 -10.29875 -10.29827 -10.29807 -10.29805
 Alpha  occ. eigenvalues --  -10.29758 -10.29530 -10.29382 -10.29351 -10.29222
 Alpha  occ. eigenvalues --  -10.29094 -10.28885 -10.28590 -10.28522 -10.28480
 Alpha  occ. eigenvalues --  -10.28478 -10.28435 -10.28321 -10.28296 -10.28022
 Alpha  occ. eigenvalues --  -10.27968  -3.20507  -1.94121  -1.93598  -1.93511
 Alpha  occ. eigenvalues --   -1.17720  -1.17694  -1.14028  -1.10663  -1.09938
 Alpha  occ. eigenvalues --   -1.09690  -1.06914  -1.06049  -1.05216  -1.04504
 Alpha  occ. eigenvalues --   -0.94691  -0.92118  -0.91342  -0.90985  -0.90840
 Alpha  occ. eigenvalues --   -0.90358  -0.90219  -0.89820  -0.89176  -0.88606
 Alpha  occ. eigenvalues --   -0.88169  -0.87242  -0.86410  -0.85853  -0.85273
 Alpha  occ. eigenvalues --   -0.84262  -0.84248  -0.83632  -0.82851  -0.82694
 Alpha  occ. eigenvalues --   -0.81569  -0.80894  -0.79902  -0.79197  -0.78182
 Alpha  occ. eigenvalues --   -0.77679  -0.77056  -0.77045  -0.76491  -0.76231
 Alpha  occ. eigenvalues --   -0.75147  -0.74676  -0.74012  -0.72651  -0.71470
 Alpha  occ. eigenvalues --   -0.71092  -0.70512  -0.69682  -0.68268  -0.67522
 Alpha  occ. eigenvalues --   -0.67237  -0.66556  -0.66395  -0.66021  -0.65706
 Alpha  occ. eigenvalues --   -0.64936  -0.64847  -0.64540  -0.63688  -0.63076
 Alpha  occ. eigenvalues --   -0.62578  -0.61788  -0.61629  -0.60938  -0.59905
 Alpha  occ. eigenvalues --   -0.59480  -0.58706  -0.58370  -0.57878  -0.57697
 Alpha  occ. eigenvalues --   -0.57221  -0.57061  -0.56785  -0.56433  -0.55829
 Alpha  occ. eigenvalues --   -0.55543  -0.55508  -0.55105  -0.54834  -0.54629
 Alpha  occ. eigenvalues --   -0.54429  -0.54239  -0.54121  -0.53899  -0.53434
 Alpha  occ. eigenvalues --   -0.53263  -0.53163  -0.53101  -0.52880  -0.52609
 Alpha  occ. eigenvalues --   -0.52527  -0.52418  -0.51817  -0.51701  -0.51500
 Alpha  occ. eigenvalues --   -0.51450  -0.51263  -0.51076  -0.50829  -0.50610
 Alpha  occ. eigenvalues --   -0.50465  -0.50097  -0.49889  -0.49830  -0.49720
 Alpha  occ. eigenvalues --   -0.49497  -0.49227  -0.49027  -0.48776  -0.48555
 Alpha  occ. eigenvalues --   -0.48307  -0.48220  -0.48073  -0.47865  -0.47794
 Alpha  occ. eigenvalues --   -0.47566  -0.47397  -0.47266  -0.47225  -0.47001
 Alpha  occ. eigenvalues --   -0.46654  -0.46517  -0.46056  -0.45868  -0.45724
 Alpha  occ. eigenvalues --   -0.45574  -0.45498  -0.45186  -0.44981  -0.44842
 Alpha  occ. eigenvalues --   -0.44761  -0.44512  -0.44444  -0.44254  -0.44049
 Alpha  occ. eigenvalues --   -0.43996  -0.43697  -0.43385  -0.43248  -0.42669
 Alpha  occ. eigenvalues --   -0.42564  -0.42427  -0.42196  -0.42106  -0.41829
 Alpha  occ. eigenvalues --   -0.41667  -0.41471  -0.41036  -0.40755  -0.40564
 Alpha  occ. eigenvalues --   -0.40192  -0.39765  -0.39707  -0.39455  -0.39442
 Alpha  occ. eigenvalues --   -0.39105  -0.38996  -0.38838  -0.38547  -0.38133
 Alpha  occ. eigenvalues --   -0.37917  -0.37611  -0.37161  -0.36563  -0.36116
 Alpha  occ. eigenvalues --   -0.35943  -0.35796  -0.35583  -0.33621  -0.33372
 Alpha  occ. eigenvalues --   -0.32848  -0.32619  -0.32219  -0.31876  -0.26157
 Alpha  occ. eigenvalues --   -0.23014
 Alpha virt. eigenvalues --   -0.07116   0.00433   0.02501   0.04362   0.06170
 Alpha virt. eigenvalues --    0.06445   0.06975   0.08082   0.08203   0.09166
 Alpha virt. eigenvalues --    0.10561   0.11369   0.11877   0.11980   0.12090

 Mulliken charges:
               1
     1  Mg   0.964923
     2  C   -0.001995
     3  C   -0.113613
     4  C   -0.065367
     5  C   -0.097479
     6  N   -0.384725
     7  C    0.024940
     8  C   -0.057087
     9  C   -0.116217
    10  C    0.076706
    11  C   -0.000679
    12  C   -0.037958
    13  C    0.045754
    14  C    0.215365
    15  O   -0.274073
    16  O   -0.379133
    17  N   -0.485096
    18  C    0.236875
    19  C   -0.160159
    20  C   -0.020844
    21  C    0.142822
    22  C    0.061158
    23  C    0.044148
    24  O   -0.261097
    25  C    0.001318
    26  N   -0.384931
    27  C    0.063316
    28  C   -0.138574
    29  C    0.005337
    30  C    0.061269
    31  C   -0.001401
    32  C   -0.042695
    33  C   -0.044594
    34  N   -0.376906
    35  C    0.106700
    36  C   -0.166520
    37  C   -0.083585
    38  C    0.138707
    39  C    0.088031
    40  C    0.135509
    41  O   -0.158116
    42  C   -0.079782
    43  C    0.223199
    44  O   -0.211448
    45  O   -0.399990
    46  C    0.138418
    47  C    0.234667
    48  C   -0.129676
    49  C   -0.175967
    50  C    0.012198
    51  C    0.028784
    52  C   -0.030900
    53  C   -0.016888
    54  C   -0.187319
    55  C   -0.001517
    56  C   -0.008637
    57  C   -0.014653
    58  C   -0.001537
    59  C   -0.204378
    60  C    0.005486
    61  C    0.021062
    62  C   -0.019049
    63  C    0.023386
    64  C   -0.230021
    65  C   -0.009837
    66  C   -0.006886
    67  H   -0.007695
    68  H    0.024638
    69  H   -0.018568
    70  H    0.056285
    71  H    0.048447
    72  H    0.048188
    73  H    0.039909
    74  H    0.041294
    75  H    0.038960
    76  H    0.032444
    77  H    0.033742
    78  H    0.063035
    79  H    0.045233
    80  H    0.018444
    81  H    0.043965
    82  H    0.065166
    83  H    0.045496
    84  H    0.059087
    85  H    0.054316
    86  H    0.031334
    87  H    0.029443
    88  H    0.037730
    89  H    0.058587
    90  H    0.030982
    91  H    0.037178
    92  H    0.040178
    93  H    0.057456
    94  H    0.030093
    95  H    0.014915
    96  H    0.062816
    97  H    0.057303
    98  H    0.069455
    99  H    0.046065
   100  H    0.055402
   101  H    0.066475
   102  H    0.072583
   103  H    0.038994
   104  H    0.030576
   105  H    0.023628
   106  H    0.041579
   107  H    0.058633
   108  H    0.035899
   109  H    0.031665
   110  H    0.007929
   111  H    0.025743
   112  H    0.031996
   113  H    0.009718
   114  H    0.009920
   115  H    0.026946
   116  H    0.032147
   117  H    0.021411
   118  H    0.025087
   119  H    0.008706
   120  H    0.026832
   121  H    0.023172
   122  H    0.023206
   123  H    0.024088
   124  H    0.017521
   125  H    0.039356
   126  H    0.016565
   127  H    0.029698
   128  H    0.008167
   129  H    0.001597
   130  H    0.023280
   131  H    0.021788
   132  H    0.018729
   133  H    0.014308
   134  H    0.027876
   135  H    0.036906
   136  H    0.031296
   137  H    0.026626
   138  H    0.035323
   139  H    0.018946
   140  H    0.025015
 Sum of Mulliken charges =  -0.00000

 Dipole moment (field-independent basis, Debye):
    X=             -3.4908    Y=              3.5597    Z=             -1.0630  Tot=              5.0978
 Quadrupole moment (field-independent basis, Debye-Ang):
   XX=           -371.1715   YY=           -412.6495   ZZ=           -406.8340
   XY=             14.5200   XZ=             23.8240   YZ=              5.8416

 Normal termination of Gaussian 16 at Thu May  5 08:02:09 2022.
