 Gaussian 16, Revision A.03,
 Gaussian 16:  ES64L-G16RevA.03 25-Dec-2016

 --------------------
 #p ZINDO=(nstates=5)
 --------------------

 -----------------------------
 step_751_chromophore_16 ZINDO
 -----------------------------
 Symbolic Z-matrix:
 Charge =  0 Multiplicity = 1

                         Standard orientation:
 ---------------------------------------------------------------------
 Center     Atomic      Atomic             Coordinates (Angstroms)
 Number     Number       Type             X           Y           Z
 ---------------------------------------------------------------------
      1         12           0        5.864188    0.645586   -0.060225
      2          6           0        3.969765   -2.318614    0.097298
      3          6           0        3.168768    2.329575   -1.205526
      4          6           0        7.872057    3.402577   -0.345646
      5          6           0        8.551844   -1.238245    0.973992
      6          7           0        3.782681    0.052752   -0.581838
      7          6           0        3.226329   -1.231883   -0.378330
      8          6           0        1.746574   -1.192881   -0.754247
      9          6           0        1.544605    0.349569   -1.134701
     10          6           0        2.881671    0.989244   -0.959193
     11          6           0        1.039152    0.558306   -2.630598
     12          6           0        0.717797   -1.523851    0.392733
     13          6           0       -0.773752   -1.164413    0.476544
     14          6           0       -1.810224   -2.241154    0.747422
     15          8           0       -2.167161   -2.503859    1.900665
     16          8           0       -2.296793   -2.759045   -0.442679
     17          7           0        5.598487    2.563594   -0.749420
     18          6           0        4.372450    3.007377   -1.121342
     19          6           0        4.528983    4.438240   -1.335956
     20          6           0        5.866061    4.750746   -1.208752
     21          6           0        6.516132    3.615138   -0.736442
     22          6           0        3.386867    5.392989   -1.632963
     23          6           0        6.532994    6.088922   -1.423498
     24          8           0        7.766411    6.274665   -1.237823
     25          6           0        5.745539    7.223228   -1.911617
     26          7           0        7.835613    1.075094    0.376887
     27          6           0        8.471860    2.252378    0.151846
     28          6           0        9.897286    2.226064    0.758725
     29          6           0       10.119995    0.794226    1.098858
     30          6           0        8.755651    0.146595    0.824100
     31          6           0       10.944031    2.852638   -0.297133
     32          6           0       10.728324    0.532143    2.527644
     33          6           0        9.869101    0.974123    3.728750
     34          7           0        6.304979   -1.390997    0.462989
     35          6           0        7.446672   -2.023505    0.820113
     36          6           0        7.226769   -3.440428    1.017011
     37          6           0        5.832005   -3.576943    0.776521
     38          6           0        5.374276   -2.323621    0.421296
     39          6           0        8.161625   -4.555980    1.407851
     40          6           0        4.753369   -4.553223    0.818480
     41          8           0        4.679817   -5.723567    0.993655
     42          6           0        3.482353   -3.718926    0.489257
     43          6           0        2.808757   -4.308175   -0.638573
     44          8           0        3.199273   -4.316645   -1.765643
     45          8           0        1.652961   -4.966187   -0.215572
     46          6           0        0.731734   -5.641018   -1.150166
     47          6           0       -3.424386   -3.733641   -0.237485
     48          6           0       -4.766729   -3.039241   -0.201403
     49          6           0       -5.964503   -3.464542   -0.695744
     50          6           0       -6.099620   -4.626336   -1.660633
     51          6           0       -7.252832   -2.637992   -0.337504
     52          6           0       -7.817860   -1.702718   -1.442577
     53          6           0       -8.815556   -0.656605   -0.859036
     54          6           0      -10.279683   -0.742923   -1.406743
     55          6           0      -10.307484   -0.172730   -2.851045
     56          6           0      -11.274767   -0.076314   -0.517044
     57          6           0      -12.791462   -0.324261   -0.844158
     58          6           0      -13.481391    1.098440   -0.979139
     59          6           0      -14.411014    1.354113    0.315667
     60          6           0      -15.891722    1.021500   -0.007770
     61          6           0      -14.183756    2.794743    0.930603
     62          6           0      -13.366009    2.801173    2.239632
     63          6           0      -12.245058    3.834752    2.331071
     64          6           0      -10.839541    3.266318    2.797400
     65          6           0       -9.775822    3.222907    1.659141
     66          6           0      -10.270438    4.005491    4.032923
     67          1           0        2.273251    2.915857   -1.423722
     68          1           0        8.618312    4.180432   -0.522574
     69          1           0        9.391676   -1.804304    1.379855
     70          1           0        1.563195   -1.864462   -1.593131
     71          1           0        0.801051    0.781262   -0.464832
     72          1           0        1.800540    1.004373   -3.270859
     73          1           0        0.156158    1.197983   -2.609192
     74          1           0        0.791079   -0.381849   -3.122253
     75          1           0        1.162568   -1.442601    1.384460
     76          1           0        0.691575   -2.606942    0.272077
     77          1           0       -0.858498   -0.845277   -0.561987
     78          1           0       -1.020339   -0.406421    1.220919
     79          1           0        3.142947    6.211126   -0.955673
     80          1           0        2.413797    4.904024   -1.587173
     81          1           0        3.458239    5.858604   -2.616129
     82          1           0        5.416021    6.980624   -2.921803
     83          1           0        6.437814    8.064876   -1.935802
     84          1           0        4.991775    7.623418   -1.232729
     85          1           0        9.894051    2.896641    1.618479
     86          1           0       10.799625    0.382086    0.352305
     87          1           0       11.793034    2.222705   -0.560477
     88          1           0       11.442326    3.674660    0.218253
     89          1           0       10.473171    3.117711   -1.244304
     90          1           0       11.613505    1.168070    2.514390
     91          1           0       10.984653   -0.516378    2.676383
     92          1           0        9.985321    0.156287    4.439397
     93          1           0        8.864299    1.271982    3.428740
     94          1           0       10.413673    1.809929    4.168701
     95          1           0        8.983364   -4.130682    1.984121
     96          1           0        8.619243   -5.043296    0.547557
     97          1           0        7.723711   -5.257810    2.117869
     98          1           0        2.785527   -3.890448    1.310147
     99          1           0        0.901886   -5.208006   -2.136396
    100          1           0       -0.332073   -5.480896   -0.977891
    101          1           0        1.006668   -6.695520   -1.152609
    102          1           0       -3.290762   -4.285574    0.693076
    103          1           0       -3.334902   -4.419246   -1.080706
    104          1           0       -4.688113   -2.150724    0.426546
    105          1           0       -7.114896   -5.020805   -1.682698
    106          1           0       -5.467969   -5.457573   -1.348265
    107          1           0       -5.911934   -4.436306   -2.717674
    108          1           0       -6.985003   -1.968145    0.479376
    109          1           0       -8.032244   -3.379288   -0.155785
    110          1           0       -8.488543   -2.225823   -2.125186
    111          1           0       -7.039905   -1.201690   -2.018357
    112          1           0       -8.254860    0.267389   -1.003099
    113          1           0       -8.850144   -0.920863    0.197405
    114          1           0      -10.537612   -1.781976   -1.613574
    115          1           0      -10.787220   -0.898847   -3.507270
    116          1           0       -9.317620    0.109811   -3.210785
    117          1           0      -10.944362    0.712214   -2.843029
    118          1           0      -10.992894    0.962918   -0.344354
    119          1           0      -11.137427   -0.614534    0.420384
    120          1           0      -13.086067   -0.866155    0.055071
    121          1           0      -12.925345   -1.022729   -1.670701
    122          1           0      -14.069233    1.158674   -1.895632
    123          1           0      -12.716293    1.874809   -1.000774
    124          1           0      -14.089329    0.629092    1.062523
    125          1           0      -16.511235    0.708670    0.833709
    126          1           0      -15.849379    0.156307   -0.668686
    127          1           0      -16.292972    1.838855   -0.606438
    128          1           0      -15.147841    3.302056    0.949159
    129          1           0      -13.740629    3.371769    0.119083
    130          1           0      -13.015954    1.825896    2.577445
    131          1           0      -14.085704    3.111656    2.996218
    132          1           0      -12.568537    4.601016    3.035593
    133          1           0      -12.198464    4.264263    1.330455
    134          1           0      -10.959416    2.251509    3.177240
    135          1           0       -9.325433    2.231853    1.713475
    136          1           0       -9.014713    4.001639    1.717083
    137          1           0      -10.225127    3.332091    0.672729
    138          1           0      -10.350228    3.335785    4.888648
    139          1           0      -10.831071    4.907524    4.279963
    140          1           0       -9.269126    4.393572    3.845786
 ---------------------------------------------------------------------

 SCF Done:  E(RZINDO/S) =  -474.335125273     A.U. after   19 cycles

 Excitation energies and oscillator strengths:

 Excited State   1:      Singlet-A      1.2653 eV  979.91 nm  f=0.6109  <S**2>=0.000
     175 ->178        -0.17810
     176 ->177         0.66720
 This state for optimization and/or second-order correction.
 Total Energy, E(CIS/TDA) =  -474.288627621
 Copying the excited state density for this state as the 1-particle RhoCI density.

 Excited State   2:      Singlet-A      1.9748 eV  627.83 nm  f=0.0462  <S**2>=0.000
     175 ->177         0.55059
     176 ->178         0.41683

 Excited State   3:      Singlet-A      2.9088 eV  426.24 nm  f=0.0012  <S**2>=0.000
     167 ->179        -0.14329
     168 ->177         0.24895
     168 ->178        -0.13770
     168 ->179        -0.40962
     168 ->180        -0.19122
     168 ->181         0.12174
     168 ->186         0.16447
     169 ->177         0.14029
     169 ->179        -0.20621

 Excited State   4:      Singlet-A      3.0778 eV  402.83 nm  f=0.3753  <S**2>=0.000
     170 ->177         0.24068
     170 ->179         0.23568
     170 ->180        -0.26351
     170 ->181         0.22484
     170 ->186        -0.16476
     170 ->187         0.15424
     170 ->202        -0.12792
     175 ->177         0.21220
     176 ->178        -0.29447

 Excited State   5:      Singlet-A      3.0933 eV  400.81 nm  f=0.8221  <S**2>=0.000
     170 ->177         0.15427
     170 ->179         0.14507
     170 ->180        -0.16611
     170 ->181         0.14200
     170 ->186        -0.10834
     175 ->177        -0.31692
     176 ->178         0.43495
     176 ->179        -0.15191
     176 ->180         0.10270

 The electronic state is 1-A.
 Alpha  occ. eigenvalues --   -1.85559  -1.83402  -1.80353  -1.72960  -1.72617
 Alpha  occ. eigenvalues --   -1.70570  -1.64664  -1.59442  -1.59389  -1.58646
 Alpha  occ. eigenvalues --   -1.53444  -1.50506  -1.49429  -1.47926  -1.47032
 Alpha  occ. eigenvalues --   -1.44696  -1.43853  -1.40245  -1.38966  -1.38834
 Alpha  occ. eigenvalues --   -1.35943  -1.33788  -1.32823  -1.32350  -1.28911
 Alpha  occ. eigenvalues --   -1.26330  -1.26204  -1.22412  -1.21094  -1.18120
 Alpha  occ. eigenvalues --   -1.17635  -1.15669  -1.15466  -1.13795  -1.12832
 Alpha  occ. eigenvalues --   -1.12427  -1.12161  -1.11449  -1.04923  -1.03922
 Alpha  occ. eigenvalues --   -1.02170  -1.01776  -0.99849  -0.98494  -0.97357
 Alpha  occ. eigenvalues --   -0.95750  -0.94293  -0.93767  -0.92732  -0.92139
 Alpha  occ. eigenvalues --   -0.90576  -0.89889  -0.88491  -0.87827  -0.87117
 Alpha  occ. eigenvalues --   -0.85594  -0.83783  -0.82798  -0.82659  -0.81441
 Alpha  occ. eigenvalues --   -0.80548  -0.79138  -0.77094  -0.76912  -0.76319
 Alpha  occ. eigenvalues --   -0.75703  -0.75414  -0.74451  -0.74335  -0.73837
 Alpha  occ. eigenvalues --   -0.73681  -0.72401  -0.71899  -0.71600  -0.70994
 Alpha  occ. eigenvalues --   -0.70571  -0.70009  -0.69171  -0.68442  -0.68235
 Alpha  occ. eigenvalues --   -0.67841  -0.67423  -0.66659  -0.65826  -0.65192
 Alpha  occ. eigenvalues --   -0.64582  -0.64310  -0.64149  -0.63777  -0.63490
 Alpha  occ. eigenvalues --   -0.63042  -0.62655  -0.62424  -0.62402  -0.61816
 Alpha  occ. eigenvalues --   -0.61539  -0.61358  -0.60920  -0.60428  -0.59998
 Alpha  occ. eigenvalues --   -0.59879  -0.59199  -0.58984  -0.58208  -0.58171
 Alpha  occ. eigenvalues --   -0.57937  -0.56865  -0.56780  -0.56585  -0.56213
 Alpha  occ. eigenvalues --   -0.55935  -0.55615  -0.55322  -0.54891  -0.54604
 Alpha  occ. eigenvalues --   -0.54264  -0.54005  -0.53703  -0.53411  -0.53184
 Alpha  occ. eigenvalues --   -0.52632  -0.52345  -0.52177  -0.52035  -0.51755
 Alpha  occ. eigenvalues --   -0.51434  -0.50641  -0.50417  -0.50318  -0.50065
 Alpha  occ. eigenvalues --   -0.49846  -0.49811  -0.49197  -0.48964  -0.48785
 Alpha  occ. eigenvalues --   -0.48349  -0.48117  -0.47786  -0.47574  -0.47386
 Alpha  occ. eigenvalues --   -0.47347  -0.47117  -0.46791  -0.46689  -0.46530
 Alpha  occ. eigenvalues --   -0.46215  -0.45995  -0.45838  -0.45605  -0.45500
 Alpha  occ. eigenvalues --   -0.45183  -0.45021  -0.44657  -0.44364  -0.44097
 Alpha  occ. eigenvalues --   -0.43805  -0.43393  -0.42769  -0.42641  -0.42350
 Alpha  occ. eigenvalues --   -0.41941  -0.41834  -0.41226  -0.39143  -0.38806
 Alpha  occ. eigenvalues --   -0.37656  -0.37034  -0.36026  -0.35351  -0.34377
 Alpha  occ. eigenvalues --   -0.34063  -0.32566  -0.32395  -0.32200  -0.27017
 Alpha  occ. eigenvalues --   -0.21890
 Alpha virt. eigenvalues --   -0.08666  -0.01909  -0.00502   0.01241   0.01436
 Alpha virt. eigenvalues --    0.02639   0.03151   0.03813   0.04391   0.04972
 Alpha virt. eigenvalues --    0.06220   0.06539   0.07237   0.07610   0.08402

 Mulliken charges:
               1
     1  Mg   0.422368
     2  C   -0.029825
     3  C   -0.084801
     4  C   -0.064111
     5  C   -0.049201
     6  N   -0.294962
     7  C    0.095223
     8  C    0.010734
     9  C   -0.000846
    10  C    0.168005
    11  C   -0.055049
    12  C   -0.032490
    13  C    0.004251
    14  C    0.472776
    15  O   -0.516560
    16  O   -0.270282
    17  N   -0.336970
    18  C    0.138402
    19  C    0.018775
    20  C   -0.017747
    21  C    0.142122
    22  C   -0.052194
    23  C    0.329633
    24  O   -0.536168
    25  C   -0.031436
    26  N   -0.261971
    27  C    0.144631
    28  C    0.008988
    29  C    0.009508
    30  C    0.094640
    31  C   -0.062977
    32  C   -0.033270
    33  C   -0.060587
    34  N   -0.314312
    35  C    0.092285
    36  C    0.011315
    37  C   -0.064415
    38  C    0.117797
    39  C   -0.035091
    40  C    0.345210
    41  O   -0.502909
    42  C    0.050146
    43  C    0.500616
    44  O   -0.523355
    45  O   -0.298248
    46  C    0.073130
    47  C    0.104143
    48  C   -0.077690
    49  C   -0.016840
    50  C   -0.040399
    51  C   -0.022513
    52  C   -0.042988
    53  C   -0.045575
    54  C   -0.007291
    55  C   -0.063864
    56  C   -0.033434
    57  C   -0.044230
    58  C   -0.037577
    59  C   -0.024205
    60  C   -0.058112
    61  C   -0.038255
    62  C   -0.031926
    63  C   -0.034862
    64  C   -0.015369
    65  C   -0.057053
    66  C   -0.060576
    67  H    0.024255
    68  H    0.047499
    69  H    0.013827
    70  H    0.048663
    71  H    0.033062
    72  H    0.025937
    73  H    0.018266
    74  H    0.024630
    75  H    0.025209
    76  H    0.011512
    77  H    0.032023
    78  H    0.045887
    79  H    0.031600
    80  H    0.013700
    81  H    0.029399
    82  H    0.046052
    83  H    0.028599
    84  H    0.043157
    85  H    0.038339
    86  H    0.026490
    87  H    0.017251
    88  H    0.020288
    89  H    0.034274
    90  H    0.015082
    91  H    0.024552
    92  H    0.023994
    93  H    0.035925
    94  H    0.015383
    95  H    0.010573
    96  H    0.040292
    97  H    0.036059
    98  H    0.061945
    99  H    0.037440
   100  H    0.039889
   101  H    0.046260
   102  H    0.060853
   103  H    0.032784
   104  H    0.034732
   105  H    0.014740
   106  H    0.022531
   107  H    0.033313
   108  H    0.031047
   109  H    0.031262
   110  H    0.017508
   111  H    0.021999
   112  H    0.026392
   113  H    0.012032
   114  H    0.022226
   115  H    0.016423
   116  H    0.021420
   117  H    0.014102
   118  H    0.029497
   119  H    0.002064
   120  H    0.020974
   121  H    0.027227
   122  H    0.021800
   123  H    0.024668
   124  H    0.019397
   125  H    0.025340
   126  H    0.008970
   127  H    0.022351
   128  H    0.019314
   129  H    0.014667
   130  H    0.028179
   131  H    0.009636
   132  H    0.020032
   133  H    0.021839
   134  H    0.021198
   135  H    0.017432
   136  H    0.023123
   137  H    0.014375
   138  H    0.020620
   139  H    0.013498
   140  H    0.020966
 Sum of Mulliken charges =  -0.00000

 Dipole moment (field-independent basis, Debye):
    X=             -5.1404    Y=              6.4804    Z=             -1.6919  Tot=              8.4429
 N-N= 4.244144170133D+03 E-N= 0.000000000000D+00  KE=-9.162584733912D+03
 Leave Link  601 at Thu May  5 08:14:17 2022, MaxMem=  6710886400 cpu:               1.0 elap:               0.1
 (Enter /sw/apps/gaussian-16.0/g16/l9999.exe)
 1\1\GINC-BP1-COMPUTE132\SP\RZINDO CIS\STO-3G\C55H74Mg1N4O6\OF15641\05-
 May-2022\0\\#p ZINDO=(nstates=5)\\step_751_chromophore_16 ZINDO\\0,1\M
 g,0,41.22,41.164,27.361\C,0,40.226,43.642,29.657\C,0,41.808,39.018,29.
 903\C,0,42.342,38.92,25.033\C,0,40.713,43.51,24.895\N,0,41.105,41.331,
 29.578\C,0,40.614,42.453,30.286\C,0,40.591,42.123,31.777\C,0,41.083,40
 .599,31.784\C,0,41.34,40.249,30.356\C,0,42.408,40.379,32.64\C,0,39.184
 ,42.157,32.486\C,0,38.755,41.484,33.799\C,0,38.098,42.297,34.901\O,0,3

 Normal termination of Gaussian 16 at Thu May  5 08:14:17 2022.
