 Gaussian 16, Revision A.03,
 Gaussian 16:  ES64L-G16RevA.03 25-Dec-2016

 ------------------------------
 #p blyp/Def2SVP td=(nstates=5)
 ------------------------------

 ---------------------------------------------------
 step_1151_chromophore_23 TDDFT with blyp functional
 ---------------------------------------------------
 Symbolic Z-matrix:
 Charge =  0 Multiplicity = 1

                         Standard orientation:
 ---------------------------------------------------------------------
 Center     Atomic      Atomic             Coordinates (Angstroms)
 Number     Number       Type             X           Y           Z
 ---------------------------------------------------------------------
      1         12           0        4.862999    0.383414   -0.374806
      2          6           0        3.091857   -2.590143    0.084660
      3          6           0        2.795366    1.380320   -2.854130
      4          6           0        6.228127    3.498171   -0.120664
      5          6           0        6.709468   -0.572065    2.509567
      6          7           0        2.974000   -0.438584   -1.133272
      7          6           0        2.545544   -1.738425   -0.892327
      8          6           0        1.524562   -2.101785   -2.007696
      9          6           0        1.518654   -0.865266   -2.987557
     10          6           0        2.548752    0.089784   -2.321076
     11          6           0        1.870163   -1.215325   -4.417642
     12          6           0        0.133816   -2.306171   -1.297740
     13          6           0       -0.579547   -3.638768   -1.670901
     14          6           0       -1.982172   -3.754911   -2.229317
     15          8           0       -2.283857   -4.048719   -3.357621
     16          8           0       -2.868888   -3.429691   -1.169801
     17          7           0        4.565710    2.208294   -1.397379
     18          6           0        3.686358    2.353898   -2.345756
     19          6           0        3.642999    3.740174   -2.699010
     20          6           0        4.579172    4.455917   -1.854874
     21          6           0        5.284029    3.317787   -1.149300
     22          6           0        2.534427    4.312595   -3.625150
     23          6           0        4.840281    5.972946   -1.754745
     24          8           0        4.327724    6.749929   -2.511786
     25          6           0        5.753564    6.595184   -0.863441
     26          7           0        6.253836    1.324581    1.053525
     27          6           0        6.703441    2.575880    0.852759
     28          6           0        7.874340    2.967984    1.778917
     29          6           0        8.089329    1.671579    2.600538
     30          6           0        6.985789    0.746099    2.038828
     31          6           0        9.138998    3.536510    1.109473
     32          6           0        7.842715    1.983834    4.107415
     33          6           0        6.473139    2.169935    4.613616
     34          7           0        4.905704   -1.215347    1.069494
     35          6           0        5.791517   -1.473764    2.078703
     36          6           0        5.615888   -2.856145    2.544144
     37          6           0        4.507369   -3.357471    1.844517
     38          6           0        4.164732   -2.297452    0.920559
     39          6           0        6.509585   -3.374040    3.603172
     40          6           0        3.679104   -4.480449    1.605564
     41          8           0        3.572921   -5.620560    2.089984
     42          6           0        2.717530   -4.012982    0.473034
     43          6           0        2.786269   -4.999536   -0.652696
     44          8           0        3.691617   -4.997198   -1.498911
     45          8           0        1.808119   -5.994103   -0.623367
     46          6           0        1.879959   -7.072897   -1.618162
     47          6           0       -4.221099   -3.635489   -1.693728
     48          6           0       -5.225620   -3.173502   -0.550601
     49          6           0       -5.496899   -1.955805   -0.023344
     50          6           0       -4.699447   -0.703342   -0.456874
     51          6           0       -6.631133   -1.672303    0.974593
     52          6           0       -7.895207   -1.431335    0.050406
     53          6           0       -9.092254   -2.307092    0.525733
     54          6           0      -10.250351   -1.435361    1.068496
     55          6           0      -11.581783   -2.200426    1.248630
     56          6           0       -9.931708   -0.625765    2.314913
     57          6           0      -10.231536    0.918767    2.078418
     58          6           0       -9.623874    1.830515    3.182348
     59          6           0       -8.575741    2.970608    2.682179
     60          6           0       -7.613821    3.273998    3.861713
     61          6           0       -9.288415    4.196149    2.043142
     62          6           0       -8.589450    4.888006    0.842527
     63          6           0       -9.142307    4.376307   -0.484453
     64          6           0       -8.045237    3.880495   -1.489954
     65          6           0       -8.379295    4.272713   -3.013271
     66          6           0       -7.749087    2.394761   -1.393010
     67          1           0        2.183053    1.606636   -3.728784
     68          1           0        6.783394    4.437057   -0.065148
     69          1           0        7.394404   -0.864712    3.307644
     70          1           0        1.762937   -2.973427   -2.616685
     71          1           0        0.549503   -0.367957   -2.984257
     72          1           0        2.433462   -0.467949   -4.976850
     73          1           0        0.974600   -1.394819   -5.012379
     74          1           0        2.486881   -2.113750   -4.401257
     75          1           0       -0.564564   -1.567032   -1.690636
     76          1           0        0.285905   -2.138894   -0.231286
     77          1           0       -0.480802   -4.162124   -0.719842
     78          1           0       -0.016515   -4.307120   -2.322208
     79          1           0        2.859998    5.299254   -3.956476
     80          1           0        1.627879    4.272402   -3.021452
     81          1           0        2.472053    3.656951   -4.492936
     82          1           0        6.748058    6.242142   -1.134341
     83          1           0        5.419577    6.256994    0.117446
     84          1           0        5.778802    7.682900   -0.936015
     85          1           0        7.546879    3.757953    2.454646
     86          1           0        9.096084    1.260453    2.523995
     87          1           0       10.075489    3.296161    1.612183
     88          1           0        9.025458    4.607948    0.941102
     89          1           0        9.189819    3.084848    0.118729
     90          1           0        8.422765    2.858354    4.404508
     91          1           0        8.321428    1.132385    4.590634
     92          1           0        6.297262    2.876386    5.424612
     93          1           0        6.050138    1.233703    4.976511
     94          1           0        5.759021    2.541724    3.879399
     95          1           0        6.181696   -4.398564    3.777875
     96          1           0        6.508817   -2.837427    4.552130
     97          1           0        7.532069   -3.408543    3.226858
     98          1           0        1.703023   -4.077057    0.866077
     99          1           0        1.000070   -7.689740   -1.438302
    100          1           0        2.736760   -7.713407   -1.411354
    101          1           0        1.942065   -6.598179   -2.597716
    102          1           0       -4.468702   -4.587376   -2.163664
    103          1           0       -4.405978   -2.919065   -2.493301
    104          1           0       -5.925630   -3.929389   -0.194900
    105          1           0       -4.211172   -0.305640    0.433295
    106          1           0       -5.465457   -0.016023   -0.815625
    107          1           0       -3.988559   -0.882880   -1.263265
    108          1           0       -6.278555   -0.899350    1.657799
    109          1           0       -6.742071   -2.505900    1.667710
    110          1           0       -7.692643   -1.654716   -0.997012
    111          1           0       -8.204471   -0.386188    0.016864
    112          1           0       -8.621590   -2.929687    1.286613
    113          1           0       -9.503375   -2.988805   -0.219393
    114          1           0      -10.528997   -0.684301    0.329736
    115          1           0      -11.899354   -2.736376    0.354823
    116          1           0      -12.343815   -1.491559    1.573685
    117          1           0      -11.374074   -3.042264    1.909035
    118          1           0       -8.854311   -0.702686    2.463584
    119          1           0      -10.364502   -0.945181    3.263570
    120          1           0      -11.309375    1.022156    2.198123
    121          1           0       -9.805568    1.163090    1.105424
    122          1           0       -9.183439    1.222478    3.972897
    123          1           0      -10.512729    2.275230    3.628407
    124          1           0       -7.971794    2.470990    1.924234
    125          1           0       -7.998173    3.041899    4.854798
    126          1           0       -7.262595    4.304930    3.909775
    127          1           0       -6.744814    2.657560    3.630094
    128          1           0       -9.326237    4.883392    2.887507
    129          1           0      -10.330096    3.984539    1.802975
    130          1           0       -7.513530    4.808176    0.991795
    131          1           0       -8.742813    5.965762    0.772214
    132          1           0       -9.775515    5.151013   -0.916371
    133          1           0       -9.872568    3.602793   -0.247491
    134          1           0       -7.127082    4.445520   -1.328809
    135          1           0       -9.442241    4.505979   -3.079645
    136          1           0       -8.145741    3.605065   -3.842617
    137          1           0       -7.814750    5.192068   -3.167175
    138          1           0       -6.662703    2.364232   -1.315921
    139          1           0       -8.072122    1.796573   -2.245193
    140          1           0       -8.157309    1.952144   -0.484748
 ---------------------------------------------------------------------

 SCF Done:  E(RB-LYP) =  -3007.36608088     A.U. after   22 cycles

 Excitation energies and oscillator strengths:

 Excited State   1:      Singlet-A      1.7257 eV  718.44 nm  f=0.0306  <S**2>=0.000
     244 -> 247        0.67072
     246 -> 247       -0.21798
 This state for optimization and/or second-order correction.
 Total Energy, E(TD-HF/TD-DFT) =  -3007.30266077
 Copying the excited state density for this state as the 1-particle RhoCI density.

 Excited State   2:      Singlet-A      1.8387 eV  674.29 nm  f=0.2697  <S**2>=0.000
     244 -> 247        0.21925
     245 -> 248        0.19763
     246 -> 247        0.65111
     246 <- 247       -0.13766

 Excited State   3:      Singlet-A      2.0453 eV  606.19 nm  f=0.0407  <S**2>=0.000
     243 -> 247       -0.31169
     245 -> 247        0.57047
     246 -> 248       -0.24585

 Excited State   4:      Singlet-A      2.0625 eV  601.13 nm  f=0.0108  <S**2>=0.000
     243 -> 247        0.63259
     245 -> 247        0.27292
     246 -> 248       -0.12692

 Excited State   5:      Singlet-A      2.1042 eV  589.22 nm  f=0.0013  <S**2>=0.000
     242 -> 247        0.69830

 The electronic state is 1-A.
 Alpha  occ. eigenvalues --  -46.29003 -18.81933 -18.81614 -18.78127 -18.76355
 Alpha  occ. eigenvalues --  -18.75930 -18.74931 -14.03992 -14.03763 -14.01658
 Alpha  occ. eigenvalues --  -14.01260 -10.04161 -10.03852  -9.99974  -9.99339
 Alpha  occ. eigenvalues --   -9.97623  -9.97552  -9.97445  -9.97080  -9.97077
 Alpha  occ. eigenvalues --   -9.96875  -9.96434  -9.95442  -9.95236  -9.94950
 Alpha  occ. eigenvalues --   -9.94548  -9.94301  -9.94165  -9.94159  -9.94155
 Alpha  occ. eigenvalues --   -9.93897  -9.93865  -9.93680  -9.93514  -9.93420
 Alpha  occ. eigenvalues --   -9.93253  -9.93104  -9.93077  -9.93012  -9.92859
 Alpha  occ. eigenvalues --   -9.92739  -9.92734  -9.92649  -9.92571  -9.92545
 Alpha  occ. eigenvalues --   -9.92314  -9.92124  -9.92098  -9.92059  -9.91854
 Alpha  occ. eigenvalues --   -9.91785  -9.91731  -9.91653  -9.91423  -9.91393
 Alpha  occ. eigenvalues --   -9.91281  -9.91225  -9.91190  -9.91165  -9.91055
 Alpha  occ. eigenvalues --   -9.91036  -9.90975  -9.90913  -9.90767  -9.90763
 Alpha  occ. eigenvalues --   -9.90569  -2.93409  -1.73815  -1.73289  -1.73137
 Alpha  occ. eigenvalues --   -0.97615  -0.96327  -0.92923  -0.90777  -0.90542
 Alpha  occ. eigenvalues --   -0.88583  -0.87821  -0.87338  -0.86679  -0.85071
 Alpha  occ. eigenvalues --   -0.76130  -0.73400  -0.73215  -0.72541  -0.72423
 Alpha  occ. eigenvalues --   -0.72291  -0.71448  -0.71243  -0.71102  -0.70147
 Alpha  occ. eigenvalues --   -0.69289  -0.69046  -0.68299  -0.67825  -0.67222
 Alpha  occ. eigenvalues --   -0.66774  -0.66099  -0.65676  -0.65193  -0.64616
 Alpha  occ. eigenvalues --   -0.63830  -0.62919  -0.62175  -0.61440  -0.61080
 Alpha  occ. eigenvalues --   -0.60082  -0.60037  -0.59796  -0.59325  -0.58769
 Alpha  occ. eigenvalues --   -0.58256  -0.57446  -0.57177  -0.55867  -0.55395
 Alpha  occ. eigenvalues --   -0.54868  -0.53655  -0.53023  -0.52734  -0.51720
 Alpha  occ. eigenvalues --   -0.51707  -0.51156  -0.51062  -0.50754  -0.49557
 Alpha  occ. eigenvalues --   -0.49510  -0.49427  -0.48674  -0.48185  -0.46829
 Alpha  occ. eigenvalues --   -0.46577  -0.45933  -0.45312  -0.44950  -0.44699
 Alpha  occ. eigenvalues --   -0.44352  -0.43621  -0.43322  -0.42872  -0.42512
 Alpha  occ. eigenvalues --   -0.42392  -0.42028  -0.41532  -0.41469  -0.41255
 Alpha  occ. eigenvalues --   -0.40915  -0.40814  -0.40580  -0.40415  -0.40268
 Alpha  occ. eigenvalues --   -0.40157  -0.39815  -0.39529  -0.39441  -0.39328
 Alpha  occ. eigenvalues --   -0.39086  -0.38938  -0.38778  -0.38515  -0.38274
 Alpha  occ. eigenvalues --   -0.38172  -0.38097  -0.37556  -0.37301  -0.37145
 Alpha  occ. eigenvalues --   -0.37101  -0.36998  -0.36835  -0.36617  -0.36416
 Alpha  occ. eigenvalues --   -0.36290  -0.36138  -0.36047  -0.35928  -0.35822
 Alpha  occ. eigenvalues --   -0.35544  -0.35366  -0.35351  -0.34984  -0.34964
 Alpha  occ. eigenvalues --   -0.34698  -0.34455  -0.34264  -0.34114  -0.34018
 Alpha  occ. eigenvalues --   -0.33983  -0.33897  -0.33354  -0.33172  -0.33111
 Alpha  occ. eigenvalues --   -0.33016  -0.32899  -0.32675  -0.32623  -0.32405
 Alpha  occ. eigenvalues --   -0.32242  -0.32105  -0.31874  -0.31788  -0.31706
 Alpha  occ. eigenvalues --   -0.31424  -0.31166  -0.31135  -0.31042  -0.30734
 Alpha  occ. eigenvalues --   -0.30654  -0.30585  -0.30131  -0.30050  -0.29806
 Alpha  occ. eigenvalues --   -0.29715  -0.29661  -0.29564  -0.29146  -0.29040
 Alpha  occ. eigenvalues --   -0.28954  -0.28601  -0.28001  -0.27808  -0.27738
 Alpha  occ. eigenvalues --   -0.27147  -0.26891  -0.26692  -0.26488  -0.26321
 Alpha  occ. eigenvalues --   -0.26113  -0.25776  -0.25677  -0.25588  -0.25206
 Alpha  occ. eigenvalues --   -0.25076  -0.25068  -0.24623  -0.24458  -0.24373
 Alpha  occ. eigenvalues --   -0.23502  -0.23039  -0.22438  -0.21533  -0.21272
 Alpha  occ. eigenvalues --   -0.20536  -0.19471  -0.19181  -0.18035  -0.17824
 Alpha  occ. eigenvalues --   -0.16143
 Alpha virt. eigenvalues --   -0.11745  -0.07506  -0.06870  -0.04825  -0.04056
 Alpha virt. eigenvalues --   -0.03430  -0.03034  -0.01905  -0.01296   0.00137
 Alpha virt. eigenvalues --    0.01133   0.01432   0.01672   0.02146   0.02849

 Mulliken charges:
               1
     1  Mg   0.672760
     2  C    0.101981
     3  C   -0.076998
     4  C   -0.047499
     5  C   -0.083798
     6  N   -0.239131
     7  C   -0.074778
     8  C   -0.027436
     9  C    0.021770
    10  C    0.014372
    11  C    0.115754
    12  C    0.132989
    13  C    0.119333
    14  C    0.074395
    15  O   -0.163165
    16  O   -0.284472
    17  N   -0.228716
    18  C    0.165123
    19  C   -0.188921
    20  C   -0.023173
    21  C    0.129092
    22  C    0.178897
    23  C   -0.096301
    24  O   -0.145258
    25  C    0.178921
    26  N   -0.176276
    27  C   -0.025054
    28  C    0.033579
    29  C    0.058416
    30  C   -0.030215
    31  C    0.113817
    32  C    0.056455
    33  C    0.093489
    34  N   -0.195119
    35  C    0.143983
    36  C   -0.183906
    37  C    0.122098
    38  C    0.017718
    39  C    0.179418
    40  C   -0.050297
    41  O   -0.143174
    42  C    0.056659
    43  C    0.101945
    44  O   -0.211253
    45  O   -0.287215
    46  C    0.227392
    47  C    0.295723
    48  C   -0.061219
    49  C   -0.201439
    50  C    0.143952
    51  C    0.127580
    52  C    0.076126
    53  C    0.116349
    54  C   -0.059828
    55  C    0.103627
    56  C    0.072624
    57  C    0.034566
    58  C    0.083416
    59  C   -0.077728
    60  C    0.105077
    61  C    0.112443
    62  C    0.080463
    63  C    0.102636
    64  C   -0.093269
    65  C    0.066884
    66  C    0.092429
    67  H   -0.053122
    68  H   -0.082326
    69  H   -0.074841
    70  H    0.002250
    71  H   -0.021488
    72  H   -0.012306
    73  H   -0.005333
    74  H   -0.006730
    75  H   -0.019730
    76  H   -0.000344
    77  H   -0.001348
    78  H   -0.017215
    79  H    0.011204
    80  H    0.012938
    81  H   -0.007850
    82  H    0.021565
    83  H    0.002209
    84  H   -0.009872
    85  H   -0.019376
    86  H   -0.025906
    87  H   -0.001546
    88  H   -0.000754
    89  H   -0.013183
    90  H   -0.021906
    91  H   -0.027564
    92  H   -0.016268
    93  H   -0.012821
    94  H   -0.011466
    95  H    0.002105
    96  H    0.008797
    97  H   -0.001560
    98  H   -0.005809
    99  H    0.016372
   100  H    0.018430
   101  H    0.021990
   102  H    0.000187
   103  H   -0.015434
   104  H   -0.055695
   105  H   -0.000486
   106  H   -0.008526
   107  H   -0.010823
   108  H   -0.023277
   109  H   -0.016481
   110  H   -0.009757
   111  H   -0.022158
   112  H   -0.037175
   113  H   -0.037116
   114  H   -0.037155
   115  H   -0.029491
   116  H   -0.007990
   117  H   -0.025773
   118  H   -0.044014
   119  H   -0.029859
   120  H   -0.024088
   121  H   -0.005889
   122  H   -0.035389
   123  H   -0.040085
   124  H   -0.033469
   125  H   -0.005943
   126  H   -0.023188
   127  H   -0.017335
   128  H   -0.046863
   129  H   -0.030887
   130  H   -0.029572
   131  H   -0.035010
   132  H   -0.038558
   133  H   -0.033214
   134  H   -0.027765
   135  H   -0.015306
   136  H   -0.011021
   137  H   -0.017681
   138  H   -0.008999
   139  H   -0.009108
   140  H    0.004581
 Sum of Mulliken charges =  -0.00000

 Dipole moment (field-independent basis, Debye):
    X=              2.0230    Y=              2.5628    Z=              1.9458  Tot=              3.8008
 Quadrupole moment (field-independent basis, Debye-Ang):
   XX=           -356.2010   YY=           -442.4619   ZZ=           -408.7747
   XY=             13.7498   XZ=             15.0131   YZ=             22.6347

 Normal termination of Gaussian 16 at Wed May  4 01:06:27 2022.
