 Gaussian 16, Revision A.03,
 Gaussian 16:  ES64L-G16RevA.03 25-Dec-2016

 -----------------------------------
 #p cam-b3lyp/Def2SVP td=(nstates=5)
 -----------------------------------

 --------------------------------------------------------
 step_1151_chromophore_23 TDDFT with cam-b3lyp functional
 --------------------------------------------------------
 Symbolic Z-matrix:
 Charge =  0 Multiplicity = 1

                         Standard orientation:
 ---------------------------------------------------------------------
 Center     Atomic      Atomic             Coordinates (Angstroms)
 Number     Number       Type             X           Y           Z
 ---------------------------------------------------------------------
      1         12           0        4.862999    0.383414   -0.374806
      2          6           0        3.091857   -2.590143    0.084660
      3          6           0        2.795366    1.380320   -2.854130
      4          6           0        6.228127    3.498171   -0.120664
      5          6           0        6.709468   -0.572065    2.509567
      6          7           0        2.974000   -0.438584   -1.133272
      7          6           0        2.545544   -1.738425   -0.892327
      8          6           0        1.524562   -2.101785   -2.007696
      9          6           0        1.518654   -0.865266   -2.987557
     10          6           0        2.548752    0.089784   -2.321076
     11          6           0        1.870163   -1.215325   -4.417642
     12          6           0        0.133816   -2.306171   -1.297740
     13          6           0       -0.579547   -3.638768   -1.670901
     14          6           0       -1.982172   -3.754911   -2.229317
     15          8           0       -2.283857   -4.048719   -3.357621
     16          8           0       -2.868888   -3.429691   -1.169801
     17          7           0        4.565710    2.208294   -1.397379
     18          6           0        3.686358    2.353898   -2.345756
     19          6           0        3.642999    3.740174   -2.699010
     20          6           0        4.579172    4.455917   -1.854874
     21          6           0        5.284029    3.317787   -1.149300
     22          6           0        2.534427    4.312595   -3.625150
     23          6           0        4.840281    5.972946   -1.754745
     24          8           0        4.327724    6.749929   -2.511786
     25          6           0        5.753564    6.595184   -0.863441
     26          7           0        6.253836    1.324581    1.053525
     27          6           0        6.703441    2.575880    0.852759
     28          6           0        7.874340    2.967984    1.778917
     29          6           0        8.089329    1.671579    2.600538
     30          6           0        6.985789    0.746099    2.038828
     31          6           0        9.138998    3.536510    1.109473
     32          6           0        7.842715    1.983834    4.107415
     33          6           0        6.473139    2.169935    4.613616
     34          7           0        4.905704   -1.215347    1.069494
     35          6           0        5.791517   -1.473764    2.078703
     36          6           0        5.615888   -2.856145    2.544144
     37          6           0        4.507369   -3.357471    1.844517
     38          6           0        4.164732   -2.297452    0.920559
     39          6           0        6.509585   -3.374040    3.603172
     40          6           0        3.679104   -4.480449    1.605564
     41          8           0        3.572921   -5.620560    2.089984
     42          6           0        2.717530   -4.012982    0.473034
     43          6           0        2.786269   -4.999536   -0.652696
     44          8           0        3.691617   -4.997198   -1.498911
     45          8           0        1.808119   -5.994103   -0.623367
     46          6           0        1.879959   -7.072897   -1.618162
     47          6           0       -4.221099   -3.635489   -1.693728
     48          6           0       -5.225620   -3.173502   -0.550601
     49          6           0       -5.496899   -1.955805   -0.023344
     50          6           0       -4.699447   -0.703342   -0.456874
     51          6           0       -6.631133   -1.672303    0.974593
     52          6           0       -7.895207   -1.431335    0.050406
     53          6           0       -9.092254   -2.307092    0.525733
     54          6           0      -10.250351   -1.435361    1.068496
     55          6           0      -11.581783   -2.200426    1.248630
     56          6           0       -9.931708   -0.625765    2.314913
     57          6           0      -10.231536    0.918767    2.078418
     58          6           0       -9.623874    1.830515    3.182348
     59          6           0       -8.575741    2.970608    2.682179
     60          6           0       -7.613821    3.273998    3.861713
     61          6           0       -9.288415    4.196149    2.043142
     62          6           0       -8.589450    4.888006    0.842527
     63          6           0       -9.142307    4.376307   -0.484453
     64          6           0       -8.045237    3.880495   -1.489954
     65          6           0       -8.379295    4.272713   -3.013271
     66          6           0       -7.749087    2.394761   -1.393010
     67          1           0        2.183053    1.606636   -3.728784
     68          1           0        6.783394    4.437057   -0.065148
     69          1           0        7.394404   -0.864712    3.307644
     70          1           0        1.762937   -2.973427   -2.616685
     71          1           0        0.549503   -0.367957   -2.984257
     72          1           0        2.433462   -0.467949   -4.976850
     73          1           0        0.974600   -1.394819   -5.012379
     74          1           0        2.486881   -2.113750   -4.401257
     75          1           0       -0.564564   -1.567032   -1.690636
     76          1           0        0.285905   -2.138894   -0.231286
     77          1           0       -0.480802   -4.162124   -0.719842
     78          1           0       -0.016515   -4.307120   -2.322208
     79          1           0        2.859998    5.299254   -3.956476
     80          1           0        1.627879    4.272402   -3.021452
     81          1           0        2.472053    3.656951   -4.492936
     82          1           0        6.748058    6.242142   -1.134341
     83          1           0        5.419577    6.256994    0.117446
     84          1           0        5.778802    7.682900   -0.936015
     85          1           0        7.546879    3.757953    2.454646
     86          1           0        9.096084    1.260453    2.523995
     87          1           0       10.075489    3.296161    1.612183
     88          1           0        9.025458    4.607948    0.941102
     89          1           0        9.189819    3.084848    0.118729
     90          1           0        8.422765    2.858354    4.404508
     91          1           0        8.321428    1.132385    4.590634
     92          1           0        6.297262    2.876386    5.424612
     93          1           0        6.050138    1.233703    4.976511
     94          1           0        5.759021    2.541724    3.879399
     95          1           0        6.181696   -4.398564    3.777875
     96          1           0        6.508817   -2.837427    4.552130
     97          1           0        7.532069   -3.408543    3.226858
     98          1           0        1.703023   -4.077057    0.866077
     99          1           0        1.000070   -7.689740   -1.438302
    100          1           0        2.736760   -7.713407   -1.411354
    101          1           0        1.942065   -6.598179   -2.597716
    102          1           0       -4.468702   -4.587376   -2.163664
    103          1           0       -4.405978   -2.919065   -2.493301
    104          1           0       -5.925630   -3.929389   -0.194900
    105          1           0       -4.211172   -0.305640    0.433295
    106          1           0       -5.465457   -0.016023   -0.815625
    107          1           0       -3.988559   -0.882880   -1.263265
    108          1           0       -6.278555   -0.899350    1.657799
    109          1           0       -6.742071   -2.505900    1.667710
    110          1           0       -7.692643   -1.654716   -0.997012
    111          1           0       -8.204471   -0.386188    0.016864
    112          1           0       -8.621590   -2.929687    1.286613
    113          1           0       -9.503375   -2.988805   -0.219393
    114          1           0      -10.528997   -0.684301    0.329736
    115          1           0      -11.899354   -2.736376    0.354823
    116          1           0      -12.343815   -1.491559    1.573685
    117          1           0      -11.374074   -3.042264    1.909035
    118          1           0       -8.854311   -0.702686    2.463584
    119          1           0      -10.364502   -0.945181    3.263570
    120          1           0      -11.309375    1.022156    2.198123
    121          1           0       -9.805568    1.163090    1.105424
    122          1           0       -9.183439    1.222478    3.972897
    123          1           0      -10.512729    2.275230    3.628407
    124          1           0       -7.971794    2.470990    1.924234
    125          1           0       -7.998173    3.041899    4.854798
    126          1           0       -7.262595    4.304930    3.909775
    127          1           0       -6.744814    2.657560    3.630094
    128          1           0       -9.326237    4.883392    2.887507
    129          1           0      -10.330096    3.984539    1.802975
    130          1           0       -7.513530    4.808176    0.991795
    131          1           0       -8.742813    5.965762    0.772214
    132          1           0       -9.775515    5.151013   -0.916371
    133          1           0       -9.872568    3.602793   -0.247491
    134          1           0       -7.127082    4.445520   -1.328809
    135          1           0       -9.442241    4.505979   -3.079645
    136          1           0       -8.145741    3.605065   -3.842617
    137          1           0       -7.814750    5.192068   -3.167175
    138          1           0       -6.662703    2.364232   -1.315921
    139          1           0       -8.072122    1.796573   -2.245193
    140          1           0       -8.157309    1.952144   -0.484748
 ---------------------------------------------------------------------

 SCF Done:  E(RCAM-B3LYP) =  -3007.15861638     A.U. after   17 cycles

 Excitation energies and oscillator strengths:

 Excited State   1:      Singlet-A      1.7374 eV  713.62 nm  f=0.3649  <S**2>=0.000
     245 -> 248        0.19057
     246 -> 247        0.68275
     245 <- 248        0.10953
 This state for optimization and/or second-order correction.
 Total Energy, E(TD-HF/TD-DFT) =  -3007.09476812
 Copying the excited state density for this state as the 1-particle RhoCI density.

 Excited State   2:      Singlet-A      2.2825 eV  543.20 nm  f=0.0552  <S**2>=0.000
     245 -> 247        0.61115
     246 -> 248       -0.34749

 Excited State   3:      Singlet-A      3.4183 eV  362.71 nm  f=0.0713  <S**2>=0.000
     242 -> 251        0.10675
     243 -> 247        0.61821
     243 -> 249       -0.12238
     245 -> 247        0.10488
     246 -> 248        0.24136

 Excited State   4:      Singlet-A      3.4778 eV  356.50 nm  f=0.6767  <S**2>=0.000
     241 -> 247       -0.19091
     243 -> 247       -0.23947
     245 -> 247        0.31332
     246 -> 248        0.54152
     245 <- 247       -0.10193

 Excited State   5:      Singlet-A      3.6316 eV  341.40 nm  f=0.0000  <S**2>=0.000
     242 -> 247        0.56773
     242 -> 248        0.11977
     242 -> 249       -0.18680
     242 -> 251       -0.24182
     243 -> 251        0.15356

 The electronic state is 1-A.
 Alpha  occ. eigenvalues --  -46.90716 -19.24855 -19.24558 -19.21258 -19.19518
 Alpha  occ. eigenvalues --  -19.19137 -19.18066 -14.43022 -14.42518 -14.40152
 Alpha  occ. eigenvalues --  -14.39688 -10.39590 -10.39431 -10.35385 -10.34336
 Alpha  occ. eigenvalues --  -10.32021 -10.31699 -10.31653 -10.31615 -10.31413
 Alpha  occ. eigenvalues --  -10.31349 -10.30913 -10.29787 -10.29337 -10.29282
 Alpha  occ. eigenvalues --  -10.28948 -10.28531 -10.28491 -10.28251 -10.28129
 Alpha  occ. eigenvalues --  -10.28088 -10.27994 -10.27885 -10.27636 -10.27621
 Alpha  occ. eigenvalues --  -10.27555 -10.27406 -10.27087 -10.26916 -10.26820
 Alpha  occ. eigenvalues --  -10.26729 -10.26688 -10.26429 -10.26357 -10.26298
 Alpha  occ. eigenvalues --  -10.26155 -10.26052 -10.25806 -10.25789 -10.25688
 Alpha  occ. eigenvalues --  -10.25682 -10.25299 -10.25270 -10.25116 -10.25101
 Alpha  occ. eigenvalues --  -10.25022 -10.24955 -10.24913 -10.24828 -10.24810
 Alpha  occ. eigenvalues --  -10.24679 -10.24587 -10.24551 -10.24374 -10.24332
 Alpha  occ. eigenvalues --  -10.24168  -3.19010  -1.93896  -1.93454  -1.93318
 Alpha  occ. eigenvalues --   -1.16184  -1.14854  -1.11347  -1.08923  -1.08684
 Alpha  occ. eigenvalues --   -1.06523  -1.05596  -1.05026  -1.04339  -1.02634
 Alpha  occ. eigenvalues --   -0.93305  -0.90109  -0.90062  -0.89308  -0.89174
 Alpha  occ. eigenvalues --   -0.89023  -0.88131  -0.87906  -0.87667  -0.86663
 Alpha  occ. eigenvalues --   -0.85713  -0.85673  -0.84523  -0.84109  -0.83410
 Alpha  occ. eigenvalues --   -0.82986  -0.82129  -0.81665  -0.80983  -0.80479
 Alpha  occ. eigenvalues --   -0.79597  -0.78515  -0.77749  -0.77005  -0.76499
 Alpha  occ. eigenvalues --   -0.75436  -0.75375  -0.75101  -0.74582  -0.73984
 Alpha  occ. eigenvalues --   -0.73307  -0.72413  -0.72165  -0.70536  -0.70235
 Alpha  occ. eigenvalues --   -0.69540  -0.68207  -0.67605  -0.67125  -0.65893
 Alpha  occ. eigenvalues --   -0.65682  -0.65302  -0.65239  -0.64739  -0.63515
 Alpha  occ. eigenvalues --   -0.63405  -0.63368  -0.62556  -0.61880  -0.60463
 Alpha  occ. eigenvalues --   -0.60090  -0.59402  -0.58729  -0.58461  -0.58248
 Alpha  occ. eigenvalues --   -0.57907  -0.57002  -0.56490  -0.55921  -0.55733
 Alpha  occ. eigenvalues --   -0.55537  -0.55208  -0.54563  -0.54279  -0.54223
 Alpha  occ. eigenvalues --   -0.53955  -0.53682  -0.53515  -0.52974  -0.52925
 Alpha  occ. eigenvalues --   -0.52800  -0.52679  -0.52271  -0.52084  -0.51969
 Alpha  occ. eigenvalues --   -0.51840  -0.51556  -0.51297  -0.51028  -0.50633
 Alpha  occ. eigenvalues --   -0.50462  -0.50390  -0.49899  -0.49863  -0.49798
 Alpha  occ. eigenvalues --   -0.49410  -0.49325  -0.49141  -0.48925  -0.48887
 Alpha  occ. eigenvalues --   -0.48428  -0.48380  -0.48246  -0.48008  -0.47856
 Alpha  occ. eigenvalues --   -0.47700  -0.47432  -0.47314  -0.47033  -0.46757
 Alpha  occ. eigenvalues --   -0.46653  -0.46391  -0.46237  -0.46004  -0.45974
 Alpha  occ. eigenvalues --   -0.45720  -0.45590  -0.45157  -0.44909  -0.44822
 Alpha  occ. eigenvalues --   -0.44731  -0.44643  -0.44314  -0.44213  -0.44150
 Alpha  occ. eigenvalues --   -0.44008  -0.43593  -0.43563  -0.43397  -0.43256
 Alpha  occ. eigenvalues --   -0.42924  -0.42678  -0.42576  -0.42385  -0.42141
 Alpha  occ. eigenvalues --   -0.42100  -0.41933  -0.41549  -0.41450  -0.41279
 Alpha  occ. eigenvalues --   -0.41036  -0.40931  -0.40798  -0.40742  -0.40188
 Alpha  occ. eigenvalues --   -0.40052  -0.39634  -0.38921  -0.38755  -0.38663
 Alpha  occ. eigenvalues --   -0.38043  -0.37768  -0.37457  -0.37297  -0.37212
 Alpha  occ. eigenvalues --   -0.37059  -0.36683  -0.36531  -0.36302  -0.36216
 Alpha  occ. eigenvalues --   -0.36193  -0.35791  -0.35573  -0.35023  -0.34756
 Alpha  occ. eigenvalues --   -0.34260  -0.34047  -0.33686  -0.31662  -0.31388
 Alpha  occ. eigenvalues --   -0.30823  -0.30614  -0.29726  -0.29165  -0.24635
 Alpha  occ. eigenvalues --   -0.21353
 Alpha virt. eigenvalues --   -0.08686  -0.02574  -0.00494   0.00937   0.02241
 Alpha virt. eigenvalues --    0.04254   0.04569   0.05156   0.06209   0.06539
 Alpha virt. eigenvalues --    0.07675   0.07932   0.08219   0.08681   0.09110

 Mulliken charges:
               1
     1  Mg   0.803509
     2  C    0.062912
     3  C   -0.090857
     4  C   -0.067761
     5  C   -0.089060
     6  N   -0.312809
     7  C   -0.024554
     8  C   -0.080187
     9  C   -0.030462
    10  C    0.038333
    11  C    0.055528
    12  C    0.086631
    13  C    0.051488
    14  C    0.153821
    15  O   -0.203639
    16  O   -0.345122
    17  N   -0.319224
    18  C    0.170906
    19  C   -0.191511
    20  C   -0.086867
    21  C    0.161978
    22  C    0.124583
    23  C   -0.016255
    24  O   -0.186198
    25  C    0.084537
    26  N   -0.242315
    27  C   -0.005768
    28  C   -0.024408
    29  C    0.007205
    30  C   -0.018112
    31  C    0.056047
    32  C    0.004992
    33  C    0.025841
    34  N   -0.282626
    35  C    0.140592
    36  C   -0.164552
    37  C    0.034361
    38  C    0.056489
    39  C    0.119430
    40  C    0.051496
    41  O   -0.182601
    42  C   -0.014232
    43  C    0.189018
    44  O   -0.246452
    45  O   -0.351533
    46  C    0.187740
    47  C    0.260641
    48  C   -0.084894
    49  C   -0.221318
    50  C    0.092903
    51  C    0.069484
    52  C    0.024455
    53  C    0.067253
    54  C   -0.122656
    55  C    0.051141
    56  C    0.021670
    57  C   -0.009750
    58  C    0.033855
    59  C   -0.127296
    60  C    0.045211
    61  C    0.053663
    62  C    0.026327
    63  C    0.046923
    64  C   -0.149236
    65  C    0.011670
    66  C    0.042833
    67  H   -0.018074
    68  H   -0.045443
    69  H   -0.037222
    70  H    0.033189
    71  H    0.013467
    72  H    0.014130
    73  H    0.020367
    74  H    0.017971
    75  H    0.009257
    76  H    0.031447
    77  H    0.031804
    78  H    0.012276
    79  H    0.042433
    80  H    0.038982
    81  H    0.015713
    82  H    0.045890
    83  H    0.029723
    84  H    0.027845
    85  H    0.014419
    86  H    0.009814
    87  H    0.023721
    88  H    0.021063
    89  H    0.012602
    90  H    0.006559
    91  H    0.000402
    92  H    0.010687
    93  H    0.011587
    94  H    0.011507
    95  H    0.030871
    96  H    0.035258
    97  H    0.025920
    98  H    0.036288
    99  H    0.039911
   100  H    0.041666
   101  H    0.043369
   102  H    0.030264
   103  H    0.013330
   104  H   -0.024576
   105  H    0.023229
   106  H    0.009711
   107  H    0.012253
   108  H    0.005272
   109  H    0.013734
   110  H    0.019875
   111  H   -0.000892
   112  H   -0.009544
   113  H   -0.007192
   114  H   -0.004140
   115  H   -0.004216
   116  H    0.014519
   117  H   -0.002287
   118  H   -0.017871
   119  H   -0.000387
   120  H    0.002837
   121  H    0.010823
   122  H   -0.006368
   123  H   -0.011303
   124  H   -0.006081
   125  H    0.017653
   126  H    0.001653
   127  H    0.006454
   128  H   -0.016322
   129  H   -0.002657
   130  H   -0.002815
   131  H   -0.004065
   132  H   -0.007949
   133  H   -0.005669
   134  H    0.003660
   135  H    0.007220
   136  H    0.013059
   137  H    0.005115
   138  H    0.013059
   139  H    0.014360
   140  H    0.013648
 Sum of Mulliken charges =  -0.00000

 Dipole moment (field-independent basis, Debye):
    X=              2.2162    Y=              2.7166    Z=              1.9204  Tot=              3.9974
 Quadrupole moment (field-independent basis, Debye-Ang):
   XX=           -352.7694   YY=           -440.6303   ZZ=           -407.7007
   XY=             16.2453   XZ=             16.2804   YZ=             23.2486

 Normal termination of Gaussian 16 at Wed May  4 00:00:00 2022.
