 Gaussian 16, Revision A.03,
 Gaussian 16:  ES64L-G16RevA.03 25-Dec-2016

 ---------------------------------
 #p PBE1PBE/Def2SVP td=(nstates=5)
 ---------------------------------

 ------------------------------------------------------
 step_1151_chromophore_23 TDDFT with PBE1PBE functional
 ------------------------------------------------------
 Symbolic Z-matrix:
 Charge =  0 Multiplicity = 1

                         Standard orientation:
 ---------------------------------------------------------------------
 Center     Atomic      Atomic             Coordinates (Angstroms)
 Number     Number       Type             X           Y           Z
 ---------------------------------------------------------------------
      1         12           0        4.862999    0.383414   -0.374806
      2          6           0        3.091857   -2.590143    0.084660
      3          6           0        2.795366    1.380320   -2.854130
      4          6           0        6.228127    3.498171   -0.120664
      5          6           0        6.709468   -0.572065    2.509567
      6          7           0        2.974000   -0.438584   -1.133272
      7          6           0        2.545544   -1.738425   -0.892327
      8          6           0        1.524562   -2.101785   -2.007696
      9          6           0        1.518654   -0.865266   -2.987557
     10          6           0        2.548752    0.089784   -2.321076
     11          6           0        1.870163   -1.215325   -4.417642
     12          6           0        0.133816   -2.306171   -1.297740
     13          6           0       -0.579547   -3.638768   -1.670901
     14          6           0       -1.982172   -3.754911   -2.229317
     15          8           0       -2.283857   -4.048719   -3.357621
     16          8           0       -2.868888   -3.429691   -1.169801
     17          7           0        4.565710    2.208294   -1.397379
     18          6           0        3.686358    2.353898   -2.345756
     19          6           0        3.642999    3.740174   -2.699010
     20          6           0        4.579172    4.455917   -1.854874
     21          6           0        5.284029    3.317787   -1.149300
     22          6           0        2.534427    4.312595   -3.625150
     23          6           0        4.840281    5.972946   -1.754745
     24          8           0        4.327724    6.749929   -2.511786
     25          6           0        5.753564    6.595184   -0.863441
     26          7           0        6.253836    1.324581    1.053525
     27          6           0        6.703441    2.575880    0.852759
     28          6           0        7.874340    2.967984    1.778917
     29          6           0        8.089329    1.671579    2.600538
     30          6           0        6.985789    0.746099    2.038828
     31          6           0        9.138998    3.536510    1.109473
     32          6           0        7.842715    1.983834    4.107415
     33          6           0        6.473139    2.169935    4.613616
     34          7           0        4.905704   -1.215347    1.069494
     35          6           0        5.791517   -1.473764    2.078703
     36          6           0        5.615888   -2.856145    2.544144
     37          6           0        4.507369   -3.357471    1.844517
     38          6           0        4.164732   -2.297452    0.920559
     39          6           0        6.509585   -3.374040    3.603172
     40          6           0        3.679104   -4.480449    1.605564
     41          8           0        3.572921   -5.620560    2.089984
     42          6           0        2.717530   -4.012982    0.473034
     43          6           0        2.786269   -4.999536   -0.652696
     44          8           0        3.691617   -4.997198   -1.498911
     45          8           0        1.808119   -5.994103   -0.623367
     46          6           0        1.879959   -7.072897   -1.618162
     47          6           0       -4.221099   -3.635489   -1.693728
     48          6           0       -5.225620   -3.173502   -0.550601
     49          6           0       -5.496899   -1.955805   -0.023344
     50          6           0       -4.699447   -0.703342   -0.456874
     51          6           0       -6.631133   -1.672303    0.974593
     52          6           0       -7.895207   -1.431335    0.050406
     53          6           0       -9.092254   -2.307092    0.525733
     54          6           0      -10.250351   -1.435361    1.068496
     55          6           0      -11.581783   -2.200426    1.248630
     56          6           0       -9.931708   -0.625765    2.314913
     57          6           0      -10.231536    0.918767    2.078418
     58          6           0       -9.623874    1.830515    3.182348
     59          6           0       -8.575741    2.970608    2.682179
     60          6           0       -7.613821    3.273998    3.861713
     61          6           0       -9.288415    4.196149    2.043142
     62          6           0       -8.589450    4.888006    0.842527
     63          6           0       -9.142307    4.376307   -0.484453
     64          6           0       -8.045237    3.880495   -1.489954
     65          6           0       -8.379295    4.272713   -3.013271
     66          6           0       -7.749087    2.394761   -1.393010
     67          1           0        2.183053    1.606636   -3.728784
     68          1           0        6.783394    4.437057   -0.065148
     69          1           0        7.394404   -0.864712    3.307644
     70          1           0        1.762937   -2.973427   -2.616685
     71          1           0        0.549503   -0.367957   -2.984257
     72          1           0        2.433462   -0.467949   -4.976850
     73          1           0        0.974600   -1.394819   -5.012379
     74          1           0        2.486881   -2.113750   -4.401257
     75          1           0       -0.564564   -1.567032   -1.690636
     76          1           0        0.285905   -2.138894   -0.231286
     77          1           0       -0.480802   -4.162124   -0.719842
     78          1           0       -0.016515   -4.307120   -2.322208
     79          1           0        2.859998    5.299254   -3.956476
     80          1           0        1.627879    4.272402   -3.021452
     81          1           0        2.472053    3.656951   -4.492936
     82          1           0        6.748058    6.242142   -1.134341
     83          1           0        5.419577    6.256994    0.117446
     84          1           0        5.778802    7.682900   -0.936015
     85          1           0        7.546879    3.757953    2.454646
     86          1           0        9.096084    1.260453    2.523995
     87          1           0       10.075489    3.296161    1.612183
     88          1           0        9.025458    4.607948    0.941102
     89          1           0        9.189819    3.084848    0.118729
     90          1           0        8.422765    2.858354    4.404508
     91          1           0        8.321428    1.132385    4.590634
     92          1           0        6.297262    2.876386    5.424612
     93          1           0        6.050138    1.233703    4.976511
     94          1           0        5.759021    2.541724    3.879399
     95          1           0        6.181696   -4.398564    3.777875
     96          1           0        6.508817   -2.837427    4.552130
     97          1           0        7.532069   -3.408543    3.226858
     98          1           0        1.703023   -4.077057    0.866077
     99          1           0        1.000070   -7.689740   -1.438302
    100          1           0        2.736760   -7.713407   -1.411354
    101          1           0        1.942065   -6.598179   -2.597716
    102          1           0       -4.468702   -4.587376   -2.163664
    103          1           0       -4.405978   -2.919065   -2.493301
    104          1           0       -5.925630   -3.929389   -0.194900
    105          1           0       -4.211172   -0.305640    0.433295
    106          1           0       -5.465457   -0.016023   -0.815625
    107          1           0       -3.988559   -0.882880   -1.263265
    108          1           0       -6.278555   -0.899350    1.657799
    109          1           0       -6.742071   -2.505900    1.667710
    110          1           0       -7.692643   -1.654716   -0.997012
    111          1           0       -8.204471   -0.386188    0.016864
    112          1           0       -8.621590   -2.929687    1.286613
    113          1           0       -9.503375   -2.988805   -0.219393
    114          1           0      -10.528997   -0.684301    0.329736
    115          1           0      -11.899354   -2.736376    0.354823
    116          1           0      -12.343815   -1.491559    1.573685
    117          1           0      -11.374074   -3.042264    1.909035
    118          1           0       -8.854311   -0.702686    2.463584
    119          1           0      -10.364502   -0.945181    3.263570
    120          1           0      -11.309375    1.022156    2.198123
    121          1           0       -9.805568    1.163090    1.105424
    122          1           0       -9.183439    1.222478    3.972897
    123          1           0      -10.512729    2.275230    3.628407
    124          1           0       -7.971794    2.470990    1.924234
    125          1           0       -7.998173    3.041899    4.854798
    126          1           0       -7.262595    4.304930    3.909775
    127          1           0       -6.744814    2.657560    3.630094
    128          1           0       -9.326237    4.883392    2.887507
    129          1           0      -10.330096    3.984539    1.802975
    130          1           0       -7.513530    4.808176    0.991795
    131          1           0       -8.742813    5.965762    0.772214
    132          1           0       -9.775515    5.151013   -0.916371
    133          1           0       -9.872568    3.602793   -0.247491
    134          1           0       -7.127082    4.445520   -1.328809
    135          1           0       -9.442241    4.505979   -3.079645
    136          1           0       -8.145741    3.605065   -3.842617
    137          1           0       -7.814750    5.192068   -3.167175
    138          1           0       -6.662703    2.364232   -1.315921
    139          1           0       -8.072122    1.796573   -2.245193
    140          1           0       -8.157309    1.952144   -0.484748
 ---------------------------------------------------------------------

 SCF Done:  E(RPBE1PBE) =  -3005.34790960     A.U. after   15 cycles

 Excitation energies and oscillator strengths:

 Excited State   1:      Singlet-A      1.8872 eV  656.97 nm  f=0.3562  <S**2>=0.000
     245 -> 248        0.18390
     246 -> 247        0.68982
     246 <- 247       -0.10135
 This state for optimization and/or second-order correction.
 Total Energy, E(TD-HF/TD-DFT) =  -3005.27855623
 Copying the excited state density for this state as the 1-particle RhoCI density.

 Excited State   2:      Singlet-A      2.2823 eV  543.23 nm  f=0.0633  <S**2>=0.000
     245 -> 247        0.63066
     246 -> 248       -0.31142

 Excited State   3:      Singlet-A      2.9111 eV  425.91 nm  f=0.0010  <S**2>=0.000
     243 -> 247        0.68311

 Excited State   4:      Singlet-A      3.0849 eV  401.90 nm  f=0.0001  <S**2>=0.000
     240 -> 247        0.12653
     241 -> 247        0.64321
     241 -> 249        0.23149

 Excited State   5:      Singlet-A      3.1438 eV  394.38 nm  f=0.0007  <S**2>=0.000
     242 -> 247        0.68586

 The electronic state is 1-A.
 Alpha  occ. eigenvalues --  -46.94069 -19.25542 -19.25198 -19.21514 -19.19734
 Alpha  occ. eigenvalues --  -19.19401 -19.18250 -14.42435 -14.42136 -14.39702
 Alpha  occ. eigenvalues --  -14.39313 -10.36615 -10.36450 -10.32510 -10.31430
 Alpha  occ. eigenvalues --  -10.29794 -10.29348 -10.29275 -10.29115 -10.29080
 Alpha  occ. eigenvalues --  -10.28824 -10.28571 -10.27347 -10.27109 -10.26949
 Alpha  occ. eigenvalues --  -10.26562 -10.26339 -10.26160 -10.26093 -10.25939
 Alpha  occ. eigenvalues --  -10.25879 -10.25772 -10.25680 -10.25327 -10.25280
 Alpha  occ. eigenvalues --  -10.25161 -10.25121 -10.24618 -10.24611 -10.24326
 Alpha  occ. eigenvalues --  -10.24300 -10.24230 -10.24070 -10.23908 -10.23900
 Alpha  occ. eigenvalues --  -10.23836 -10.23734 -10.23401 -10.23271 -10.23119
 Alpha  occ. eigenvalues --  -10.22970 -10.22820 -10.22676 -10.22669 -10.22660
 Alpha  occ. eigenvalues --  -10.22620 -10.22541 -10.22506 -10.22363 -10.22352
 Alpha  occ. eigenvalues --  -10.22229 -10.22151 -10.21946 -10.21790 -10.21699
 Alpha  occ. eigenvalues --  -10.21563  -3.15951  -1.88775  -1.88313  -1.88179
 Alpha  occ. eigenvalues --   -1.10962  -1.09588  -1.06084  -1.03657  -1.03564
 Alpha  occ. eigenvalues --   -1.01320  -1.00239  -0.99715  -0.98992  -0.97255
 Alpha  occ. eigenvalues --   -0.87691  -0.84386  -0.84150  -0.83523  -0.83492
 Alpha  occ. eigenvalues --   -0.83101  -0.82270  -0.82197  -0.82005  -0.80762
 Alpha  occ. eigenvalues --   -0.79954  -0.79907  -0.78797  -0.78359  -0.77556
 Alpha  occ. eigenvalues --   -0.77207  -0.76328  -0.75933  -0.75327  -0.74649
 Alpha  occ. eigenvalues --   -0.73818  -0.72836  -0.72019  -0.71286  -0.70814
 Alpha  occ. eigenvalues --   -0.69772  -0.69457  -0.69262  -0.68716  -0.68151
 Alpha  occ. eigenvalues --   -0.67747  -0.66825  -0.66517  -0.64888  -0.64529
 Alpha  occ. eigenvalues --   -0.64036  -0.62408  -0.62004  -0.61335  -0.60366
 Alpha  occ. eigenvalues --   -0.60235  -0.59670  -0.59485  -0.59280  -0.57937
 Alpha  occ. eigenvalues --   -0.57660  -0.57516  -0.56741  -0.56458  -0.55010
 Alpha  occ. eigenvalues --   -0.54743  -0.53978  -0.53318  -0.52884  -0.52756
 Alpha  occ. eigenvalues --   -0.52371  -0.51452  -0.51025  -0.50469  -0.50287
 Alpha  occ. eigenvalues --   -0.50009  -0.49711  -0.49084  -0.48822  -0.48616
 Alpha  occ. eigenvalues --   -0.48446  -0.48176  -0.47966  -0.47482  -0.47384
 Alpha  occ. eigenvalues --   -0.47259  -0.47237  -0.46882  -0.46572  -0.46554
 Alpha  occ. eigenvalues --   -0.46330  -0.46071  -0.45864  -0.45510  -0.45194
 Alpha  occ. eigenvalues --   -0.44999  -0.44980  -0.44496  -0.44414  -0.44316
 Alpha  occ. eigenvalues --   -0.44015  -0.43972  -0.43692  -0.43544  -0.43432
 Alpha  occ. eigenvalues --   -0.43098  -0.43008  -0.42901  -0.42694  -0.42454
 Alpha  occ. eigenvalues --   -0.42396  -0.42119  -0.41921  -0.41763  -0.41408
 Alpha  occ. eigenvalues --   -0.41305  -0.41099  -0.40957  -0.40708  -0.40669
 Alpha  occ. eigenvalues --   -0.40323  -0.40239  -0.39882  -0.39659  -0.39527
 Alpha  occ. eigenvalues --   -0.39432  -0.39330  -0.39109  -0.38974  -0.38962
 Alpha  occ. eigenvalues --   -0.38719  -0.38368  -0.38277  -0.38216  -0.38110
 Alpha  occ. eigenvalues --   -0.37791  -0.37507  -0.37291  -0.37148  -0.36982
 Alpha  occ. eigenvalues --   -0.36901  -0.36614  -0.36439  -0.36249  -0.36091
 Alpha  occ. eigenvalues --   -0.35935  -0.35778  -0.35504  -0.35491  -0.35043
 Alpha  occ. eigenvalues --   -0.34855  -0.34416  -0.33748  -0.33684  -0.33472
 Alpha  occ. eigenvalues --   -0.32947  -0.32695  -0.32502  -0.32313  -0.32002
 Alpha  occ. eigenvalues --   -0.31902  -0.31726  -0.31417  -0.31180  -0.31108
 Alpha  occ. eigenvalues --   -0.31032  -0.30686  -0.30512  -0.29942  -0.29711
 Alpha  occ. eigenvalues --   -0.29605  -0.29408  -0.28490  -0.27323  -0.26513
 Alpha  occ. eigenvalues --   -0.26198  -0.25704  -0.24857  -0.24438  -0.21549
 Alpha  occ. eigenvalues --   -0.19039
 Alpha virt. eigenvalues --   -0.11255  -0.05973  -0.04674  -0.02241  -0.01753
 Alpha virt. eigenvalues --   -0.00302  -0.00040   0.00912   0.01721   0.03012
 Alpha virt. eigenvalues --    0.04048   0.04326   0.04484   0.04955   0.05684

 Mulliken charges:
               1
     1  Mg   0.938480
     2  C    0.050647
     3  C   -0.071352
     4  C   -0.070831
     5  C   -0.085186
     6  N   -0.412167
     7  C    0.044927
     8  C   -0.151489
     9  C   -0.104706
    10  C    0.073066
    11  C   -0.000367
    12  C    0.039353
    13  C   -0.020170
    14  C    0.210731
    15  O   -0.236312
    16  O   -0.368540
    17  N   -0.443033
    18  C    0.191985
    19  C   -0.209847
    20  C   -0.132616
    21  C    0.204020
    22  C    0.060093
    23  C    0.035884
    24  O   -0.222655
    25  C    0.000306
    26  N   -0.348624
    27  C    0.035865
    28  C   -0.096722
    29  C   -0.072437
    30  C    0.030265
    31  C   -0.003336
    32  C   -0.055769
    33  C   -0.046372
    34  N   -0.410779
    35  C    0.158599
    36  C   -0.173287
    37  C   -0.009693
    38  C    0.104543
    39  C    0.063404
    40  C    0.141089
    41  O   -0.229211
    42  C   -0.118341
    43  C    0.279428
    44  O   -0.279961
    45  O   -0.384944
    46  C    0.133455
    47  C    0.211872
    48  C   -0.090960
    49  C   -0.270810
    50  C    0.025758
    51  C    0.009362
    52  C   -0.045377
    53  C    0.014921
    54  C   -0.214858
    55  C   -0.010130
    56  C   -0.029588
    57  C   -0.087645
    58  C   -0.012943
    59  C   -0.215959
    60  C   -0.014530
    61  C   -0.006227
    62  C   -0.033612
    63  C   -0.010623
    64  C   -0.237748
    65  C   -0.048170
    66  C   -0.030300
    67  H    0.012443
    68  H   -0.011248
    69  H   -0.005854
    70  H    0.068802
    71  H    0.048799
    72  H    0.041253
    73  H    0.048438
    74  H    0.045202
    75  H    0.043630
    76  H    0.062795
    77  H    0.066148
    78  H    0.045139
    79  H    0.070313
    80  H    0.067579
    81  H    0.043333
    82  H    0.071743
    83  H    0.057651
    84  H    0.056092
    85  H    0.052033
    86  H    0.045582
    87  H    0.051049
    88  H    0.047804
    89  H    0.042009
    90  H    0.040256
    91  H    0.033778
    92  H    0.039111
    93  H    0.040143
    94  H    0.040628
    95  H    0.060047
    96  H    0.061515
    97  H    0.053912
    98  H    0.074275
    99  H    0.061484
   100  H    0.063702
   101  H    0.063836
   102  H    0.056655
   103  H    0.041443
   104  H    0.007064
   105  H    0.051299
   106  H    0.042545
   107  H    0.040425
   108  H    0.035162
   109  H    0.043892
   110  H    0.052913
   111  H    0.041295
   112  H    0.023750
   113  H    0.024820
   114  H    0.035490
   115  H    0.024141
   116  H    0.042298
   117  H    0.026663
   118  H    0.021749
   119  H    0.031050
   120  H    0.036474
   121  H    0.049606
   122  H    0.024825
   123  H    0.021512
   124  H    0.036525
   125  H    0.044102
   126  H    0.029151
   127  H    0.034088
   128  H    0.017926
   129  H    0.029660
   130  H    0.028800
   131  H    0.028872
   132  H    0.024135
   133  H    0.028294
   134  H    0.041200
   135  H    0.034740
   136  H    0.039520
   137  H    0.032860
   138  H    0.040517
   139  H    0.041090
   140  H    0.050199
 Sum of Mulliken charges =  -0.00000

 Dipole moment (field-independent basis, Debye):
    X=              2.2281    Y=              2.7556    Z=              1.9791  Tot=              4.0589
 Quadrupole moment (field-independent basis, Debye-Ang):
   XX=           -348.0208   YY=           -437.8668   ZZ=           -404.0098
   XY=             16.5890   XZ=             17.5232   YZ=             23.6436

 Normal termination of Gaussian 16 at Wed May  4 00:21:56 2022.
