 Gaussian 16, Revision A.03,
 Gaussian 16:  ES64L-G16RevA.03 25-Dec-2016

 --------------------------------
 #p wB97XD/Def2SVP td=(nstates=5)
 --------------------------------

 -----------------------------------------------------
 step_1151_chromophore_23 TDDFT with wB97XD functional
 -----------------------------------------------------
 Symbolic Z-matrix:
 Charge =  0 Multiplicity = 1

                         Standard orientation:
 ---------------------------------------------------------------------
 Center     Atomic      Atomic             Coordinates (Angstroms)
 Number     Number       Type             X           Y           Z
 ---------------------------------------------------------------------
      1         12           0        4.862999    0.383414   -0.374806
      2          6           0        3.091857   -2.590143    0.084660
      3          6           0        2.795366    1.380320   -2.854130
      4          6           0        6.228127    3.498171   -0.120664
      5          6           0        6.709468   -0.572065    2.509567
      6          7           0        2.974000   -0.438584   -1.133272
      7          6           0        2.545544   -1.738425   -0.892327
      8          6           0        1.524562   -2.101785   -2.007696
      9          6           0        1.518654   -0.865266   -2.987557
     10          6           0        2.548752    0.089784   -2.321076
     11          6           0        1.870163   -1.215325   -4.417642
     12          6           0        0.133816   -2.306171   -1.297740
     13          6           0       -0.579547   -3.638768   -1.670901
     14          6           0       -1.982172   -3.754911   -2.229317
     15          8           0       -2.283857   -4.048719   -3.357621
     16          8           0       -2.868888   -3.429691   -1.169801
     17          7           0        4.565710    2.208294   -1.397379
     18          6           0        3.686358    2.353898   -2.345756
     19          6           0        3.642999    3.740174   -2.699010
     20          6           0        4.579172    4.455917   -1.854874
     21          6           0        5.284029    3.317787   -1.149300
     22          6           0        2.534427    4.312595   -3.625150
     23          6           0        4.840281    5.972946   -1.754745
     24          8           0        4.327724    6.749929   -2.511786
     25          6           0        5.753564    6.595184   -0.863441
     26          7           0        6.253836    1.324581    1.053525
     27          6           0        6.703441    2.575880    0.852759
     28          6           0        7.874340    2.967984    1.778917
     29          6           0        8.089329    1.671579    2.600538
     30          6           0        6.985789    0.746099    2.038828
     31          6           0        9.138998    3.536510    1.109473
     32          6           0        7.842715    1.983834    4.107415
     33          6           0        6.473139    2.169935    4.613616
     34          7           0        4.905704   -1.215347    1.069494
     35          6           0        5.791517   -1.473764    2.078703
     36          6           0        5.615888   -2.856145    2.544144
     37          6           0        4.507369   -3.357471    1.844517
     38          6           0        4.164732   -2.297452    0.920559
     39          6           0        6.509585   -3.374040    3.603172
     40          6           0        3.679104   -4.480449    1.605564
     41          8           0        3.572921   -5.620560    2.089984
     42          6           0        2.717530   -4.012982    0.473034
     43          6           0        2.786269   -4.999536   -0.652696
     44          8           0        3.691617   -4.997198   -1.498911
     45          8           0        1.808119   -5.994103   -0.623367
     46          6           0        1.879959   -7.072897   -1.618162
     47          6           0       -4.221099   -3.635489   -1.693728
     48          6           0       -5.225620   -3.173502   -0.550601
     49          6           0       -5.496899   -1.955805   -0.023344
     50          6           0       -4.699447   -0.703342   -0.456874
     51          6           0       -6.631133   -1.672303    0.974593
     52          6           0       -7.895207   -1.431335    0.050406
     53          6           0       -9.092254   -2.307092    0.525733
     54          6           0      -10.250351   -1.435361    1.068496
     55          6           0      -11.581783   -2.200426    1.248630
     56          6           0       -9.931708   -0.625765    2.314913
     57          6           0      -10.231536    0.918767    2.078418
     58          6           0       -9.623874    1.830515    3.182348
     59          6           0       -8.575741    2.970608    2.682179
     60          6           0       -7.613821    3.273998    3.861713
     61          6           0       -9.288415    4.196149    2.043142
     62          6           0       -8.589450    4.888006    0.842527
     63          6           0       -9.142307    4.376307   -0.484453
     64          6           0       -8.045237    3.880495   -1.489954
     65          6           0       -8.379295    4.272713   -3.013271
     66          6           0       -7.749087    2.394761   -1.393010
     67          1           0        2.183053    1.606636   -3.728784
     68          1           0        6.783394    4.437057   -0.065148
     69          1           0        7.394404   -0.864712    3.307644
     70          1           0        1.762937   -2.973427   -2.616685
     71          1           0        0.549503   -0.367957   -2.984257
     72          1           0        2.433462   -0.467949   -4.976850
     73          1           0        0.974600   -1.394819   -5.012379
     74          1           0        2.486881   -2.113750   -4.401257
     75          1           0       -0.564564   -1.567032   -1.690636
     76          1           0        0.285905   -2.138894   -0.231286
     77          1           0       -0.480802   -4.162124   -0.719842
     78          1           0       -0.016515   -4.307120   -2.322208
     79          1           0        2.859998    5.299254   -3.956476
     80          1           0        1.627879    4.272402   -3.021452
     81          1           0        2.472053    3.656951   -4.492936
     82          1           0        6.748058    6.242142   -1.134341
     83          1           0        5.419577    6.256994    0.117446
     84          1           0        5.778802    7.682900   -0.936015
     85          1           0        7.546879    3.757953    2.454646
     86          1           0        9.096084    1.260453    2.523995
     87          1           0       10.075489    3.296161    1.612183
     88          1           0        9.025458    4.607948    0.941102
     89          1           0        9.189819    3.084848    0.118729
     90          1           0        8.422765    2.858354    4.404508
     91          1           0        8.321428    1.132385    4.590634
     92          1           0        6.297262    2.876386    5.424612
     93          1           0        6.050138    1.233703    4.976511
     94          1           0        5.759021    2.541724    3.879399
     95          1           0        6.181696   -4.398564    3.777875
     96          1           0        6.508817   -2.837427    4.552130
     97          1           0        7.532069   -3.408543    3.226858
     98          1           0        1.703023   -4.077057    0.866077
     99          1           0        1.000070   -7.689740   -1.438302
    100          1           0        2.736760   -7.713407   -1.411354
    101          1           0        1.942065   -6.598179   -2.597716
    102          1           0       -4.468702   -4.587376   -2.163664
    103          1           0       -4.405978   -2.919065   -2.493301
    104          1           0       -5.925630   -3.929389   -0.194900
    105          1           0       -4.211172   -0.305640    0.433295
    106          1           0       -5.465457   -0.016023   -0.815625
    107          1           0       -3.988559   -0.882880   -1.263265
    108          1           0       -6.278555   -0.899350    1.657799
    109          1           0       -6.742071   -2.505900    1.667710
    110          1           0       -7.692643   -1.654716   -0.997012
    111          1           0       -8.204471   -0.386188    0.016864
    112          1           0       -8.621590   -2.929687    1.286613
    113          1           0       -9.503375   -2.988805   -0.219393
    114          1           0      -10.528997   -0.684301    0.329736
    115          1           0      -11.899354   -2.736376    0.354823
    116          1           0      -12.343815   -1.491559    1.573685
    117          1           0      -11.374074   -3.042264    1.909035
    118          1           0       -8.854311   -0.702686    2.463584
    119          1           0      -10.364502   -0.945181    3.263570
    120          1           0      -11.309375    1.022156    2.198123
    121          1           0       -9.805568    1.163090    1.105424
    122          1           0       -9.183439    1.222478    3.972897
    123          1           0      -10.512729    2.275230    3.628407
    124          1           0       -7.971794    2.470990    1.924234
    125          1           0       -7.998173    3.041899    4.854798
    126          1           0       -7.262595    4.304930    3.909775
    127          1           0       -6.744814    2.657560    3.630094
    128          1           0       -9.326237    4.883392    2.887507
    129          1           0      -10.330096    3.984539    1.802975
    130          1           0       -7.513530    4.808176    0.991795
    131          1           0       -8.742813    5.965762    0.772214
    132          1           0       -9.775515    5.151013   -0.916371
    133          1           0       -9.872568    3.602793   -0.247491
    134          1           0       -7.127082    4.445520   -1.328809
    135          1           0       -9.442241    4.505979   -3.079645
    136          1           0       -8.145741    3.605065   -3.842617
    137          1           0       -7.814750    5.192068   -3.167175
    138          1           0       -6.662703    2.364232   -1.315921
    139          1           0       -8.072122    1.796573   -2.245193
    140          1           0       -8.157309    1.952144   -0.484748
 ---------------------------------------------------------------------

 SCF Done:  E(RwB97XD) =  -3007.86218506     A.U. after   20 cycles

 Excitation energies and oscillator strengths:

 Excited State   1:      Singlet-A      1.6810 eV  737.58 nm  f=0.3627  <S**2>=0.000
     245 -> 248        0.19620
     246 -> 247        0.68062
     245 <- 248        0.11894
 This state for optimization and/or second-order correction.
 Total Energy, E(TD-HF/TD-DFT) =  -3007.80041055
 Copying the excited state density for this state as the 1-particle RhoCI density.

 Excited State   2:      Singlet-A      2.2293 eV  556.15 nm  f=0.0543  <S**2>=0.000
     245 -> 247        0.61015
     246 -> 248       -0.34823

 Excited State   3:      Singlet-A      3.4423 eV  360.18 nm  f=0.1545  <S**2>=0.000
     242 -> 247       -0.11611
     243 -> 247        0.55102
     243 -> 249       -0.14420
     245 -> 247       -0.14974
     246 -> 248       -0.32268

 Excited State   4:      Singlet-A      3.4933 eV  354.92 nm  f=0.5867  <S**2>=0.000
     241 -> 247       -0.19986
     243 -> 247        0.31567
     245 -> 247        0.29034
     246 -> 248        0.49466

 Excited State   5:      Singlet-A      3.6521 eV  339.49 nm  f=0.0000  <S**2>=0.000
     242 -> 247        0.55910
     242 -> 248        0.11022
     242 -> 249       -0.19539
     242 -> 250        0.12472
     242 -> 251       -0.19158
     243 -> 250        0.10107
     243 -> 251       -0.16863

 The electronic state is 1-A.
 Alpha  occ. eigenvalues --  -46.97054 -19.30114 -19.29779 -19.26200 -19.24461
 Alpha  occ. eigenvalues --  -19.24212 -19.23067 -14.47614 -14.47091 -14.44708
 Alpha  occ. eigenvalues --  -14.44255 -10.43419 -10.43299 -10.39410 -10.38257
 Alpha  occ. eigenvalues --  -10.36074 -10.35708 -10.35623 -10.35407 -10.35372
 Alpha  occ. eigenvalues --  -10.35346 -10.34966 -10.33810 -10.33316 -10.33265
 Alpha  occ. eigenvalues --  -10.33081 -10.32580 -10.32525 -10.32326 -10.32236
 Alpha  occ. eigenvalues --  -10.32163 -10.32096 -10.31922 -10.31755 -10.31646
 Alpha  occ. eigenvalues --  -10.31618 -10.31460 -10.31121 -10.30926 -10.30694
 Alpha  occ. eigenvalues --  -10.30654 -10.30604 -10.30347 -10.30317 -10.30259
 Alpha  occ. eigenvalues --  -10.30199 -10.30007 -10.29745 -10.29662 -10.29613
 Alpha  occ. eigenvalues --  -10.29533 -10.29121 -10.29094 -10.29064 -10.29039
 Alpha  occ. eigenvalues --  -10.28987 -10.28893 -10.28856 -10.28727 -10.28718
 Alpha  occ. eigenvalues --  -10.28584 -10.28518 -10.28368 -10.28194 -10.28137
 Alpha  occ. eigenvalues --  -10.28001  -3.22821  -1.96390  -1.95923  -1.95793
 Alpha  occ. eigenvalues --   -1.18352  -1.17013  -1.13550  -1.11163  -1.10917
 Alpha  occ. eigenvalues --   -1.08715  -1.07621  -1.07056  -1.06353  -1.04631
 Alpha  occ. eigenvalues --   -0.95294  -0.91946  -0.91826  -0.91151  -0.91112
 Alpha  occ. eigenvalues --   -0.90773  -0.89930  -0.89831  -0.89602  -0.88428
 Alpha  occ. eigenvalues --   -0.87631  -0.87593  -0.86407  -0.86027  -0.85225
 Alpha  occ. eigenvalues --   -0.84908  -0.83982  -0.83572  -0.82944  -0.82314
 Alpha  occ. eigenvalues --   -0.81473  -0.80434  -0.79655  -0.78936  -0.78438
 Alpha  occ. eigenvalues --   -0.77383  -0.77154  -0.76940  -0.76390  -0.75814
 Alpha  occ. eigenvalues --   -0.75291  -0.74368  -0.74112  -0.72435  -0.72155
 Alpha  occ. eigenvalues --   -0.71548  -0.70057  -0.69603  -0.68977  -0.67848
 Alpha  occ. eigenvalues --   -0.67660  -0.67174  -0.67139  -0.66721  -0.65408
 Alpha  occ. eigenvalues --   -0.65324  -0.65169  -0.64379  -0.63884  -0.62445
 Alpha  occ. eigenvalues --   -0.62097  -0.61366  -0.60706  -0.60381  -0.60209
 Alpha  occ. eigenvalues --   -0.59879  -0.58924  -0.58452  -0.57861  -0.57684
 Alpha  occ. eigenvalues --   -0.57469  -0.57134  -0.56481  -0.56201  -0.56091
 Alpha  occ. eigenvalues --   -0.55868  -0.55610  -0.55450  -0.54845  -0.54808
 Alpha  occ. eigenvalues --   -0.54645  -0.54606  -0.54215  -0.53968  -0.53907
 Alpha  occ. eigenvalues --   -0.53702  -0.53476  -0.53207  -0.52998  -0.52521
 Alpha  occ. eigenvalues --   -0.52325  -0.52284  -0.51852  -0.51796  -0.51681
 Alpha  occ. eigenvalues --   -0.51319  -0.51280  -0.51017  -0.50835  -0.50762
 Alpha  occ. eigenvalues --   -0.50349  -0.50279  -0.50166  -0.49910  -0.49722
 Alpha  occ. eigenvalues --   -0.49646  -0.49386  -0.49186  -0.48968  -0.48627
 Alpha  occ. eigenvalues --   -0.48535  -0.48321  -0.48138  -0.47937  -0.47901
 Alpha  occ. eigenvalues --   -0.47538  -0.47472  -0.47057  -0.46851  -0.46721
 Alpha  occ. eigenvalues --   -0.46644  -0.46519  -0.46240  -0.46136  -0.46095
 Alpha  occ. eigenvalues --   -0.45877  -0.45508  -0.45433  -0.45323  -0.45211
 Alpha  occ. eigenvalues --   -0.44872  -0.44594  -0.44433  -0.44242  -0.44134
 Alpha  occ. eigenvalues --   -0.44048  -0.43772  -0.43474  -0.43383  -0.43168
 Alpha  occ. eigenvalues --   -0.42937  -0.42833  -0.42641  -0.42608  -0.42062
 Alpha  occ. eigenvalues --   -0.41910  -0.41479  -0.40781  -0.40695  -0.40512
 Alpha  occ. eigenvalues --   -0.39927  -0.39697  -0.39489  -0.39235  -0.39037
 Alpha  occ. eigenvalues --   -0.38907  -0.38611  -0.38490  -0.38231  -0.38134
 Alpha  occ. eigenvalues --   -0.38027  -0.37652  -0.37415  -0.36953  -0.36584
 Alpha  occ. eigenvalues --   -0.36307  -0.36203  -0.35648  -0.33891  -0.33377
 Alpha  occ. eigenvalues --   -0.32994  -0.32626  -0.31826  -0.31189  -0.26559
 Alpha  occ. eigenvalues --   -0.23160
 Alpha virt. eigenvalues --   -0.07027  -0.00670   0.01580   0.04103   0.04421
 Alpha virt. eigenvalues --    0.06512   0.06720   0.07648   0.08441   0.09430
 Alpha virt. eigenvalues --    0.10647   0.10938   0.11156   0.11722   0.12400

 Mulliken charges:
               1
     1  Mg   0.935095
     2  C    0.044230
     3  C   -0.097660
     4  C   -0.074031
     5  C   -0.096959
     6  N   -0.382585
     7  C    0.020126
     8  C   -0.126632
     9  C   -0.079137
    10  C    0.063600
    11  C    0.008417
    12  C    0.051254
    13  C   -0.003561
    14  C    0.206808
    15  O   -0.235330
    16  O   -0.369859
    17  N   -0.405379
    18  C    0.185672
    19  C   -0.206313
    20  C   -0.127800
    21  C    0.191017
    22  C    0.078060
    23  C    0.033560
    24  O   -0.218342
    25  C    0.015067
    26  N   -0.312050
    27  C    0.017417
    28  C   -0.073402
    29  C   -0.047845
    30  C    0.009880
    31  C    0.007583
    32  C   -0.039840
    33  C   -0.030086
    34  N   -0.370274
    35  C    0.149393
    36  C   -0.168947
    37  C   -0.011353
    38  C    0.089176
    39  C    0.070681
    40  C    0.126153
    41  O   -0.219356
    42  C   -0.079220
    43  C    0.252616
    44  O   -0.273727
    45  O   -0.382088
    46  C    0.147247
    47  C    0.228791
    48  C   -0.104078
    49  C   -0.248936
    50  C    0.045061
    51  C    0.023110
    52  C   -0.016852
    53  C    0.030426
    54  C   -0.180848
    55  C    0.003637
    56  C   -0.016593
    57  C   -0.052445
    58  C   -0.001169
    59  C   -0.181844
    60  C   -0.003738
    61  C    0.010745
    62  C   -0.020623
    63  C    0.007027
    64  C   -0.209875
    65  C   -0.035495
    66  C   -0.000405
    67  H    0.005949
    68  H   -0.026101
    69  H   -0.011958
    70  H    0.053991
    71  H    0.039491
    72  H    0.035326
    73  H    0.043640
    74  H    0.039427
    75  H    0.033723
    76  H    0.055324
    77  H    0.058008
    78  H    0.036741
    79  H    0.066212
    80  H    0.062180
    81  H    0.037018
    82  H    0.066399
    83  H    0.051063
    84  H    0.055740
    85  H    0.040126
    86  H    0.037968
    87  H    0.046529
    88  H    0.042383
    89  H    0.034314
    90  H    0.031518
    91  H    0.025482
    92  H    0.034767
    93  H    0.033343
    94  H    0.030973
    95  H    0.056524
    96  H    0.057706
    97  H    0.049076
    98  H    0.066338
    99  H    0.058575
   100  H    0.060046
   101  H    0.059835
   102  H    0.053030
   103  H    0.033875
   104  H    0.002102
   105  H    0.045672
   106  H    0.030956
   107  H    0.034071
   108  H    0.029128
   109  H    0.035891
   110  H    0.043214
   111  H    0.017649
   112  H    0.011711
   113  H    0.018272
   114  H    0.021825
   115  H    0.018252
   116  H    0.036346
   117  H    0.019021
   118  H    0.004506
   119  H    0.024349
   120  H    0.027669
   121  H    0.024208
   122  H    0.015956
   123  H    0.013135
   124  H    0.017337
   125  H    0.038577
   126  H    0.023515
   127  H    0.028527
   128  H    0.009067
   129  H    0.019914
   130  H    0.019271
   131  H    0.022780
   132  H    0.016838
   133  H    0.015762
   134  H    0.029818
   135  H    0.027620
   136  H    0.034648
   137  H    0.026696
   138  H    0.034095
   139  H    0.035699
   140  H    0.024148
 Sum of Mulliken charges =  -0.00000

 Dipole moment (field-independent basis, Debye):
    X=              2.2459    Y=              2.7752    Z=              1.9282  Tot=              4.0575
 Quadrupole moment (field-independent basis, Debye-Ang):
   XX=           -347.9304   YY=           -436.5297   ZZ=           -403.9161
   XY=             16.9593   XZ=             16.9980   YZ=             23.2901

 Normal termination of Gaussian 16 at Wed May  4 00:50:12 2022.
