 Gaussian 16, Revision A.03,
 Gaussian 16:  ES64L-G16RevA.03 25-Dec-2016

 --------------------
 #p ZINDO=(nstates=5)
 --------------------

 ------------------------------
 step_1151_chromophore_23 ZINDO
 ------------------------------
 Symbolic Z-matrix:
 Charge =  0 Multiplicity = 1

                         Standard orientation:
 ---------------------------------------------------------------------
 Center     Atomic      Atomic             Coordinates (Angstroms)
 Number     Number       Type             X           Y           Z
 ---------------------------------------------------------------------
      1         12           0        4.862999    0.383414   -0.374806
      2          6           0        3.091857   -2.590143    0.084660
      3          6           0        2.795366    1.380320   -2.854130
      4          6           0        6.228127    3.498171   -0.120664
      5          6           0        6.709468   -0.572065    2.509567
      6          7           0        2.974000   -0.438584   -1.133272
      7          6           0        2.545544   -1.738425   -0.892327
      8          6           0        1.524562   -2.101785   -2.007696
      9          6           0        1.518654   -0.865266   -2.987557
     10          6           0        2.548752    0.089784   -2.321076
     11          6           0        1.870163   -1.215325   -4.417642
     12          6           0        0.133816   -2.306171   -1.297740
     13          6           0       -0.579547   -3.638768   -1.670901
     14          6           0       -1.982172   -3.754911   -2.229317
     15          8           0       -2.283857   -4.048719   -3.357621
     16          8           0       -2.868888   -3.429691   -1.169801
     17          7           0        4.565710    2.208294   -1.397379
     18          6           0        3.686358    2.353898   -2.345756
     19          6           0        3.642999    3.740174   -2.699010
     20          6           0        4.579172    4.455917   -1.854874
     21          6           0        5.284029    3.317787   -1.149300
     22          6           0        2.534427    4.312595   -3.625150
     23          6           0        4.840281    5.972946   -1.754745
     24          8           0        4.327724    6.749929   -2.511786
     25          6           0        5.753564    6.595184   -0.863441
     26          7           0        6.253836    1.324581    1.053525
     27          6           0        6.703441    2.575880    0.852759
     28          6           0        7.874340    2.967984    1.778917
     29          6           0        8.089329    1.671579    2.600538
     30          6           0        6.985789    0.746099    2.038828
     31          6           0        9.138998    3.536510    1.109473
     32          6           0        7.842715    1.983834    4.107415
     33          6           0        6.473139    2.169935    4.613616
     34          7           0        4.905704   -1.215347    1.069494
     35          6           0        5.791517   -1.473764    2.078703
     36          6           0        5.615888   -2.856145    2.544144
     37          6           0        4.507369   -3.357471    1.844517
     38          6           0        4.164732   -2.297452    0.920559
     39          6           0        6.509585   -3.374040    3.603172
     40          6           0        3.679104   -4.480449    1.605564
     41          8           0        3.572921   -5.620560    2.089984
     42          6           0        2.717530   -4.012982    0.473034
     43          6           0        2.786269   -4.999536   -0.652696
     44          8           0        3.691617   -4.997198   -1.498911
     45          8           0        1.808119   -5.994103   -0.623367
     46          6           0        1.879959   -7.072897   -1.618162
     47          6           0       -4.221099   -3.635489   -1.693728
     48          6           0       -5.225620   -3.173502   -0.550601
     49          6           0       -5.496899   -1.955805   -0.023344
     50          6           0       -4.699447   -0.703342   -0.456874
     51          6           0       -6.631133   -1.672303    0.974593
     52          6           0       -7.895207   -1.431335    0.050406
     53          6           0       -9.092254   -2.307092    0.525733
     54          6           0      -10.250351   -1.435361    1.068496
     55          6           0      -11.581783   -2.200426    1.248630
     56          6           0       -9.931708   -0.625765    2.314913
     57          6           0      -10.231536    0.918767    2.078418
     58          6           0       -9.623874    1.830515    3.182348
     59          6           0       -8.575741    2.970608    2.682179
     60          6           0       -7.613821    3.273998    3.861713
     61          6           0       -9.288415    4.196149    2.043142
     62          6           0       -8.589450    4.888006    0.842527
     63          6           0       -9.142307    4.376307   -0.484453
     64          6           0       -8.045237    3.880495   -1.489954
     65          6           0       -8.379295    4.272713   -3.013271
     66          6           0       -7.749087    2.394761   -1.393010
     67          1           0        2.183053    1.606636   -3.728784
     68          1           0        6.783394    4.437057   -0.065148
     69          1           0        7.394404   -0.864712    3.307644
     70          1           0        1.762937   -2.973427   -2.616685
     71          1           0        0.549503   -0.367957   -2.984257
     72          1           0        2.433462   -0.467949   -4.976850
     73          1           0        0.974600   -1.394819   -5.012379
     74          1           0        2.486881   -2.113750   -4.401257
     75          1           0       -0.564564   -1.567032   -1.690636
     76          1           0        0.285905   -2.138894   -0.231286
     77          1           0       -0.480802   -4.162124   -0.719842
     78          1           0       -0.016515   -4.307120   -2.322208
     79          1           0        2.859998    5.299254   -3.956476
     80          1           0        1.627879    4.272402   -3.021452
     81          1           0        2.472053    3.656951   -4.492936
     82          1           0        6.748058    6.242142   -1.134341
     83          1           0        5.419577    6.256994    0.117446
     84          1           0        5.778802    7.682900   -0.936015
     85          1           0        7.546879    3.757953    2.454646
     86          1           0        9.096084    1.260453    2.523995
     87          1           0       10.075489    3.296161    1.612183
     88          1           0        9.025458    4.607948    0.941102
     89          1           0        9.189819    3.084848    0.118729
     90          1           0        8.422765    2.858354    4.404508
     91          1           0        8.321428    1.132385    4.590634
     92          1           0        6.297262    2.876386    5.424612
     93          1           0        6.050138    1.233703    4.976511
     94          1           0        5.759021    2.541724    3.879399
     95          1           0        6.181696   -4.398564    3.777875
     96          1           0        6.508817   -2.837427    4.552130
     97          1           0        7.532069   -3.408543    3.226858
     98          1           0        1.703023   -4.077057    0.866077
     99          1           0        1.000070   -7.689740   -1.438302
    100          1           0        2.736760   -7.713407   -1.411354
    101          1           0        1.942065   -6.598179   -2.597716
    102          1           0       -4.468702   -4.587376   -2.163664
    103          1           0       -4.405978   -2.919065   -2.493301
    104          1           0       -5.925630   -3.929389   -0.194900
    105          1           0       -4.211172   -0.305640    0.433295
    106          1           0       -5.465457   -0.016023   -0.815625
    107          1           0       -3.988559   -0.882880   -1.263265
    108          1           0       -6.278555   -0.899350    1.657799
    109          1           0       -6.742071   -2.505900    1.667710
    110          1           0       -7.692643   -1.654716   -0.997012
    111          1           0       -8.204471   -0.386188    0.016864
    112          1           0       -8.621590   -2.929687    1.286613
    113          1           0       -9.503375   -2.988805   -0.219393
    114          1           0      -10.528997   -0.684301    0.329736
    115          1           0      -11.899354   -2.736376    0.354823
    116          1           0      -12.343815   -1.491559    1.573685
    117          1           0      -11.374074   -3.042264    1.909035
    118          1           0       -8.854311   -0.702686    2.463584
    119          1           0      -10.364502   -0.945181    3.263570
    120          1           0      -11.309375    1.022156    2.198123
    121          1           0       -9.805568    1.163090    1.105424
    122          1           0       -9.183439    1.222478    3.972897
    123          1           0      -10.512729    2.275230    3.628407
    124          1           0       -7.971794    2.470990    1.924234
    125          1           0       -7.998173    3.041899    4.854798
    126          1           0       -7.262595    4.304930    3.909775
    127          1           0       -6.744814    2.657560    3.630094
    128          1           0       -9.326237    4.883392    2.887507
    129          1           0      -10.330096    3.984539    1.802975
    130          1           0       -7.513530    4.808176    0.991795
    131          1           0       -8.742813    5.965762    0.772214
    132          1           0       -9.775515    5.151013   -0.916371
    133          1           0       -9.872568    3.602793   -0.247491
    134          1           0       -7.127082    4.445520   -1.328809
    135          1           0       -9.442241    4.505979   -3.079645
    136          1           0       -8.145741    3.605065   -3.842617
    137          1           0       -7.814750    5.192068   -3.167175
    138          1           0       -6.662703    2.364232   -1.315921
    139          1           0       -8.072122    1.796573   -2.245193
    140          1           0       -8.157309    1.952144   -0.484748
 ---------------------------------------------------------------------

 SCF Done:  E(RZINDO/S) =  -474.261576766     A.U. after   19 cycles

 Excitation energies and oscillator strengths:

 Excited State   1:      Singlet-A      1.2693 eV  976.80 nm  f=0.5806  <S**2>=0.000
     175 ->178         0.20454
     176 ->177         0.65988
 This state for optimization and/or second-order correction.
 Total Energy, E(CIS/TDA) =  -474.214931079
 Copying the excited state density for this state as the 1-particle RhoCI density.

 Excited State   2:      Singlet-A      1.9222 eV  645.00 nm  f=0.0034  <S**2>=0.000
     175 ->177         0.50386
     176 ->178        -0.47646

 Excited State   3:      Singlet-A      2.8343 eV  437.45 nm  f=0.0015  <S**2>=0.000
     170 ->177         0.23416
     170 ->178         0.13874
     170 ->179        -0.21055
     170 ->181        -0.37486
     170 ->183        -0.11144
     170 ->185        -0.22263
     170 ->187        -0.13265
     170 ->189         0.13454
     173 ->177        -0.11046
     176 ->179         0.14874

 Excited State   4:      Singlet-A      2.8847 eV  429.81 nm  f=0.0329  <S**2>=0.000
     176 ->178         0.10950
     176 ->179         0.49321
     176 ->180         0.43860

 Excited State   5:      Singlet-A      2.9119 eV  425.79 nm  f=0.0978  <S**2>=0.000
     175 ->177        -0.15187
     176 ->178        -0.17895
     176 ->179        -0.35977
     176 ->180         0.53547

 The electronic state is 1-A.
 Alpha  occ. eigenvalues --   -1.85153  -1.82922  -1.80184  -1.73127  -1.71441
 Alpha  occ. eigenvalues --   -1.70774  -1.64917  -1.63624  -1.60025  -1.58816
 Alpha  occ. eigenvalues --   -1.53145  -1.50081  -1.48805  -1.48194  -1.46972
 Alpha  occ. eigenvalues --   -1.45350  -1.43389  -1.41014  -1.38758  -1.37407
 Alpha  occ. eigenvalues --   -1.36369  -1.35552  -1.31961  -1.30909  -1.28699
 Alpha  occ. eigenvalues --   -1.28219  -1.27660  -1.22966  -1.20013  -1.19197
 Alpha  occ. eigenvalues --   -1.16572  -1.15959  -1.14756  -1.13681  -1.12612
 Alpha  occ. eigenvalues --   -1.12125  -1.10363  -1.09129  -1.04987  -1.04330
 Alpha  occ. eigenvalues --   -1.01840  -1.00147  -0.98734  -0.97950  -0.97404
 Alpha  occ. eigenvalues --   -0.96431  -0.95604  -0.94483  -0.93953  -0.91501
 Alpha  occ. eigenvalues --   -0.91144  -0.91036  -0.89359  -0.88355  -0.87444
 Alpha  occ. eigenvalues --   -0.86354  -0.84856  -0.83474  -0.82200  -0.80454
 Alpha  occ. eigenvalues --   -0.79192  -0.78756  -0.76860  -0.76582  -0.76357
 Alpha  occ. eigenvalues --   -0.75815  -0.75353  -0.74691  -0.74360  -0.74047
 Alpha  occ. eigenvalues --   -0.73780  -0.73125  -0.72506  -0.72278  -0.71593
 Alpha  occ. eigenvalues --   -0.69722  -0.69438  -0.69180  -0.68754  -0.67683
 Alpha  occ. eigenvalues --   -0.67010  -0.66835  -0.66623  -0.66346  -0.65474
 Alpha  occ. eigenvalues --   -0.65444  -0.65113  -0.64910  -0.64072  -0.63971
 Alpha  occ. eigenvalues --   -0.63659  -0.63481  -0.63295  -0.62677  -0.61946
 Alpha  occ. eigenvalues --   -0.61606  -0.61476  -0.61139  -0.61016  -0.60472
 Alpha  occ. eigenvalues --   -0.60192  -0.59622  -0.59120  -0.58734  -0.58602
 Alpha  occ. eigenvalues --   -0.57874  -0.57499  -0.57407  -0.56681  -0.56440
 Alpha  occ. eigenvalues --   -0.56177  -0.55774  -0.55097  -0.54965  -0.54524
 Alpha  occ. eigenvalues --   -0.54213  -0.54105  -0.53965  -0.53696  -0.53451
 Alpha  occ. eigenvalues --   -0.53238  -0.52433  -0.52104  -0.51973  -0.51811
 Alpha  occ. eigenvalues --   -0.51488  -0.51407  -0.50883  -0.50456  -0.50329
 Alpha  occ. eigenvalues --   -0.50068  -0.49699  -0.49499  -0.49412  -0.49248
 Alpha  occ. eigenvalues --   -0.48892  -0.48489  -0.48356  -0.48116  -0.47700
 Alpha  occ. eigenvalues --   -0.47512  -0.47351  -0.46886  -0.46814  -0.46418
 Alpha  occ. eigenvalues --   -0.46326  -0.45881  -0.45435  -0.45275  -0.45112
 Alpha  occ. eigenvalues --   -0.44631  -0.44550  -0.44390  -0.44154  -0.44093
 Alpha  occ. eigenvalues --   -0.44019  -0.43715  -0.43438  -0.43033  -0.42876
 Alpha  occ. eigenvalues --   -0.42520  -0.41959  -0.41596  -0.39835  -0.39268
 Alpha  occ. eigenvalues --   -0.38491  -0.37155  -0.35714  -0.35518  -0.34384
 Alpha  occ. eigenvalues --   -0.33741  -0.32914  -0.32282  -0.31576  -0.27038
 Alpha  occ. eigenvalues --   -0.21876
 Alpha virt. eigenvalues --   -0.08354  -0.02835  -0.01216   0.00412   0.01148
 Alpha virt. eigenvalues --    0.01482   0.02221   0.02668   0.04659   0.05274
 Alpha virt. eigenvalues --    0.05954   0.06904   0.07257   0.07601   0.07830

 Mulliken charges:
               1
     1  Mg   0.438804
     2  C   -0.056065
     3  C   -0.093989
     4  C   -0.075345
     5  C   -0.050358
     6  N   -0.299326
     7  C    0.133034
     8  C    0.000485
     9  C    0.002911
    10  C    0.133850
    11  C   -0.048404
    12  C   -0.020353
    13  C   -0.009674
    14  C    0.473378
    15  O   -0.487439
    16  O   -0.268247
    17  N   -0.288937
    18  C    0.140297
    19  C    0.009935
    20  C   -0.064929
    21  C    0.097133
    22  C   -0.045025
    23  C    0.339804
    24  O   -0.524679
    25  C   -0.014438
    26  N   -0.248243
    27  C    0.110119
    28  C    0.000889
    29  C    0.006661
    30  C    0.102135
    31  C   -0.051535
    32  C   -0.016224
    33  C   -0.047315
    34  N   -0.318820
    35  C    0.085416
    36  C    0.052564
    37  C   -0.056283
    38  C    0.134821
    39  C   -0.034850
    40  C    0.343256
    41  O   -0.530864
    42  C    0.062709
    43  C    0.483037
    44  O   -0.533955
    45  O   -0.278736
    46  C    0.079267
    47  C    0.101762
    48  C   -0.120726
    49  C    0.004855
    50  C   -0.048131
    51  C   -0.018612
    52  C   -0.026733
    53  C   -0.035166
    54  C   -0.010122
    55  C   -0.062588
    56  C   -0.037705
    57  C   -0.046309
    58  C   -0.049337
    59  C   -0.010231
    60  C   -0.056272
    61  C   -0.030084
    62  C   -0.033036
    63  C   -0.029567
    64  C   -0.010374
    65  C   -0.069577
    66  C   -0.054040
    67  H    0.034389
    68  H    0.029677
    69  H    0.019664
    70  H    0.047880
    71  H    0.033314
    72  H    0.020987
    73  H    0.018894
    74  H    0.023414
    75  H    0.023806
    76  H    0.036211
    77  H    0.032772
    78  H    0.033126
    79  H    0.042715
    80  H    0.039097
    81  H    0.024672
    82  H    0.039518
    83  H    0.033315
    84  H    0.039971
    85  H    0.027732
    86  H    0.035807
    87  H    0.025893
    88  H    0.019918
    89  H    0.016562
    90  H    0.013925
    91  H    0.009265
    92  H    0.016153
    93  H    0.015471
    94  H    0.016550
    95  H    0.025197
    96  H    0.036663
    97  H    0.033496
    98  H    0.049029
    99  H    0.034888
   100  H    0.047320
   101  H    0.049662
   102  H    0.059695
   103  H    0.036951
   104  H    0.014601
   105  H    0.028790
   106  H    0.024420
   107  H    0.027303
   108  H    0.026321
   109  H    0.026346
   110  H    0.024575
   111  H    0.021962
   112  H    0.022650
   113  H    0.020204
   114  H    0.014946
   115  H    0.012156
   116  H    0.024993
   117  H    0.016589
   118  H    0.008365
   119  H    0.024827
   120  H    0.023611
   121  H    0.030289
   122  H    0.019409
   123  H    0.014038
   124  H    0.017930
   125  H    0.024559
   126  H    0.015954
   127  H    0.014241
   128  H    0.009064
   129  H    0.021609
   130  H    0.021136
   131  H    0.015435
   132  H    0.015805
   133  H    0.018080
   134  H    0.020959
   135  H    0.015987
   136  H    0.027132
   137  H    0.011980
   138  H    0.013648
   139  H    0.024433
   140  H    0.017573
 Sum of Mulliken charges =  -0.00000

 Dipole moment (field-independent basis, Debye):
    X=              2.3690    Y=              3.1306    Z=              3.0510  Tot=              4.9720
 N-N= 4.431778892930D+03 E-N= 0.000000000000D+00  KE=-9.537260299011D+03
 Leave Link  601 at Wed May  4 01:06:34 2022, MaxMem=  6710886400 cpu:               0.8 elap:               0.0
 (Enter /sw/apps/gaussian-16.0/g16/l9999.exe)
 1\1\GINC-BP1-COMPUTE160\SP\RZINDO CIS\STO-3G\C55H74Mg1N4O6\OF15641\04-
 May-2022\0\\#p ZINDO=(nstates=5)\\step_1151_chromophore_23 ZINDO\\0,1\
 Mg,0,-9.978,40.499,42.445\C,0,-8.742,37.475,41.213\C,0,-7.528,42.264,4
 0.929\C,0,-11.766,43.332,43.083\C,0,-12.73,38.591,43.64\N,0,-8.426,39.
 921,41.004\C,0,-8.028,38.608,40.783\C,0,-6.6,38.656,40.169\C,0,-6.192,
 40.18,40.179\C,0,-7.446,40.854,40.804\C,0,-4.918,40.468,40.944\C,0,-6.
 717,38.08,38.708\C,0,-5.68,36.966,38.38\C,0,-4.713,36.985,37.215\O,0,-

 Normal termination of Gaussian 16 at Wed May  4 01:06:34 2022.
