 Gaussian 16, Revision A.03,
 Gaussian 16:  ES64L-G16RevA.03 25-Dec-2016

 ------------------------------
 #p blyp/Def2SVP td=(nstates=5)
 ------------------------------

 --------------------------------------------------
 step_301_chromophore_25 TDDFT with blyp functional
 --------------------------------------------------
 Symbolic Z-matrix:
 Charge =  0 Multiplicity = 1

                         Standard orientation:
 ---------------------------------------------------------------------
 Center     Atomic      Atomic             Coordinates (Angstroms)
 Number     Number       Type             X           Y           Z
 ---------------------------------------------------------------------
      1         12           0        5.883152    0.369049    0.077434
      2          6           0        3.399107   -2.069105    0.259836
      3          6           0        3.420523    2.787202   -0.165963
      4          6           0        8.329645    2.740884   -0.441392
      5          6           0        8.302078   -2.014697    0.322298
      6          7           0        3.696149    0.296023   -0.075485
      7          6           0        2.847763   -0.779214    0.068558
      8          6           0        1.342872   -0.372083    0.026436
      9          6           0        1.402759    1.166409   -0.260470
     10          6           0        2.904529    1.456477   -0.184684
     11          6           0        0.699575    1.673418   -1.501638
     12          6           0        0.598929   -0.799794    1.375549
     13          6           0       -0.564125   -1.811467    1.190105
     14          6           0       -1.971898   -1.476565    1.690437
     15          8           0       -2.358065   -1.677817    2.840884
     16          8           0       -2.618382   -0.912961    0.618904
     17          7           0        5.794561    2.482699   -0.228763
     18          6           0        4.723404    3.309091   -0.204969
     19          6           0        5.142789    4.682857   -0.225185
     20          6           0        6.530087    4.695775   -0.356060
     21          6           0        6.959328    3.272851   -0.334663
     22          6           0        4.160781    5.805999   -0.010496
     23          6           0        7.473470    5.885098   -0.570684
     24          8           0        8.676600    5.725139   -0.616202
     25          6           0        6.961706    7.262812   -0.857365
     26          7           0        8.004901    0.373727   -0.127084
     27          6           0        8.704576    1.425035   -0.316098
     28          6           0       10.219930    1.047568   -0.191741
     29          6           0       10.250799   -0.375936    0.384305
     30          6           0        8.786572   -0.711968    0.292305
     31          6           0       10.895915    1.222440   -1.586365
     32          6           0       10.860105   -0.584917    1.769370
     33          6           0       11.139738   -1.974115    2.362898
     34          7           0        5.890700   -1.646401    0.173172
     35          6           0        6.971967   -2.530571    0.300630
     36          6           0        6.456652   -3.900298    0.390718
     37          6           0        5.074565   -3.791856    0.452174
     38          6           0        4.761023   -2.389336    0.311152
     39          6           0        7.271729   -5.087396    0.420741
     40          6           0        3.872001   -4.520820    0.569581
     41          8           0        3.666777   -5.710936    0.654554
     42          6           0        2.729195   -3.455141    0.339483
     43          6           0        2.010626   -3.773273   -0.960461
     44          8           0        2.454763   -3.529796   -2.081761
     45          8           0        0.835579   -4.397054   -0.678284
     46          6           0       -0.036504   -4.731339   -1.837345
     47          6           0       -4.010280   -0.656227    0.991927
     48          6           0       -4.806255   -0.166384   -0.124256
     49          6           0       -5.534625   -0.842851   -1.045959
     50          6           0       -5.608295   -2.357818   -1.046640
     51          6           0       -6.508303   -0.189093   -2.044931
     52          6           0       -7.905814   -0.256440   -1.473348
     53          6           0       -8.877455    0.675576   -2.254744
     54          6           0      -10.139267   -0.099731   -2.758382
     55          6           0       -9.792565   -0.787626   -4.124513
     56          6           0      -11.358839    0.864686   -2.839138
     57          6           0      -12.679862    0.192197   -2.442334
     58          6           0      -13.547232    1.006301   -1.420999
     59          6           0      -13.529602    0.453104    0.017690
     60          6           0      -14.233450   -0.878981    0.209535
     61          6           0      -14.101456    1.422852    1.047255
     62          6           0      -13.517183    1.187713    2.410455
     63          6           0      -12.450362    2.215894    2.961551
     64          6           0      -11.272239    1.528408    3.688879
     65          6           0      -10.524190    2.543415    4.528808
     66          6           0      -10.262491    0.810723    2.741893
     67          1           0        2.591645    3.493176   -0.259622
     68          1           0        9.124214    3.483286   -0.542015
     69          1           0        9.104940   -2.743981    0.453505
     70          1           0        0.839286   -0.809315   -0.836128
     71          1           0        0.993685    1.582508    0.660853
     72          1           0        0.088180    0.870293   -1.914609
     73          1           0        1.343756    2.214807   -2.194342
     74          1           0        0.027730    2.473412   -1.191625
     75          1           0        0.195267    0.081736    1.873285
     76          1           0        1.344171   -1.202877    2.062000
     77          1           0       -0.300372   -2.726393    1.720872
     78          1           0       -0.605233   -1.992655    0.116530
     79          1           0        3.179316    5.349789    0.120841
     80          1           0        4.162252    6.568081   -0.789296
     81          1           0        4.577540    6.267757    0.884451
     82          1           0        6.642612    7.840698    0.009421
     83          1           0        6.143360    7.044116   -1.543574
     84          1           0        7.681327    7.822863   -1.454013
     85          1           0       10.746347    1.820148    0.369236
     86          1           0       10.734072   -1.066868   -0.306038
     87          1           0       10.289201    1.027970   -2.470581
     88          1           0       11.536809    0.342738   -1.648328
     89          1           0       11.560489    2.082118   -1.672236
     90          1           0       10.230436   -0.099950    2.515890
     91          1           0       11.840188   -0.140474    1.938340
     92          1           0       10.891857   -2.722511    1.610375
     93          1           0       10.504671   -2.056493    3.244721
     94          1           0       12.168364   -2.073281    2.707270
     95          1           0        8.277858   -4.719707    0.220989
     96          1           0        6.882431   -5.721087   -0.376156
     97          1           0        7.180529   -5.647990    1.350911
     98          1           0        2.057376   -3.468789    1.197444
     99          1           0        0.357237   -4.519121   -2.831174
    100          1           0       -0.894584   -4.060689   -1.890713
    101          1           0       -0.240607   -5.802101   -1.818917
    102          1           0       -3.975845    0.052570    1.819503
    103          1           0       -4.471061   -1.579666    1.343978
    104          1           0       -5.184648    0.842054    0.043411
    105          1           0       -6.564688   -2.768156   -1.371111
    106          1           0       -5.490129   -2.751769   -0.036991
    107          1           0       -4.847649   -2.690502   -1.753151
    108          1           0       -6.588513   -0.673241   -3.018325
    109          1           0       -6.234152    0.842997   -2.263855
    110          1           0       -7.907669    0.036680   -0.423570
    111          1           0       -8.248814   -1.283046   -1.597835
    112          1           0       -8.356621    1.118916   -3.103743
    113          1           0       -9.228228    1.435405   -1.556037
    114          1           0      -10.356328   -0.932711   -2.089184
    115          1           0       -9.970488   -0.128633   -4.975144
    116          1           0      -10.390611   -1.684803   -4.277444
    117          1           0       -8.710731   -0.918050   -4.116392
    118          1           0      -11.525047    1.184099   -3.867200
    119          1           0      -11.132109    1.753666   -2.251157
    120          1           0      -12.479535   -0.818888   -2.089835
    121          1           0      -13.300595    0.061428   -3.328166
    122          1           0      -14.570928    0.962867   -1.791362
    123          1           0      -13.146068    2.019011   -1.393264
    124          1           0      -12.539978    0.121696    0.332117
    125          1           0      -15.101262   -0.855091    0.867569
    126          1           0      -13.576814   -1.627359    0.653194
    127          1           0      -14.493612   -1.328705   -0.748200
    128          1           0      -15.191039    1.413524    1.075747
    129          1           0      -13.714581    2.405238    0.775568
    130          1           0      -13.099537    0.181221    2.421856
    131          1           0      -14.333774    1.322984    3.119222
    132          1           0      -12.906269    2.828339    3.739472
    133          1           0      -12.008144    2.880372    2.220008
    134          1           0      -11.765329    0.811679    4.344865
    135          1           0      -10.990485    2.486745    5.512553
    136          1           0      -10.632578    3.566781    4.169228
    137          1           0       -9.451159    2.371986    4.610651
    138          1           0      -10.305346   -0.263075    2.923719
    139          1           0       -9.279743    1.281989    2.770124
    140          1           0      -10.581090    0.888229    1.702285
 ---------------------------------------------------------------------

 SCF Done:  E(RB-LYP) =  -3007.38951344     A.U. after   21 cycles

 Excitation energies and oscillator strengths:

 Excited State   1:      Singlet-A      1.8162 eV  682.68 nm  f=0.3124  <S**2>=0.000
     245 -> 248       -0.20310
     246 -> 247        0.68647
     246 <- 247       -0.14660
 This state for optimization and/or second-order correction.
 Total Energy, E(TD-HF/TD-DFT) =  -3007.32277108
 Copying the excited state density for this state as the 1-particle RhoCI density.

 Excited State   2:      Singlet-A      2.0005 eV  619.76 nm  f=0.0764  <S**2>=0.000
     244 -> 247       -0.12751
     245 -> 247        0.63767
     246 -> 248        0.24320

 Excited State   3:      Singlet-A      2.0135 eV  615.77 nm  f=0.0022  <S**2>=0.000
     244 -> 247        0.69462
     245 -> 247        0.11868

 Excited State   4:      Singlet-A      2.0317 eV  610.26 nm  f=0.0011  <S**2>=0.000
     243 -> 247        0.70219

 Excited State   5:      Singlet-A      2.4579 eV  504.43 nm  f=0.0003  <S**2>=0.000
     241 -> 247       -0.35436
     242 -> 247        0.61158

 The electronic state is 1-A.
 Alpha  occ. eigenvalues --  -46.26490 -18.82709 -18.82541 -18.77398 -18.76314
 Alpha  occ. eigenvalues --  -18.75511 -18.75403 -14.03434 -14.02487 -14.00951
 Alpha  occ. eigenvalues --  -14.00644 -10.04056 -10.03791  -9.99915  -9.99023
 Alpha  occ. eigenvalues --   -9.97695  -9.97379  -9.96833  -9.96763  -9.96299
 Alpha  occ. eigenvalues --   -9.96083  -9.95596  -9.95374  -9.95224  -9.94568
 Alpha  occ. eigenvalues --   -9.94311  -9.94192  -9.93989  -9.93767  -9.93713
 Alpha  occ. eigenvalues --   -9.93511  -9.93471  -9.93256  -9.93252  -9.93208
 Alpha  occ. eigenvalues --   -9.93180  -9.92874  -9.92756  -9.92726  -9.92641
 Alpha  occ. eigenvalues --   -9.92630  -9.92608  -9.92569  -9.92357  -9.92316
 Alpha  occ. eigenvalues --   -9.92095  -9.92069  -9.91997  -9.91834  -9.91792
 Alpha  occ. eigenvalues --   -9.91747  -9.91727  -9.91716  -9.91645  -9.91525
 Alpha  occ. eigenvalues --   -9.91384  -9.91309  -9.91210  -9.91197  -9.91134
 Alpha  occ. eigenvalues --   -9.91025  -9.90934  -9.90553  -9.90526  -9.90518
 Alpha  occ. eigenvalues --   -9.90443  -2.91154  -1.71587  -1.71015  -1.70883
 Alpha  occ. eigenvalues --   -0.98077  -0.97307  -0.92131  -0.91632  -0.90415
 Alpha  occ. eigenvalues --   -0.89217  -0.87001  -0.85258  -0.84797  -0.84016
 Alpha  occ. eigenvalues --   -0.74809  -0.74471  -0.73569  -0.72919  -0.72621
 Alpha  occ. eigenvalues --   -0.72281  -0.71385  -0.71169  -0.70878  -0.70409
 Alpha  occ. eigenvalues --   -0.70325  -0.69495  -0.68514  -0.67558  -0.67160
 Alpha  occ. eigenvalues --   -0.66501  -0.65980  -0.65499  -0.65070  -0.64497
 Alpha  occ. eigenvalues --   -0.64245  -0.62712  -0.62313  -0.61986  -0.60598
 Alpha  occ. eigenvalues --   -0.60516  -0.60232  -0.59880  -0.59571  -0.59317
 Alpha  occ. eigenvalues --   -0.58460  -0.57345  -0.56352  -0.55607  -0.54492
 Alpha  occ. eigenvalues --   -0.54320  -0.53865  -0.52590  -0.52281  -0.51703
 Alpha  occ. eigenvalues --   -0.51152  -0.50656  -0.50456  -0.50318  -0.50072
 Alpha  occ. eigenvalues --   -0.49859  -0.49068  -0.48795  -0.48317  -0.46510
 Alpha  occ. eigenvalues --   -0.46092  -0.45791  -0.45708  -0.44797  -0.44280
 Alpha  occ. eigenvalues --   -0.44148  -0.43914  -0.43204  -0.42671  -0.42512
 Alpha  occ. eigenvalues --   -0.42191  -0.41932  -0.41868  -0.41684  -0.41309
 Alpha  occ. eigenvalues --   -0.41194  -0.40987  -0.40914  -0.40147  -0.40098
 Alpha  occ. eigenvalues --   -0.39984  -0.39945  -0.39715  -0.39539  -0.39402
 Alpha  occ. eigenvalues --   -0.39140  -0.38991  -0.38800  -0.38510  -0.38439
 Alpha  occ. eigenvalues --   -0.38227  -0.38136  -0.37906  -0.37821  -0.37518
 Alpha  occ. eigenvalues --   -0.37452  -0.37097  -0.36777  -0.36627  -0.36507
 Alpha  occ. eigenvalues --   -0.36367  -0.36079  -0.35969  -0.35811  -0.35648
 Alpha  occ. eigenvalues --   -0.35618  -0.35264  -0.35086  -0.34976  -0.34413
 Alpha  occ. eigenvalues --   -0.34249  -0.34198  -0.34068  -0.33950  -0.33748
 Alpha  occ. eigenvalues --   -0.33704  -0.33617  -0.33425  -0.33248  -0.32930
 Alpha  occ. eigenvalues --   -0.32817  -0.32567  -0.32508  -0.32222  -0.32067
 Alpha  occ. eigenvalues --   -0.32032  -0.31836  -0.31738  -0.31578  -0.31406
 Alpha  occ. eigenvalues --   -0.31375  -0.31181  -0.31046  -0.30901  -0.30712
 Alpha  occ. eigenvalues --   -0.30652  -0.30364  -0.30349  -0.30266  -0.29944
 Alpha  occ. eigenvalues --   -0.29640  -0.29458  -0.29395  -0.28961  -0.28869
 Alpha  occ. eigenvalues --   -0.28763  -0.28562  -0.28346  -0.28230  -0.28142
 Alpha  occ. eigenvalues --   -0.27635  -0.27546  -0.27300  -0.26881  -0.26517
 Alpha  occ. eigenvalues --   -0.26236  -0.26122  -0.25824  -0.25645  -0.25521
 Alpha  occ. eigenvalues --   -0.25269  -0.25112  -0.25095  -0.24739  -0.23529
 Alpha  occ. eigenvalues --   -0.23168  -0.22422  -0.21920  -0.21572  -0.20787
 Alpha  occ. eigenvalues --   -0.20396  -0.20336  -0.18668  -0.18633  -0.16958
 Alpha  occ. eigenvalues --   -0.15647
 Alpha virt. eigenvalues --   -0.11321  -0.06581  -0.06059  -0.04635  -0.03798
 Alpha virt. eigenvalues --   -0.03229  -0.02149  -0.01786  -0.01320   0.00902
 Alpha virt. eigenvalues --    0.01451   0.01535   0.01829   0.02562   0.02921

 Mulliken charges:
               1
     1  Mg   0.692497
     2  C    0.018850
     3  C   -0.068628
     4  C   -0.046018
     5  C   -0.062922
     6  N   -0.227000
     7  C   -0.072265
     8  C    0.000199
     9  C    0.023479
    10  C   -0.021389
    11  C    0.164949
    12  C    0.122659
    13  C    0.134517
    14  C    0.066908
    15  O   -0.195222
    16  O   -0.266954
    17  N   -0.276874
    18  C    0.141365
    19  C   -0.145120
    20  C    0.033130
    21  C    0.061649
    22  C    0.180267
    23  C   -0.079664
    24  O   -0.155440
    25  C    0.129668
    26  N   -0.196774
    27  C    0.080169
    28  C   -0.054880
    29  C    0.134370
    30  C   -0.007171
    31  C    0.122469
    32  C    0.081269
    33  C    0.073102
    34  N   -0.300139
    35  C    0.136198
    36  C   -0.182604
    37  C    0.141767
    38  C    0.070278
    39  C    0.186189
    40  C   -0.086559
    41  O   -0.116536
    42  C    0.037312
    43  C    0.126083
    44  O   -0.186292
    45  O   -0.256959
    46  C    0.201348
    47  C    0.313530
    48  C   -0.068725
    49  C   -0.146316
    50  C    0.137540
    51  C    0.125840
    52  C    0.047811
    53  C    0.107825
    54  C   -0.118502
    55  C    0.105563
    56  C    0.138446
    57  C    0.064945
    58  C    0.131748
    59  C   -0.112690
    60  C    0.102943
    61  C    0.138732
    62  C    0.085128
    63  C    0.086385
    64  C   -0.127801
    65  C    0.114115
    66  C    0.113142
    67  H   -0.072511
    68  H   -0.041052
    69  H   -0.073203
    70  H   -0.016743
    71  H   -0.027311
    72  H    0.001124
    73  H    0.001957
    74  H   -0.019531
    75  H   -0.017015
    76  H   -0.008354
    77  H    0.002555
    78  H   -0.011127
    79  H   -0.007912
    80  H   -0.000933
    81  H    0.007182
    82  H    0.020255
    83  H   -0.002515
    84  H   -0.004000
    85  H   -0.030050
    86  H   -0.033578
    87  H   -0.006872
    88  H   -0.038928
    89  H    0.006269
    90  H   -0.033689
    91  H   -0.026236
    92  H   -0.009771
    93  H   -0.005538
    94  H   -0.011057
    95  H   -0.020160
    96  H    0.011625
    97  H    0.012402
    98  H   -0.013931
    99  H    0.011822
   100  H    0.012560
   101  H    0.033103
   102  H   -0.016198
   103  H   -0.012509
   104  H   -0.042069
   105  H   -0.008704
   106  H   -0.007374
   107  H    0.008974
   108  H   -0.031427
   109  H   -0.025130
   110  H   -0.020408
   111  H   -0.019468
   112  H   -0.027304
   113  H   -0.031759
   114  H   -0.026145
   115  H   -0.020913
   116  H   -0.007362
   117  H   -0.024081
   118  H   -0.035514
   119  H   -0.032595
   120  H   -0.035425
   121  H   -0.040663
   122  H   -0.035282
   123  H   -0.028699
   124  H   -0.035638
   125  H   -0.018574
   126  H   -0.026407
   127  H   -0.025263
   128  H   -0.029133
   129  H   -0.050104
   130  H   -0.028134
   131  H   -0.040500
   132  H   -0.035325
   133  H   -0.034145
   134  H   -0.032722
   135  H   -0.018283
   136  H   -0.019885
   137  H   -0.018969
   138  H   -0.010310
   139  H   -0.014361
   140  H   -0.025969
 Sum of Mulliken charges =  -0.00000

 Dipole moment (field-independent basis, Debye):
    X=             -3.3463    Y=              3.3254    Z=             -0.9004  Tot=              4.8028
 Quadrupole moment (field-independent basis, Debye-Ang):
   XX=           -370.9030   YY=           -420.2778   ZZ=           -411.9517
   XY=             -2.0693   XZ=             22.4607   YZ=              8.2616

 Normal termination of Gaussian 16 at Wed May  4 18:51:05 2022.
