 Gaussian 16, Revision A.03,
 Gaussian 16:  ES64L-G16RevA.03 25-Dec-2016

 -----------------------------------
 #p cam-b3lyp/Def2SVP td=(nstates=5)
 -----------------------------------

 -------------------------------------------------------
 step_301_chromophore_25 TDDFT with cam-b3lyp functional
 -------------------------------------------------------
 Symbolic Z-matrix:
 Charge =  0 Multiplicity = 1

                         Standard orientation:
 ---------------------------------------------------------------------
 Center     Atomic      Atomic             Coordinates (Angstroms)
 Number     Number       Type             X           Y           Z
 ---------------------------------------------------------------------
      1         12           0        5.883152    0.369049    0.077434
      2          6           0        3.399107   -2.069105    0.259836
      3          6           0        3.420523    2.787202   -0.165963
      4          6           0        8.329645    2.740884   -0.441392
      5          6           0        8.302078   -2.014697    0.322298
      6          7           0        3.696149    0.296023   -0.075485
      7          6           0        2.847763   -0.779214    0.068558
      8          6           0        1.342872   -0.372083    0.026436
      9          6           0        1.402759    1.166409   -0.260470
     10          6           0        2.904529    1.456477   -0.184684
     11          6           0        0.699575    1.673418   -1.501638
     12          6           0        0.598929   -0.799794    1.375549
     13          6           0       -0.564125   -1.811467    1.190105
     14          6           0       -1.971898   -1.476565    1.690437
     15          8           0       -2.358065   -1.677817    2.840884
     16          8           0       -2.618382   -0.912961    0.618904
     17          7           0        5.794561    2.482699   -0.228763
     18          6           0        4.723404    3.309091   -0.204969
     19          6           0        5.142789    4.682857   -0.225185
     20          6           0        6.530087    4.695775   -0.356060
     21          6           0        6.959328    3.272851   -0.334663
     22          6           0        4.160781    5.805999   -0.010496
     23          6           0        7.473470    5.885098   -0.570684
     24          8           0        8.676600    5.725139   -0.616202
     25          6           0        6.961706    7.262812   -0.857365
     26          7           0        8.004901    0.373727   -0.127084
     27          6           0        8.704576    1.425035   -0.316098
     28          6           0       10.219930    1.047568   -0.191741
     29          6           0       10.250799   -0.375936    0.384305
     30          6           0        8.786572   -0.711968    0.292305
     31          6           0       10.895915    1.222440   -1.586365
     32          6           0       10.860105   -0.584917    1.769370
     33          6           0       11.139738   -1.974115    2.362898
     34          7           0        5.890700   -1.646401    0.173172
     35          6           0        6.971967   -2.530571    0.300630
     36          6           0        6.456652   -3.900298    0.390718
     37          6           0        5.074565   -3.791856    0.452174
     38          6           0        4.761023   -2.389336    0.311152
     39          6           0        7.271729   -5.087396    0.420741
     40          6           0        3.872001   -4.520820    0.569581
     41          8           0        3.666777   -5.710936    0.654554
     42          6           0        2.729195   -3.455141    0.339483
     43          6           0        2.010626   -3.773273   -0.960461
     44          8           0        2.454763   -3.529796   -2.081761
     45          8           0        0.835579   -4.397054   -0.678284
     46          6           0       -0.036504   -4.731339   -1.837345
     47          6           0       -4.010280   -0.656227    0.991927
     48          6           0       -4.806255   -0.166384   -0.124256
     49          6           0       -5.534625   -0.842851   -1.045959
     50          6           0       -5.608295   -2.357818   -1.046640
     51          6           0       -6.508303   -0.189093   -2.044931
     52          6           0       -7.905814   -0.256440   -1.473348
     53          6           0       -8.877455    0.675576   -2.254744
     54          6           0      -10.139267   -0.099731   -2.758382
     55          6           0       -9.792565   -0.787626   -4.124513
     56          6           0      -11.358839    0.864686   -2.839138
     57          6           0      -12.679862    0.192197   -2.442334
     58          6           0      -13.547232    1.006301   -1.420999
     59          6           0      -13.529602    0.453104    0.017690
     60          6           0      -14.233450   -0.878981    0.209535
     61          6           0      -14.101456    1.422852    1.047255
     62          6           0      -13.517183    1.187713    2.410455
     63          6           0      -12.450362    2.215894    2.961551
     64          6           0      -11.272239    1.528408    3.688879
     65          6           0      -10.524190    2.543415    4.528808
     66          6           0      -10.262491    0.810723    2.741893
     67          1           0        2.591645    3.493176   -0.259622
     68          1           0        9.124214    3.483286   -0.542015
     69          1           0        9.104940   -2.743981    0.453505
     70          1           0        0.839286   -0.809315   -0.836128
     71          1           0        0.993685    1.582508    0.660853
     72          1           0        0.088180    0.870293   -1.914609
     73          1           0        1.343756    2.214807   -2.194342
     74          1           0        0.027730    2.473412   -1.191625
     75          1           0        0.195267    0.081736    1.873285
     76          1           0        1.344171   -1.202877    2.062000
     77          1           0       -0.300372   -2.726393    1.720872
     78          1           0       -0.605233   -1.992655    0.116530
     79          1           0        3.179316    5.349789    0.120841
     80          1           0        4.162252    6.568081   -0.789296
     81          1           0        4.577540    6.267757    0.884451
     82          1           0        6.642612    7.840698    0.009421
     83          1           0        6.143360    7.044116   -1.543574
     84          1           0        7.681327    7.822863   -1.454013
     85          1           0       10.746347    1.820148    0.369236
     86          1           0       10.734072   -1.066868   -0.306038
     87          1           0       10.289201    1.027970   -2.470581
     88          1           0       11.536809    0.342738   -1.648328
     89          1           0       11.560489    2.082118   -1.672236
     90          1           0       10.230436   -0.099950    2.515890
     91          1           0       11.840188   -0.140474    1.938340
     92          1           0       10.891857   -2.722511    1.610375
     93          1           0       10.504671   -2.056493    3.244721
     94          1           0       12.168364   -2.073281    2.707270
     95          1           0        8.277858   -4.719707    0.220989
     96          1           0        6.882431   -5.721087   -0.376156
     97          1           0        7.180529   -5.647990    1.350911
     98          1           0        2.057376   -3.468789    1.197444
     99          1           0        0.357237   -4.519121   -2.831174
    100          1           0       -0.894584   -4.060689   -1.890713
    101          1           0       -0.240607   -5.802101   -1.818917
    102          1           0       -3.975845    0.052570    1.819503
    103          1           0       -4.471061   -1.579666    1.343978
    104          1           0       -5.184648    0.842054    0.043411
    105          1           0       -6.564688   -2.768156   -1.371111
    106          1           0       -5.490129   -2.751769   -0.036991
    107          1           0       -4.847649   -2.690502   -1.753151
    108          1           0       -6.588513   -0.673241   -3.018325
    109          1           0       -6.234152    0.842997   -2.263855
    110          1           0       -7.907669    0.036680   -0.423570
    111          1           0       -8.248814   -1.283046   -1.597835
    112          1           0       -8.356621    1.118916   -3.103743
    113          1           0       -9.228228    1.435405   -1.556037
    114          1           0      -10.356328   -0.932711   -2.089184
    115          1           0       -9.970488   -0.128633   -4.975144
    116          1           0      -10.390611   -1.684803   -4.277444
    117          1           0       -8.710731   -0.918050   -4.116392
    118          1           0      -11.525047    1.184099   -3.867200
    119          1           0      -11.132109    1.753666   -2.251157
    120          1           0      -12.479535   -0.818888   -2.089835
    121          1           0      -13.300595    0.061428   -3.328166
    122          1           0      -14.570928    0.962867   -1.791362
    123          1           0      -13.146068    2.019011   -1.393264
    124          1           0      -12.539978    0.121696    0.332117
    125          1           0      -15.101262   -0.855091    0.867569
    126          1           0      -13.576814   -1.627359    0.653194
    127          1           0      -14.493612   -1.328705   -0.748200
    128          1           0      -15.191039    1.413524    1.075747
    129          1           0      -13.714581    2.405238    0.775568
    130          1           0      -13.099537    0.181221    2.421856
    131          1           0      -14.333774    1.322984    3.119222
    132          1           0      -12.906269    2.828339    3.739472
    133          1           0      -12.008144    2.880372    2.220008
    134          1           0      -11.765329    0.811679    4.344865
    135          1           0      -10.990485    2.486745    5.512553
    136          1           0      -10.632578    3.566781    4.169228
    137          1           0       -9.451159    2.371986    4.610651
    138          1           0      -10.305346   -0.263075    2.923719
    139          1           0       -9.279743    1.281989    2.770124
    140          1           0      -10.581090    0.888229    1.702285
 ---------------------------------------------------------------------

 SCF Done:  E(RCAM-B3LYP) =  -3007.18623641     A.U. after   18 cycles

 Excitation energies and oscillator strengths:

 Excited State   1:      Singlet-A      1.7163 eV  722.41 nm  f=0.3887  <S**2>=0.000
     245 -> 248       -0.18588
     246 -> 247        0.68404
     245 <- 248       -0.10960
 This state for optimization and/or second-order correction.
 Total Energy, E(TD-HF/TD-DFT) =  -3007.12316504
 Copying the excited state density for this state as the 1-particle RhoCI density.

 Excited State   2:      Singlet-A      2.2099 eV  561.04 nm  f=0.1119  <S**2>=0.000
     245 -> 247        0.64003
     246 -> 248        0.28965

 Excited State   3:      Singlet-A      3.4532 eV  359.05 nm  f=0.0729  <S**2>=0.000
     240 -> 247       -0.13760
     242 -> 247       -0.10435
     243 -> 247       -0.41746
     244 -> 247        0.45115
     246 -> 248        0.25064

 Excited State   4:      Singlet-A      3.5433 eV  349.91 nm  f=0.4488  <S**2>=0.000
     244 -> 247       -0.40153
     245 -> 247       -0.21927
     246 -> 248        0.51707

 Excited State   5:      Singlet-A      3.6004 eV  344.36 nm  f=0.0476  <S**2>=0.000
     241 -> 247        0.49942
     241 -> 249       -0.30683
     241 -> 250       -0.18784
     243 -> 247        0.22681
     246 -> 248        0.13715

 The electronic state is 1-A.
 Alpha  occ. eigenvalues --  -46.87953 -19.25636 -19.25468 -19.20396 -19.19331
 Alpha  occ. eigenvalues --  -19.18988 -19.18371 -14.42375 -14.41225 -14.39539
 Alpha  occ. eigenvalues --  -14.38967 -10.39401 -10.39201 -10.35299 -10.34152
 Alpha  occ. eigenvalues --  -10.31725 -10.31517 -10.31505 -10.31237 -10.31091
 Alpha  occ. eigenvalues --  -10.30241 -10.29803 -10.29799 -10.29521 -10.28665
 Alpha  occ. eigenvalues --  -10.28509 -10.28415 -10.28390 -10.28008 -10.27764
 Alpha  occ. eigenvalues --  -10.27710 -10.27464 -10.27409 -10.27367 -10.27302
 Alpha  occ. eigenvalues --  -10.27296 -10.27145 -10.27075 -10.26759 -10.26595
 Alpha  occ. eigenvalues --  -10.26497 -10.26343 -10.26320 -10.26289 -10.26136
 Alpha  occ. eigenvalues --  -10.26125 -10.25898 -10.25761 -10.25564 -10.25453
 Alpha  occ. eigenvalues --  -10.25449 -10.25370 -10.25320 -10.25242 -10.25169
 Alpha  occ. eigenvalues --  -10.25065 -10.25009 -10.24912 -10.24897 -10.24812
 Alpha  occ. eigenvalues --  -10.24704 -10.24546 -10.24211 -10.24143 -10.24139
 Alpha  occ. eigenvalues --  -10.24105  -3.16526  -1.91436  -1.90962  -1.90851
 Alpha  occ. eigenvalues --   -1.16549  -1.15777  -1.10807  -1.09869  -1.08339
 Alpha  occ. eigenvalues --   -1.07106  -1.04672  -1.02890  -1.02426  -1.01501
 Alpha  occ. eigenvalues --   -0.91790  -0.91432  -0.90431  -0.89555  -0.89367
 Alpha  occ. eigenvalues --   -0.89009  -0.88020  -0.87849  -0.87635  -0.86939
 Alpha  occ. eigenvalues --   -0.86848  -0.85904  -0.84890  -0.83608  -0.83308
 Alpha  occ. eigenvalues --   -0.82561  -0.82283  -0.81528  -0.80916  -0.80314
 Alpha  occ. eigenvalues --   -0.80029  -0.78414  -0.78056  -0.77489  -0.75990
 Alpha  occ. eigenvalues --   -0.75910  -0.75604  -0.75202  -0.74816  -0.74605
 Alpha  occ. eigenvalues --   -0.73532  -0.72305  -0.71229  -0.70409  -0.69044
 Alpha  occ. eigenvalues --   -0.68959  -0.68520  -0.67114  -0.66656  -0.65729
 Alpha  occ. eigenvalues --   -0.65260  -0.64753  -0.64619  -0.64234  -0.64066
 Alpha  occ. eigenvalues --   -0.63769  -0.63002  -0.62722  -0.61963  -0.60135
 Alpha  occ. eigenvalues --   -0.59682  -0.59467  -0.59224  -0.58125  -0.57762
 Alpha  occ. eigenvalues --   -0.57568  -0.57197  -0.56576  -0.55850  -0.55522
 Alpha  occ. eigenvalues --   -0.55097  -0.54864  -0.54762  -0.54686  -0.54312
 Alpha  occ. eigenvalues --   -0.54067  -0.53948  -0.53724  -0.53135  -0.52997
 Alpha  occ. eigenvalues --   -0.52820  -0.52669  -0.52569  -0.52383  -0.52257
 Alpha  occ. eigenvalues --   -0.51535  -0.51404  -0.51390  -0.50869  -0.50743
 Alpha  occ. eigenvalues --   -0.50670  -0.50591  -0.50233  -0.50162  -0.49817
 Alpha  occ. eigenvalues --   -0.49652  -0.49634  -0.49361  -0.49186  -0.48848
 Alpha  occ. eigenvalues --   -0.48635  -0.48494  -0.48332  -0.48035  -0.47651
 Alpha  occ. eigenvalues --   -0.47612  -0.47209  -0.47091  -0.47060  -0.46304
 Alpha  occ. eigenvalues --   -0.46213  -0.46130  -0.45858  -0.45693  -0.45660
 Alpha  occ. eigenvalues --   -0.45438  -0.45404  -0.45287  -0.45187  -0.44617
 Alpha  occ. eigenvalues --   -0.44416  -0.44327  -0.44120  -0.43963  -0.43838
 Alpha  occ. eigenvalues --   -0.43611  -0.43542  -0.43289  -0.43215  -0.43148
 Alpha  occ. eigenvalues --   -0.42956  -0.42627  -0.42548  -0.42415  -0.42221
 Alpha  occ. eigenvalues --   -0.41958  -0.41755  -0.41711  -0.41550  -0.41503
 Alpha  occ. eigenvalues --   -0.41139  -0.40558  -0.40541  -0.40222  -0.39918
 Alpha  occ. eigenvalues --   -0.39718  -0.39643  -0.39281  -0.39248  -0.39003
 Alpha  occ. eigenvalues --   -0.38506  -0.38476  -0.38131  -0.37670  -0.37623
 Alpha  occ. eigenvalues --   -0.37268  -0.37055  -0.36833  -0.36689  -0.36536
 Alpha  occ. eigenvalues --   -0.36220  -0.35892  -0.35660  -0.35252  -0.34354
 Alpha  occ. eigenvalues --   -0.34116  -0.33936  -0.32802  -0.31172  -0.31013
 Alpha  occ. eigenvalues --   -0.30557  -0.30184  -0.30106  -0.29538  -0.23687
 Alpha  occ. eigenvalues --   -0.20903
 Alpha virt. eigenvalues --   -0.08404  -0.01425   0.00489   0.02341   0.03387
 Alpha virt. eigenvalues --    0.03562   0.04499   0.05649   0.05774   0.06777
 Alpha virt. eigenvalues --    0.07373   0.08394   0.08800   0.08988   0.09274

 Mulliken charges:
               1
     1  Mg   0.826573
     2  C   -0.010887
     3  C   -0.085757
     4  C   -0.061525
     5  C   -0.066725
     6  N   -0.296865
     7  C   -0.033754
     8  C   -0.039759
     9  C   -0.030680
    10  C    0.005051
    11  C    0.099699
    12  C    0.069007
    13  C    0.068848
    14  C    0.147232
    15  O   -0.237170
    16  O   -0.328784
    17  N   -0.363483
    18  C    0.150631
    19  C   -0.150521
    20  C   -0.036903
    21  C    0.089067
    22  C    0.128305
    23  C    0.001156
    24  O   -0.194703
    25  C    0.050526
    26  N   -0.271022
    27  C    0.098484
    28  C   -0.107921
    29  C    0.063383
    30  C    0.012370
    31  C    0.064633
    32  C    0.029594
    33  C    0.012348
    34  N   -0.387872
    35  C    0.131651
    36  C   -0.176417
    37  C    0.060580
    38  C    0.106085
    39  C    0.134697
    40  C    0.012210
    41  O   -0.157490
    42  C   -0.032077
    43  C    0.211366
    44  O   -0.224362
    45  O   -0.320670
    46  C    0.165445
    47  C    0.272432
    48  C   -0.086510
    49  C   -0.166243
    50  C    0.073233
    51  C    0.067369
    52  C    0.000037
    53  C    0.051847
    54  C   -0.172175
    55  C    0.054098
    56  C    0.083116
    57  C    0.012932
    58  C    0.077323
    59  C   -0.164310
    60  C    0.041146
    61  C    0.080859
    62  C    0.029309
    63  C    0.036344
    64  C   -0.182450
    65  C    0.050805
    66  C    0.053423
    67  H   -0.039651
    68  H    0.000830
    69  H   -0.041398
    70  H    0.015984
    71  H    0.008991
    72  H    0.026799
    73  H    0.028856
    74  H    0.005739
    75  H    0.013018
    76  H    0.023658
    77  H    0.033568
    78  H    0.018131
    79  H    0.019613
    80  H    0.026361
    81  H    0.033670
    82  H    0.048376
    83  H    0.022432
    84  H    0.031447
    85  H    0.006506
    86  H    0.003102
    87  H    0.019634
    88  H   -0.013225
    89  H    0.030091
    90  H   -0.004787
    91  H    0.002528
    92  H    0.009570
    93  H    0.018671
    94  H    0.013960
    95  H    0.002338
    96  H    0.037665
    97  H    0.038158
    98  H    0.027118
    99  H    0.039372
   100  H    0.031425
   101  H    0.055056
   102  H    0.016196
   103  H    0.016543
   104  H   -0.010987
   105  H    0.016660
   106  H    0.016669
   107  H    0.034333
   108  H   -0.001887
   109  H    0.006102
   110  H    0.006598
   111  H    0.004909
   112  H    0.001230
   113  H   -0.002352
   114  H    0.003260
   115  H    0.003013
   116  H    0.016552
   117  H   -0.004866
   118  H   -0.006358
   119  H   -0.004940
   120  H   -0.009529
   121  H   -0.009891
   122  H   -0.005787
   123  H   -0.001685
   124  H   -0.006988
   125  H    0.006806
   126  H   -0.001721
   127  H   -0.000144
   128  H    0.000691
   129  H   -0.020334
   130  H   -0.002527
   131  H   -0.008994
   132  H   -0.005484
   133  H   -0.007678
   134  H   -0.001166
   135  H    0.006384
   136  H    0.004519
   137  H    0.006327
   138  H    0.013570
   139  H    0.009600
   140  H   -0.006429
 Sum of Mulliken charges =  -0.00000

 Dipole moment (field-independent basis, Debye):
    X=             -3.5899    Y=              4.3698    Z=             -1.0264  Tot=              5.7477
 Quadrupole moment (field-independent basis, Debye-Ang):
   XX=           -370.1095   YY=           -415.1362   ZZ=           -412.3386
   XY=              3.3460   XZ=             22.7924   YZ=              8.3114

 Normal termination of Gaussian 16 at Wed May  4 17:48:53 2022.
