 Gaussian 16, Revision A.03,
 Gaussian 16:  ES64L-G16RevA.03 25-Dec-2016

 ---------------------------------
 #p PBE1PBE/Def2SVP td=(nstates=5)
 ---------------------------------

 -----------------------------------------------------
 step_301_chromophore_25 TDDFT with PBE1PBE functional
 -----------------------------------------------------
 Symbolic Z-matrix:
 Charge =  0 Multiplicity = 1

                         Standard orientation:
 ---------------------------------------------------------------------
 Center     Atomic      Atomic             Coordinates (Angstroms)
 Number     Number       Type             X           Y           Z
 ---------------------------------------------------------------------
      1         12           0        5.883152    0.369049    0.077434
      2          6           0        3.399107   -2.069105    0.259836
      3          6           0        3.420523    2.787202   -0.165963
      4          6           0        8.329645    2.740884   -0.441392
      5          6           0        8.302078   -2.014697    0.322298
      6          7           0        3.696149    0.296023   -0.075485
      7          6           0        2.847763   -0.779214    0.068558
      8          6           0        1.342872   -0.372083    0.026436
      9          6           0        1.402759    1.166409   -0.260470
     10          6           0        2.904529    1.456477   -0.184684
     11          6           0        0.699575    1.673418   -1.501638
     12          6           0        0.598929   -0.799794    1.375549
     13          6           0       -0.564125   -1.811467    1.190105
     14          6           0       -1.971898   -1.476565    1.690437
     15          8           0       -2.358065   -1.677817    2.840884
     16          8           0       -2.618382   -0.912961    0.618904
     17          7           0        5.794561    2.482699   -0.228763
     18          6           0        4.723404    3.309091   -0.204969
     19          6           0        5.142789    4.682857   -0.225185
     20          6           0        6.530087    4.695775   -0.356060
     21          6           0        6.959328    3.272851   -0.334663
     22          6           0        4.160781    5.805999   -0.010496
     23          6           0        7.473470    5.885098   -0.570684
     24          8           0        8.676600    5.725139   -0.616202
     25          6           0        6.961706    7.262812   -0.857365
     26          7           0        8.004901    0.373727   -0.127084
     27          6           0        8.704576    1.425035   -0.316098
     28          6           0       10.219930    1.047568   -0.191741
     29          6           0       10.250799   -0.375936    0.384305
     30          6           0        8.786572   -0.711968    0.292305
     31          6           0       10.895915    1.222440   -1.586365
     32          6           0       10.860105   -0.584917    1.769370
     33          6           0       11.139738   -1.974115    2.362898
     34          7           0        5.890700   -1.646401    0.173172
     35          6           0        6.971967   -2.530571    0.300630
     36          6           0        6.456652   -3.900298    0.390718
     37          6           0        5.074565   -3.791856    0.452174
     38          6           0        4.761023   -2.389336    0.311152
     39          6           0        7.271729   -5.087396    0.420741
     40          6           0        3.872001   -4.520820    0.569581
     41          8           0        3.666777   -5.710936    0.654554
     42          6           0        2.729195   -3.455141    0.339483
     43          6           0        2.010626   -3.773273   -0.960461
     44          8           0        2.454763   -3.529796   -2.081761
     45          8           0        0.835579   -4.397054   -0.678284
     46          6           0       -0.036504   -4.731339   -1.837345
     47          6           0       -4.010280   -0.656227    0.991927
     48          6           0       -4.806255   -0.166384   -0.124256
     49          6           0       -5.534625   -0.842851   -1.045959
     50          6           0       -5.608295   -2.357818   -1.046640
     51          6           0       -6.508303   -0.189093   -2.044931
     52          6           0       -7.905814   -0.256440   -1.473348
     53          6           0       -8.877455    0.675576   -2.254744
     54          6           0      -10.139267   -0.099731   -2.758382
     55          6           0       -9.792565   -0.787626   -4.124513
     56          6           0      -11.358839    0.864686   -2.839138
     57          6           0      -12.679862    0.192197   -2.442334
     58          6           0      -13.547232    1.006301   -1.420999
     59          6           0      -13.529602    0.453104    0.017690
     60          6           0      -14.233450   -0.878981    0.209535
     61          6           0      -14.101456    1.422852    1.047255
     62          6           0      -13.517183    1.187713    2.410455
     63          6           0      -12.450362    2.215894    2.961551
     64          6           0      -11.272239    1.528408    3.688879
     65          6           0      -10.524190    2.543415    4.528808
     66          6           0      -10.262491    0.810723    2.741893
     67          1           0        2.591645    3.493176   -0.259622
     68          1           0        9.124214    3.483286   -0.542015
     69          1           0        9.104940   -2.743981    0.453505
     70          1           0        0.839286   -0.809315   -0.836128
     71          1           0        0.993685    1.582508    0.660853
     72          1           0        0.088180    0.870293   -1.914609
     73          1           0        1.343756    2.214807   -2.194342
     74          1           0        0.027730    2.473412   -1.191625
     75          1           0        0.195267    0.081736    1.873285
     76          1           0        1.344171   -1.202877    2.062000
     77          1           0       -0.300372   -2.726393    1.720872
     78          1           0       -0.605233   -1.992655    0.116530
     79          1           0        3.179316    5.349789    0.120841
     80          1           0        4.162252    6.568081   -0.789296
     81          1           0        4.577540    6.267757    0.884451
     82          1           0        6.642612    7.840698    0.009421
     83          1           0        6.143360    7.044116   -1.543574
     84          1           0        7.681327    7.822863   -1.454013
     85          1           0       10.746347    1.820148    0.369236
     86          1           0       10.734072   -1.066868   -0.306038
     87          1           0       10.289201    1.027970   -2.470581
     88          1           0       11.536809    0.342738   -1.648328
     89          1           0       11.560489    2.082118   -1.672236
     90          1           0       10.230436   -0.099950    2.515890
     91          1           0       11.840188   -0.140474    1.938340
     92          1           0       10.891857   -2.722511    1.610375
     93          1           0       10.504671   -2.056493    3.244721
     94          1           0       12.168364   -2.073281    2.707270
     95          1           0        8.277858   -4.719707    0.220989
     96          1           0        6.882431   -5.721087   -0.376156
     97          1           0        7.180529   -5.647990    1.350911
     98          1           0        2.057376   -3.468789    1.197444
     99          1           0        0.357237   -4.519121   -2.831174
    100          1           0       -0.894584   -4.060689   -1.890713
    101          1           0       -0.240607   -5.802101   -1.818917
    102          1           0       -3.975845    0.052570    1.819503
    103          1           0       -4.471061   -1.579666    1.343978
    104          1           0       -5.184648    0.842054    0.043411
    105          1           0       -6.564688   -2.768156   -1.371111
    106          1           0       -5.490129   -2.751769   -0.036991
    107          1           0       -4.847649   -2.690502   -1.753151
    108          1           0       -6.588513   -0.673241   -3.018325
    109          1           0       -6.234152    0.842997   -2.263855
    110          1           0       -7.907669    0.036680   -0.423570
    111          1           0       -8.248814   -1.283046   -1.597835
    112          1           0       -8.356621    1.118916   -3.103743
    113          1           0       -9.228228    1.435405   -1.556037
    114          1           0      -10.356328   -0.932711   -2.089184
    115          1           0       -9.970488   -0.128633   -4.975144
    116          1           0      -10.390611   -1.684803   -4.277444
    117          1           0       -8.710731   -0.918050   -4.116392
    118          1           0      -11.525047    1.184099   -3.867200
    119          1           0      -11.132109    1.753666   -2.251157
    120          1           0      -12.479535   -0.818888   -2.089835
    121          1           0      -13.300595    0.061428   -3.328166
    122          1           0      -14.570928    0.962867   -1.791362
    123          1           0      -13.146068    2.019011   -1.393264
    124          1           0      -12.539978    0.121696    0.332117
    125          1           0      -15.101262   -0.855091    0.867569
    126          1           0      -13.576814   -1.627359    0.653194
    127          1           0      -14.493612   -1.328705   -0.748200
    128          1           0      -15.191039    1.413524    1.075747
    129          1           0      -13.714581    2.405238    0.775568
    130          1           0      -13.099537    0.181221    2.421856
    131          1           0      -14.333774    1.322984    3.119222
    132          1           0      -12.906269    2.828339    3.739472
    133          1           0      -12.008144    2.880372    2.220008
    134          1           0      -11.765329    0.811679    4.344865
    135          1           0      -10.990485    2.486745    5.512553
    136          1           0      -10.632578    3.566781    4.169228
    137          1           0       -9.451159    2.371986    4.610651
    138          1           0      -10.305346   -0.263075    2.923719
    139          1           0       -9.279743    1.281989    2.770124
    140          1           0      -10.581090    0.888229    1.702285
 ---------------------------------------------------------------------

 SCF Done:  E(RPBE1PBE) =  -3005.37575114     A.U. after   15 cycles

 Excitation energies and oscillator strengths:

 Excited State   1:      Singlet-A      1.8630 eV  665.51 nm  f=0.3774  <S**2>=0.000
     245 -> 248       -0.18159
     246 -> 247        0.69054
     246 <- 247       -0.10469
 This state for optimization and/or second-order correction.
 Total Energy, E(TD-HF/TD-DFT) =  -3005.30728735
 Copying the excited state density for this state as the 1-particle RhoCI density.

 Excited State   2:      Singlet-A      2.2152 eV  559.69 nm  f=0.1098  <S**2>=0.000
     245 -> 247        0.65198
     246 -> 248        0.26487

 Excited State   3:      Singlet-A      3.0742 eV  403.31 nm  f=0.0002  <S**2>=0.000
     240 -> 247        0.13427
     241 -> 247       -0.22340
     243 -> 247        0.45607
     243 -> 249        0.13991
     244 -> 247        0.42496

 Excited State   4:      Singlet-A      3.1213 eV  397.22 nm  f=0.0005  <S**2>=0.000
     240 -> 247        0.17620
     241 -> 247        0.32788
     241 -> 249       -0.10284
     243 -> 247        0.43941
     244 -> 247       -0.36950

 Excited State   5:      Singlet-A      3.1629 eV  391.99 nm  f=0.0010  <S**2>=0.000
     240 -> 247        0.31669
     241 -> 247        0.45141
     243 -> 247       -0.19335
     244 -> 247        0.36235

 The electronic state is 1-A.
 Alpha  occ. eigenvalues --  -46.91370 -19.26358 -19.26142 -19.20729 -19.19609
 Alpha  occ. eigenvalues --  -19.19031 -19.18739 -14.41916 -14.40725 -14.39123
 Alpha  occ. eigenvalues --  -14.38719 -10.36479 -10.36248 -10.32280 -10.31388
 Alpha  occ. eigenvalues --  -10.29126 -10.29109 -10.28978 -10.28883 -10.28645
 Alpha  occ. eigenvalues --  -10.28159 -10.27519 -10.27367 -10.27245 -10.26518
 Alpha  occ. eigenvalues --  -10.26270 -10.26170 -10.25806 -10.25756 -10.25469
 Alpha  occ. eigenvalues --  -10.25378 -10.25345 -10.25291 -10.25201 -10.24965
 Alpha  occ. eigenvalues --  -10.24804 -10.24676 -10.24571 -10.24467 -10.24128
 Alpha  occ. eigenvalues --  -10.24050 -10.23884 -10.23745 -10.23733 -10.23705
 Alpha  occ. eigenvalues --  -10.23566 -10.23465 -10.23341 -10.23117 -10.23103
 Alpha  occ. eigenvalues --  -10.23076 -10.22856 -10.22826 -10.22784 -10.22742
 Alpha  occ. eigenvalues --  -10.22584 -10.22571 -10.22470 -10.22453 -10.22395
 Alpha  occ. eigenvalues --  -10.22232 -10.22123 -10.21930 -10.21682 -10.21527
 Alpha  occ. eigenvalues --  -10.21499  -3.13522  -1.86375  -1.85877  -1.85770
 Alpha  occ. eigenvalues --   -1.11390  -1.10574  -1.05388  -1.04752  -1.03237
 Alpha  occ. eigenvalues --   -1.01949  -0.99313  -0.97507  -0.97047  -0.96154
 Alpha  occ. eigenvalues --   -0.86229  -0.85566  -0.84521  -0.83899  -0.83583
 Alpha  occ. eigenvalues --   -0.83171  -0.82185  -0.82064  -0.81869  -0.81243
 Alpha  occ. eigenvalues --   -0.81193  -0.80125  -0.79089  -0.77899  -0.77520
 Alpha  occ. eigenvalues --   -0.76839  -0.76380  -0.75729  -0.75201  -0.74634
 Alpha  occ. eigenvalues --   -0.74229  -0.72726  -0.72280  -0.71822  -0.70307
 Alpha  occ. eigenvalues --   -0.70107  -0.69677  -0.69348  -0.69189  -0.68770
 Alpha  occ. eigenvalues --   -0.67858  -0.66796  -0.65633  -0.64754  -0.63452
 Alpha  occ. eigenvalues --   -0.63235  -0.62924  -0.61525  -0.60882  -0.60155
 Alpha  occ. eigenvalues --   -0.59776  -0.59248  -0.58859  -0.58797  -0.58411
 Alpha  occ. eigenvalues --   -0.58150  -0.57137  -0.56888  -0.56589  -0.54539
 Alpha  occ. eigenvalues --   -0.54204  -0.53967  -0.53797  -0.52733  -0.52200
 Alpha  occ. eigenvalues --   -0.51956  -0.51859  -0.51086  -0.50369  -0.49938
 Alpha  occ. eigenvalues --   -0.49674  -0.49401  -0.49247  -0.49101  -0.48885
 Alpha  occ. eigenvalues --   -0.48647  -0.48574  -0.48125  -0.47572  -0.47433
 Alpha  occ. eigenvalues --   -0.47302  -0.47151  -0.47048  -0.47007  -0.46726
 Alpha  occ. eigenvalues --   -0.46158  -0.46039  -0.45988  -0.45450  -0.45281
 Alpha  occ. eigenvalues --   -0.45207  -0.45134  -0.44805  -0.44754  -0.44363
 Alpha  occ. eigenvalues --   -0.44251  -0.44154  -0.43936  -0.43825  -0.43423
 Alpha  occ. eigenvalues --   -0.43209  -0.43073  -0.43033  -0.42688  -0.42324
 Alpha  occ. eigenvalues --   -0.42257  -0.41894  -0.41722  -0.41677  -0.41007
 Alpha  occ. eigenvalues --   -0.40893  -0.40876  -0.40591  -0.40460  -0.40366
 Alpha  occ. eigenvalues --   -0.40190  -0.40053  -0.39965  -0.39956  -0.39371
 Alpha  occ. eigenvalues --   -0.39237  -0.39012  -0.38824  -0.38658  -0.38482
 Alpha  occ. eigenvalues --   -0.38464  -0.38260  -0.38069  -0.37986  -0.37937
 Alpha  occ. eigenvalues --   -0.37759  -0.37351  -0.37319  -0.37234  -0.37048
 Alpha  occ. eigenvalues --   -0.36775  -0.36636  -0.36606  -0.36412  -0.36258
 Alpha  occ. eigenvalues --   -0.36000  -0.35483  -0.35369  -0.35159  -0.34707
 Alpha  occ. eigenvalues --   -0.34625  -0.34570  -0.34221  -0.34076  -0.33787
 Alpha  occ. eigenvalues --   -0.33409  -0.33294  -0.32961  -0.32626  -0.32465
 Alpha  occ. eigenvalues --   -0.32164  -0.31968  -0.31690  -0.31626  -0.31580
 Alpha  occ. eigenvalues --   -0.31319  -0.30764  -0.30574  -0.30176  -0.29387
 Alpha  occ. eigenvalues --   -0.29098  -0.28805  -0.28416  -0.26637  -0.25869
 Alpha  occ. eigenvalues --   -0.25707  -0.25489  -0.25472  -0.25233  -0.20610
 Alpha  occ. eigenvalues --   -0.18541
 Alpha virt. eigenvalues --   -0.10883  -0.04924  -0.03751  -0.02033  -0.00945
 Alpha virt. eigenvalues --   -0.00099   0.00610   0.01011   0.01363   0.03632
 Alpha virt. eigenvalues --    0.04198   0.04435   0.04852   0.05504   0.05858

 Mulliken charges:
               1
     1  Mg   0.979498
     2  C   -0.028901
     3  C   -0.082682
     4  C   -0.040261
     5  C   -0.069212
     6  N   -0.397534
     7  C    0.036103
     8  C   -0.101627
     9  C   -0.106790
    10  C    0.043589
    11  C    0.039574
    12  C    0.021129
    13  C   -0.012140
    14  C    0.210905
    15  O   -0.268953
    16  O   -0.356087
    17  N   -0.475262
    18  C    0.173044
    19  C   -0.180521
    20  C   -0.091526
    21  C    0.123935
    22  C    0.070150
    23  C    0.054124
    24  O   -0.232660
    25  C   -0.021725
    26  N   -0.381941
    27  C    0.129862
    28  C   -0.183654
    29  C   -0.029069
    30  C    0.055341
    31  C    0.010923
    32  C   -0.025279
    33  C   -0.060552
    34  N   -0.513893
    35  C    0.155790
    36  C   -0.198638
    37  C    0.011629
    38  C    0.162037
    39  C    0.080947
    40  C    0.108302
    41  O   -0.204134
    42  C   -0.137954
    43  C    0.301498
    44  O   -0.258521
    45  O   -0.352692
    46  C    0.111365
    47  C    0.225332
    48  C   -0.091977
    49  C   -0.213934
    50  C    0.012925
    51  C    0.000926
    52  C   -0.060949
    53  C   -0.007070
    54  C   -0.256041
    55  C   -0.006250
    56  C    0.031285
    57  C   -0.047573
    58  C    0.016747
    59  C   -0.253338
    60  C   -0.012105
    61  C    0.020902
    62  C   -0.032501
    63  C   -0.019264
    64  C   -0.272911
    65  C   -0.010724
    66  C   -0.009651
    67  H   -0.006309
    68  H    0.031524
    69  H   -0.005490
    70  H    0.053082
    71  H    0.047277
    72  H    0.053240
    73  H    0.056017
    74  H    0.033319
    75  H    0.045389
    76  H    0.055823
    77  H    0.065817
    78  H    0.054178
    79  H    0.046738
    80  H    0.052205
    81  H    0.061952
    82  H    0.073321
    83  H    0.049498
    84  H    0.058248
    85  H    0.042939
    86  H    0.040700
    87  H    0.047198
    88  H    0.015699
    89  H    0.056797
    90  H    0.029510
    91  H    0.036118
    92  H    0.037003
    93  H    0.046515
    94  H    0.042030
    95  H    0.031723
    96  H    0.066459
    97  H    0.066139
    98  H    0.066711
    99  H    0.060139
   100  H    0.052226
   101  H    0.076324
   102  H    0.043321
   103  H    0.043671
   104  H    0.019240
   105  H    0.042958
   106  H    0.043266
   107  H    0.062708
   108  H    0.032733
   109  H    0.038041
   110  H    0.040209
   111  H    0.038116
   112  H    0.033788
   113  H    0.031578
   114  H    0.040199
   115  H    0.030547
   116  H    0.044049
   117  H    0.025556
   118  H    0.026601
   119  H    0.025541
   120  H    0.022296
   121  H    0.023155
   122  H    0.027137
   123  H    0.030279
   124  H    0.035169
   125  H    0.034052
   126  H    0.024982
   127  H    0.027746
   128  H    0.032510
   129  H    0.014528
   130  H    0.030070
   131  H    0.024921
   132  H    0.028260
   133  H    0.023658
   134  H    0.036753
   135  H    0.034832
   136  H    0.031815
   137  H    0.033615
   138  H    0.040533
   139  H    0.036295
   140  H    0.023847
 Sum of Mulliken charges =  -0.00000

 Dipole moment (field-independent basis, Debye):
    X=             -3.5492    Y=              3.9407    Z=             -0.9748  Tot=              5.3922
 Quadrupole moment (field-independent basis, Debye-Ang):
   XX=           -363.3279   YY=           -412.9676   ZZ=           -409.7318
   XY=              0.1656   XZ=             23.5270   YZ=              8.3004

 Normal termination of Gaussian 16 at Wed May  4 18:05:22 2022.
