 Gaussian 16, Revision A.03,
 Gaussian 16:  ES64L-G16RevA.03 25-Dec-2016

 --------------------------------
 #p wB97XD/Def2SVP td=(nstates=5)
 --------------------------------

 ----------------------------------------------------
 step_301_chromophore_25 TDDFT with wB97XD functional
 ----------------------------------------------------
 Symbolic Z-matrix:
 Charge =  0 Multiplicity = 1

                         Standard orientation:
 ---------------------------------------------------------------------
 Center     Atomic      Atomic             Coordinates (Angstroms)
 Number     Number       Type             X           Y           Z
 ---------------------------------------------------------------------
      1         12           0        5.883152    0.369049    0.077434
      2          6           0        3.399107   -2.069105    0.259836
      3          6           0        3.420523    2.787202   -0.165963
      4          6           0        8.329645    2.740884   -0.441392
      5          6           0        8.302078   -2.014697    0.322298
      6          7           0        3.696149    0.296023   -0.075485
      7          6           0        2.847763   -0.779214    0.068558
      8          6           0        1.342872   -0.372083    0.026436
      9          6           0        1.402759    1.166409   -0.260470
     10          6           0        2.904529    1.456477   -0.184684
     11          6           0        0.699575    1.673418   -1.501638
     12          6           0        0.598929   -0.799794    1.375549
     13          6           0       -0.564125   -1.811467    1.190105
     14          6           0       -1.971898   -1.476565    1.690437
     15          8           0       -2.358065   -1.677817    2.840884
     16          8           0       -2.618382   -0.912961    0.618904
     17          7           0        5.794561    2.482699   -0.228763
     18          6           0        4.723404    3.309091   -0.204969
     19          6           0        5.142789    4.682857   -0.225185
     20          6           0        6.530087    4.695775   -0.356060
     21          6           0        6.959328    3.272851   -0.334663
     22          6           0        4.160781    5.805999   -0.010496
     23          6           0        7.473470    5.885098   -0.570684
     24          8           0        8.676600    5.725139   -0.616202
     25          6           0        6.961706    7.262812   -0.857365
     26          7           0        8.004901    0.373727   -0.127084
     27          6           0        8.704576    1.425035   -0.316098
     28          6           0       10.219930    1.047568   -0.191741
     29          6           0       10.250799   -0.375936    0.384305
     30          6           0        8.786572   -0.711968    0.292305
     31          6           0       10.895915    1.222440   -1.586365
     32          6           0       10.860105   -0.584917    1.769370
     33          6           0       11.139738   -1.974115    2.362898
     34          7           0        5.890700   -1.646401    0.173172
     35          6           0        6.971967   -2.530571    0.300630
     36          6           0        6.456652   -3.900298    0.390718
     37          6           0        5.074565   -3.791856    0.452174
     38          6           0        4.761023   -2.389336    0.311152
     39          6           0        7.271729   -5.087396    0.420741
     40          6           0        3.872001   -4.520820    0.569581
     41          8           0        3.666777   -5.710936    0.654554
     42          6           0        2.729195   -3.455141    0.339483
     43          6           0        2.010626   -3.773273   -0.960461
     44          8           0        2.454763   -3.529796   -2.081761
     45          8           0        0.835579   -4.397054   -0.678284
     46          6           0       -0.036504   -4.731339   -1.837345
     47          6           0       -4.010280   -0.656227    0.991927
     48          6           0       -4.806255   -0.166384   -0.124256
     49          6           0       -5.534625   -0.842851   -1.045959
     50          6           0       -5.608295   -2.357818   -1.046640
     51          6           0       -6.508303   -0.189093   -2.044931
     52          6           0       -7.905814   -0.256440   -1.473348
     53          6           0       -8.877455    0.675576   -2.254744
     54          6           0      -10.139267   -0.099731   -2.758382
     55          6           0       -9.792565   -0.787626   -4.124513
     56          6           0      -11.358839    0.864686   -2.839138
     57          6           0      -12.679862    0.192197   -2.442334
     58          6           0      -13.547232    1.006301   -1.420999
     59          6           0      -13.529602    0.453104    0.017690
     60          6           0      -14.233450   -0.878981    0.209535
     61          6           0      -14.101456    1.422852    1.047255
     62          6           0      -13.517183    1.187713    2.410455
     63          6           0      -12.450362    2.215894    2.961551
     64          6           0      -11.272239    1.528408    3.688879
     65          6           0      -10.524190    2.543415    4.528808
     66          6           0      -10.262491    0.810723    2.741893
     67          1           0        2.591645    3.493176   -0.259622
     68          1           0        9.124214    3.483286   -0.542015
     69          1           0        9.104940   -2.743981    0.453505
     70          1           0        0.839286   -0.809315   -0.836128
     71          1           0        0.993685    1.582508    0.660853
     72          1           0        0.088180    0.870293   -1.914609
     73          1           0        1.343756    2.214807   -2.194342
     74          1           0        0.027730    2.473412   -1.191625
     75          1           0        0.195267    0.081736    1.873285
     76          1           0        1.344171   -1.202877    2.062000
     77          1           0       -0.300372   -2.726393    1.720872
     78          1           0       -0.605233   -1.992655    0.116530
     79          1           0        3.179316    5.349789    0.120841
     80          1           0        4.162252    6.568081   -0.789296
     81          1           0        4.577540    6.267757    0.884451
     82          1           0        6.642612    7.840698    0.009421
     83          1           0        6.143360    7.044116   -1.543574
     84          1           0        7.681327    7.822863   -1.454013
     85          1           0       10.746347    1.820148    0.369236
     86          1           0       10.734072   -1.066868   -0.306038
     87          1           0       10.289201    1.027970   -2.470581
     88          1           0       11.536809    0.342738   -1.648328
     89          1           0       11.560489    2.082118   -1.672236
     90          1           0       10.230436   -0.099950    2.515890
     91          1           0       11.840188   -0.140474    1.938340
     92          1           0       10.891857   -2.722511    1.610375
     93          1           0       10.504671   -2.056493    3.244721
     94          1           0       12.168364   -2.073281    2.707270
     95          1           0        8.277858   -4.719707    0.220989
     96          1           0        6.882431   -5.721087   -0.376156
     97          1           0        7.180529   -5.647990    1.350911
     98          1           0        2.057376   -3.468789    1.197444
     99          1           0        0.357237   -4.519121   -2.831174
    100          1           0       -0.894584   -4.060689   -1.890713
    101          1           0       -0.240607   -5.802101   -1.818917
    102          1           0       -3.975845    0.052570    1.819503
    103          1           0       -4.471061   -1.579666    1.343978
    104          1           0       -5.184648    0.842054    0.043411
    105          1           0       -6.564688   -2.768156   -1.371111
    106          1           0       -5.490129   -2.751769   -0.036991
    107          1           0       -4.847649   -2.690502   -1.753151
    108          1           0       -6.588513   -0.673241   -3.018325
    109          1           0       -6.234152    0.842997   -2.263855
    110          1           0       -7.907669    0.036680   -0.423570
    111          1           0       -8.248814   -1.283046   -1.597835
    112          1           0       -8.356621    1.118916   -3.103743
    113          1           0       -9.228228    1.435405   -1.556037
    114          1           0      -10.356328   -0.932711   -2.089184
    115          1           0       -9.970488   -0.128633   -4.975144
    116          1           0      -10.390611   -1.684803   -4.277444
    117          1           0       -8.710731   -0.918050   -4.116392
    118          1           0      -11.525047    1.184099   -3.867200
    119          1           0      -11.132109    1.753666   -2.251157
    120          1           0      -12.479535   -0.818888   -2.089835
    121          1           0      -13.300595    0.061428   -3.328166
    122          1           0      -14.570928    0.962867   -1.791362
    123          1           0      -13.146068    2.019011   -1.393264
    124          1           0      -12.539978    0.121696    0.332117
    125          1           0      -15.101262   -0.855091    0.867569
    126          1           0      -13.576814   -1.627359    0.653194
    127          1           0      -14.493612   -1.328705   -0.748200
    128          1           0      -15.191039    1.413524    1.075747
    129          1           0      -13.714581    2.405238    0.775568
    130          1           0      -13.099537    0.181221    2.421856
    131          1           0      -14.333774    1.322984    3.119222
    132          1           0      -12.906269    2.828339    3.739472
    133          1           0      -12.008144    2.880372    2.220008
    134          1           0      -11.765329    0.811679    4.344865
    135          1           0      -10.990485    2.486745    5.512553
    136          1           0      -10.632578    3.566781    4.169228
    137          1           0       -9.451159    2.371986    4.610651
    138          1           0      -10.305346   -0.263075    2.923719
    139          1           0       -9.279743    1.281989    2.770124
    140          1           0      -10.581090    0.888229    1.702285
 ---------------------------------------------------------------------

 SCF Done:  E(RwB97XD) =  -3007.88364426     A.U. after   19 cycles

 Excitation energies and oscillator strengths:

 Excited State   1:      Singlet-A      1.6626 eV  745.73 nm  f=0.3869  <S**2>=0.000
     245 -> 248       -0.19092
     246 -> 247        0.68204
     245 <- 248       -0.11862
 This state for optimization and/or second-order correction.
 Total Energy, E(TD-HF/TD-DFT) =  -3007.82254528
 Copying the excited state density for this state as the 1-particle RhoCI density.

 Excited State   2:      Singlet-A      2.1550 eV  575.34 nm  f=0.1089  <S**2>=0.000
     245 -> 247        0.63796
     246 -> 248        0.29213

 Excited State   3:      Singlet-A      3.4635 eV  357.97 nm  f=0.1105  <S**2>=0.000
     239 -> 247        0.14745
     241 -> 247       -0.19078
     242 -> 247        0.42946
     244 -> 247       -0.36899
     246 -> 248       -0.30016

 Excited State   4:      Singlet-A      3.5614 eV  348.13 nm  f=0.4598  <S**2>=0.000
     244 -> 247       -0.42318
     245 -> 247       -0.22233
     246 -> 248        0.50513

 Excited State   5:      Singlet-A      3.6470 eV  339.96 nm  f=0.0274  <S**2>=0.000
     241 -> 247        0.41002
     241 -> 249       -0.29773
     241 -> 250       -0.18747
     242 -> 247        0.33554
     242 -> 249       -0.17030
     242 -> 250       -0.10219
     244 -> 247        0.11077

 The electronic state is 1-A.
 Alpha  occ. eigenvalues --  -46.94294 -19.30915 -19.30675 -19.25380 -19.24261
 Alpha  occ. eigenvalues --  -19.24042 -19.23389 -14.46995 -14.45803 -14.44179
 Alpha  occ. eigenvalues --  -14.43557 -10.43252 -10.43034 -10.39291 -10.38122
 Alpha  occ. eigenvalues --  -10.35599 -10.35464 -10.35421 -10.35245 -10.35241
 Alpha  occ. eigenvalues --  -10.34229 -10.33881 -10.33813 -10.33498 -10.32731
 Alpha  occ. eigenvalues --  -10.32574 -10.32543 -10.32379 -10.32049 -10.31797
 Alpha  occ. eigenvalues --  -10.31688 -10.31517 -10.31498 -10.31446 -10.31409
 Alpha  occ. eigenvalues --  -10.31271 -10.31189 -10.31149 -10.30781 -10.30524
 Alpha  occ. eigenvalues --  -10.30447 -10.30223 -10.30203 -10.30192 -10.30145
 Alpha  occ. eigenvalues --  -10.30144 -10.29808 -10.29705 -10.29510 -10.29414
 Alpha  occ. eigenvalues --  -10.29378 -10.29184 -10.29182 -10.29057 -10.29030
 Alpha  occ. eigenvalues --  -10.29016 -10.28946 -10.28835 -10.28823 -10.28754
 Alpha  occ. eigenvalues --  -10.28616 -10.28354 -10.28199 -10.28055 -10.27950
 Alpha  occ. eigenvalues --  -10.27930  -3.20295  -1.93898  -1.93401  -1.93291
 Alpha  occ. eigenvalues --   -1.18764  -1.17938  -1.13053  -1.12077  -1.10568
 Alpha  occ. eigenvalues --   -1.09277  -1.06670  -1.04904  -1.04469  -1.03520
 Alpha  occ. eigenvalues --   -0.93742  -0.93252  -0.92187  -0.91418  -0.91206
 Alpha  occ. eigenvalues --   -0.90824  -0.89844  -0.89762  -0.89568  -0.88870
 Alpha  occ. eigenvalues --   -0.88751  -0.87789  -0.86765  -0.85452  -0.85178
 Alpha  occ. eigenvalues --   -0.84475  -0.84218  -0.83423  -0.82822  -0.82254
 Alpha  occ. eigenvalues --   -0.81882  -0.80371  -0.79992  -0.79401  -0.77899
 Alpha  occ. eigenvalues --   -0.77790  -0.77378  -0.77026  -0.76765  -0.76437
 Alpha  occ. eigenvalues --   -0.75464  -0.74287  -0.73191  -0.72344  -0.70947
 Alpha  occ. eigenvalues --   -0.70860  -0.70502  -0.69135  -0.68534  -0.67628
 Alpha  occ. eigenvalues --   -0.67225  -0.66752  -0.66489  -0.66231  -0.65946
 Alpha  occ. eigenvalues --   -0.65740  -0.64803  -0.64542  -0.63939  -0.62058
 Alpha  occ. eigenvalues --   -0.61654  -0.61462  -0.61215  -0.60100  -0.59681
 Alpha  occ. eigenvalues --   -0.59454  -0.59203  -0.58525  -0.57843  -0.57414
 Alpha  occ. eigenvalues --   -0.57012  -0.56773  -0.56653  -0.56579  -0.56263
 Alpha  occ. eigenvalues --   -0.56007  -0.55878  -0.55579  -0.55091  -0.54968
 Alpha  occ. eigenvalues --   -0.54781  -0.54554  -0.54456  -0.54307  -0.54123
 Alpha  occ. eigenvalues --   -0.53430  -0.53337  -0.53308  -0.52766  -0.52639
 Alpha  occ. eigenvalues --   -0.52616  -0.52504  -0.52152  -0.52069  -0.51794
 Alpha  occ. eigenvalues --   -0.51559  -0.51502  -0.51280  -0.51142  -0.50784
 Alpha  occ. eigenvalues --   -0.50529  -0.50417  -0.50218  -0.49928  -0.49551
 Alpha  occ. eigenvalues --   -0.49506  -0.49164  -0.49057  -0.48933  -0.48221
 Alpha  occ. eigenvalues --   -0.48143  -0.48038  -0.47764  -0.47587  -0.47566
 Alpha  occ. eigenvalues --   -0.47346  -0.47232  -0.47207  -0.47112  -0.46541
 Alpha  occ. eigenvalues --   -0.46337  -0.46227  -0.46026  -0.45908  -0.45761
 Alpha  occ. eigenvalues --   -0.45551  -0.45440  -0.45238  -0.45145  -0.45062
 Alpha  occ. eigenvalues --   -0.44900  -0.44585  -0.44420  -0.44290  -0.44125
 Alpha  occ. eigenvalues --   -0.43857  -0.43698  -0.43636  -0.43427  -0.43402
 Alpha  occ. eigenvalues --   -0.43049  -0.42494  -0.42426  -0.42109  -0.41771
 Alpha  occ. eigenvalues --   -0.41615  -0.41540  -0.41178  -0.41116  -0.40851
 Alpha  occ. eigenvalues --   -0.40393  -0.40332  -0.39966  -0.39552  -0.39508
 Alpha  occ. eigenvalues --   -0.39200  -0.39009  -0.38698  -0.38663  -0.38464
 Alpha  occ. eigenvalues --   -0.38382  -0.37734  -0.37516  -0.37089  -0.36304
 Alpha  occ. eigenvalues --   -0.36068  -0.35857  -0.35067  -0.33260  -0.33123
 Alpha  occ. eigenvalues --   -0.32550  -0.32294  -0.32210  -0.31682  -0.25614
 Alpha  occ. eigenvalues --   -0.22704
 Alpha virt. eigenvalues --   -0.06749   0.00493   0.02545   0.04456   0.05717
 Alpha virt. eigenvalues --    0.06416   0.06760   0.07828   0.08116   0.09755
 Alpha virt. eigenvalues --    0.10877   0.11214   0.11659   0.12277   0.12567

 Mulliken charges:
               1
     1  Mg   0.968115
     2  C   -0.026291
     3  C   -0.099593
     4  C   -0.065578
     5  C   -0.072973
     6  N   -0.367628
     7  C    0.006262
     8  C   -0.079315
     9  C   -0.079612
    10  C    0.033245
    11  C    0.049177
    12  C    0.031183
    13  C    0.010606
    14  C    0.202497
    15  O   -0.267399
    16  O   -0.356681
    17  N   -0.444349
    18  C    0.169159
    19  C   -0.169052
    20  C   -0.082056
    21  C    0.115239
    22  C    0.082871
    23  C    0.049188
    24  O   -0.226190
    25  C   -0.009912
    26  N   -0.345485
    27  C    0.119083
    28  C   -0.161058
    29  C    0.008576
    30  C    0.035662
    31  C    0.018669
    32  C   -0.016132
    33  C   -0.044255
    34  N   -0.477429
    35  C    0.143566
    36  C   -0.192283
    37  C    0.014006
    38  C    0.141314
    39  C    0.091919
    40  C    0.091016
    41  O   -0.195645
    42  C   -0.097602
    43  C    0.276190
    44  O   -0.253619
    45  O   -0.350749
    46  C    0.127368
    47  C    0.243007
    48  C   -0.105639
    49  C   -0.194168
    50  C    0.023199
    51  C    0.020619
    52  C   -0.042476
    53  C    0.011601
    54  C   -0.226358
    55  C    0.008282
    56  C    0.044672
    57  C   -0.031112
    58  C    0.034670
    59  C   -0.213557
    60  C   -0.008269
    61  C    0.038499
    62  C   -0.015603
    63  C   -0.004304
    64  C   -0.242802
    65  C    0.001001
    66  C    0.004015
    67  H   -0.015235
    68  H    0.028561
    69  H   -0.021221
    70  H    0.038526
    71  H    0.035452
    72  H    0.049108
    73  H    0.050378
    74  H    0.027836
    75  H    0.037363
    76  H    0.047792
    77  H    0.060236
    78  H    0.041536
    79  H    0.043235
    80  H    0.048533
    81  H    0.056658
    82  H    0.071162
    83  H    0.040971
    84  H    0.057794
    85  H    0.034695
    86  H    0.028949
    87  H    0.042051
    88  H    0.008127
    89  H    0.052544
    90  H    0.020480
    91  H    0.027985
    92  H    0.029512
    93  H    0.040848
    94  H    0.037358
    95  H    0.024588
    96  H    0.061029
    97  H    0.061353
    98  H    0.056111
    99  H    0.056088
   100  H    0.048025
   101  H    0.073101
   102  H    0.039582
   103  H    0.035544
   104  H    0.015392
   105  H    0.038278
   106  H    0.037318
   107  H    0.057645
   108  H    0.022881
   109  H    0.030702
   110  H    0.031781
   111  H    0.023868
   112  H    0.023580
   113  H    0.022793
   114  H    0.025638
   115  H    0.023908
   116  H    0.039362
   117  H    0.014180
   118  H    0.018371
   119  H    0.015001
   120  H    0.010257
   121  H    0.016738
   122  H    0.019475
   123  H    0.020191
   124  H    0.013681
   125  H    0.028261
   126  H    0.020276
   127  H    0.021517
   128  H    0.025409
   129  H    0.002394
   130  H    0.016633
   131  H    0.018354
   132  H    0.019594
   133  H    0.013487
   134  H    0.025539
   135  H    0.028945
   136  H    0.025391
   137  H    0.027808
   138  H    0.035574
   139  H    0.030668
   140  H    0.013152
 Sum of Mulliken charges =  -0.00000

 Dipole moment (field-independent basis, Debye):
    X=             -3.6437    Y=              4.5570    Z=             -1.0553  Tot=              5.9293
 Quadrupole moment (field-independent basis, Debye-Ang):
   XX=           -364.8832   YY=           -410.4846   ZZ=           -409.5450
   XY=              4.0437   XZ=             23.2229   YZ=              8.3019

 Normal termination of Gaussian 16 at Wed May  4 18:37:29 2022.
