 Gaussian 16, Revision A.03,
 Gaussian 16:  ES64L-G16RevA.03 25-Dec-2016

 --------------------
 #p ZINDO=(nstates=5)
 --------------------

 -----------------------------
 step_301_chromophore_25 ZINDO
 -----------------------------
 Symbolic Z-matrix:
 Charge =  0 Multiplicity = 1

                         Standard orientation:
 ---------------------------------------------------------------------
 Center     Atomic      Atomic             Coordinates (Angstroms)
 Number     Number       Type             X           Y           Z
 ---------------------------------------------------------------------
      1         12           0        5.883152    0.369049    0.077434
      2          6           0        3.399107   -2.069105    0.259836
      3          6           0        3.420523    2.787202   -0.165963
      4          6           0        8.329645    2.740884   -0.441392
      5          6           0        8.302078   -2.014697    0.322298
      6          7           0        3.696149    0.296023   -0.075485
      7          6           0        2.847763   -0.779214    0.068558
      8          6           0        1.342872   -0.372083    0.026436
      9          6           0        1.402759    1.166409   -0.260470
     10          6           0        2.904529    1.456477   -0.184684
     11          6           0        0.699575    1.673418   -1.501638
     12          6           0        0.598929   -0.799794    1.375549
     13          6           0       -0.564125   -1.811467    1.190105
     14          6           0       -1.971898   -1.476565    1.690437
     15          8           0       -2.358065   -1.677817    2.840884
     16          8           0       -2.618382   -0.912961    0.618904
     17          7           0        5.794561    2.482699   -0.228763
     18          6           0        4.723404    3.309091   -0.204969
     19          6           0        5.142789    4.682857   -0.225185
     20          6           0        6.530087    4.695775   -0.356060
     21          6           0        6.959328    3.272851   -0.334663
     22          6           0        4.160781    5.805999   -0.010496
     23          6           0        7.473470    5.885098   -0.570684
     24          8           0        8.676600    5.725139   -0.616202
     25          6           0        6.961706    7.262812   -0.857365
     26          7           0        8.004901    0.373727   -0.127084
     27          6           0        8.704576    1.425035   -0.316098
     28          6           0       10.219930    1.047568   -0.191741
     29          6           0       10.250799   -0.375936    0.384305
     30          6           0        8.786572   -0.711968    0.292305
     31          6           0       10.895915    1.222440   -1.586365
     32          6           0       10.860105   -0.584917    1.769370
     33          6           0       11.139738   -1.974115    2.362898
     34          7           0        5.890700   -1.646401    0.173172
     35          6           0        6.971967   -2.530571    0.300630
     36          6           0        6.456652   -3.900298    0.390718
     37          6           0        5.074565   -3.791856    0.452174
     38          6           0        4.761023   -2.389336    0.311152
     39          6           0        7.271729   -5.087396    0.420741
     40          6           0        3.872001   -4.520820    0.569581
     41          8           0        3.666777   -5.710936    0.654554
     42          6           0        2.729195   -3.455141    0.339483
     43          6           0        2.010626   -3.773273   -0.960461
     44          8           0        2.454763   -3.529796   -2.081761
     45          8           0        0.835579   -4.397054   -0.678284
     46          6           0       -0.036504   -4.731339   -1.837345
     47          6           0       -4.010280   -0.656227    0.991927
     48          6           0       -4.806255   -0.166384   -0.124256
     49          6           0       -5.534625   -0.842851   -1.045959
     50          6           0       -5.608295   -2.357818   -1.046640
     51          6           0       -6.508303   -0.189093   -2.044931
     52          6           0       -7.905814   -0.256440   -1.473348
     53          6           0       -8.877455    0.675576   -2.254744
     54          6           0      -10.139267   -0.099731   -2.758382
     55          6           0       -9.792565   -0.787626   -4.124513
     56          6           0      -11.358839    0.864686   -2.839138
     57          6           0      -12.679862    0.192197   -2.442334
     58          6           0      -13.547232    1.006301   -1.420999
     59          6           0      -13.529602    0.453104    0.017690
     60          6           0      -14.233450   -0.878981    0.209535
     61          6           0      -14.101456    1.422852    1.047255
     62          6           0      -13.517183    1.187713    2.410455
     63          6           0      -12.450362    2.215894    2.961551
     64          6           0      -11.272239    1.528408    3.688879
     65          6           0      -10.524190    2.543415    4.528808
     66          6           0      -10.262491    0.810723    2.741893
     67          1           0        2.591645    3.493176   -0.259622
     68          1           0        9.124214    3.483286   -0.542015
     69          1           0        9.104940   -2.743981    0.453505
     70          1           0        0.839286   -0.809315   -0.836128
     71          1           0        0.993685    1.582508    0.660853
     72          1           0        0.088180    0.870293   -1.914609
     73          1           0        1.343756    2.214807   -2.194342
     74          1           0        0.027730    2.473412   -1.191625
     75          1           0        0.195267    0.081736    1.873285
     76          1           0        1.344171   -1.202877    2.062000
     77          1           0       -0.300372   -2.726393    1.720872
     78          1           0       -0.605233   -1.992655    0.116530
     79          1           0        3.179316    5.349789    0.120841
     80          1           0        4.162252    6.568081   -0.789296
     81          1           0        4.577540    6.267757    0.884451
     82          1           0        6.642612    7.840698    0.009421
     83          1           0        6.143360    7.044116   -1.543574
     84          1           0        7.681327    7.822863   -1.454013
     85          1           0       10.746347    1.820148    0.369236
     86          1           0       10.734072   -1.066868   -0.306038
     87          1           0       10.289201    1.027970   -2.470581
     88          1           0       11.536809    0.342738   -1.648328
     89          1           0       11.560489    2.082118   -1.672236
     90          1           0       10.230436   -0.099950    2.515890
     91          1           0       11.840188   -0.140474    1.938340
     92          1           0       10.891857   -2.722511    1.610375
     93          1           0       10.504671   -2.056493    3.244721
     94          1           0       12.168364   -2.073281    2.707270
     95          1           0        8.277858   -4.719707    0.220989
     96          1           0        6.882431   -5.721087   -0.376156
     97          1           0        7.180529   -5.647990    1.350911
     98          1           0        2.057376   -3.468789    1.197444
     99          1           0        0.357237   -4.519121   -2.831174
    100          1           0       -0.894584   -4.060689   -1.890713
    101          1           0       -0.240607   -5.802101   -1.818917
    102          1           0       -3.975845    0.052570    1.819503
    103          1           0       -4.471061   -1.579666    1.343978
    104          1           0       -5.184648    0.842054    0.043411
    105          1           0       -6.564688   -2.768156   -1.371111
    106          1           0       -5.490129   -2.751769   -0.036991
    107          1           0       -4.847649   -2.690502   -1.753151
    108          1           0       -6.588513   -0.673241   -3.018325
    109          1           0       -6.234152    0.842997   -2.263855
    110          1           0       -7.907669    0.036680   -0.423570
    111          1           0       -8.248814   -1.283046   -1.597835
    112          1           0       -8.356621    1.118916   -3.103743
    113          1           0       -9.228228    1.435405   -1.556037
    114          1           0      -10.356328   -0.932711   -2.089184
    115          1           0       -9.970488   -0.128633   -4.975144
    116          1           0      -10.390611   -1.684803   -4.277444
    117          1           0       -8.710731   -0.918050   -4.116392
    118          1           0      -11.525047    1.184099   -3.867200
    119          1           0      -11.132109    1.753666   -2.251157
    120          1           0      -12.479535   -0.818888   -2.089835
    121          1           0      -13.300595    0.061428   -3.328166
    122          1           0      -14.570928    0.962867   -1.791362
    123          1           0      -13.146068    2.019011   -1.393264
    124          1           0      -12.539978    0.121696    0.332117
    125          1           0      -15.101262   -0.855091    0.867569
    126          1           0      -13.576814   -1.627359    0.653194
    127          1           0      -14.493612   -1.328705   -0.748200
    128          1           0      -15.191039    1.413524    1.075747
    129          1           0      -13.714581    2.405238    0.775568
    130          1           0      -13.099537    0.181221    2.421856
    131          1           0      -14.333774    1.322984    3.119222
    132          1           0      -12.906269    2.828339    3.739472
    133          1           0      -12.008144    2.880372    2.220008
    134          1           0      -11.765329    0.811679    4.344865
    135          1           0      -10.990485    2.486745    5.512553
    136          1           0      -10.632578    3.566781    4.169228
    137          1           0       -9.451159    2.371986    4.610651
    138          1           0      -10.305346   -0.263075    2.923719
    139          1           0       -9.279743    1.281989    2.770124
    140          1           0      -10.581090    0.888229    1.702285
 ---------------------------------------------------------------------

 SCF Done:  E(RZINDO/S) =  -474.458444073     A.U. after   19 cycles

 Excitation energies and oscillator strengths:

 Excited State   1:      Singlet-A      1.2640 eV  980.86 nm  f=0.5890  <S**2>=0.000
     175 ->178        -0.19037
     176 ->177         0.66383
 This state for optimization and/or second-order correction.
 Total Energy, E(CIS/TDA) =  -474.411991830
 Copying the excited state density for this state as the 1-particle RhoCI density.

 Excited State   2:      Singlet-A      1.9155 eV  647.28 nm  f=0.0370  <S**2>=0.000
     175 ->177         0.53952
     176 ->178         0.43020

 Excited State   3:      Singlet-A      2.9486 eV  420.48 nm  f=0.0428  <S**2>=0.000
     168 ->177         0.28761
     168 ->179        -0.35192
     168 ->180        -0.34685
     168 ->181        -0.11262
     168 ->183        -0.10141
     168 ->186        -0.19364
     176 ->178         0.12319
     176 ->179         0.15012

 Excited State   4:      Singlet-A      2.9584 eV  419.09 nm  f=0.4287  <S**2>=0.000
     168 ->177        -0.10050
     168 ->179         0.11571
     168 ->180         0.12517
     175 ->177        -0.26195
     176 ->178         0.38161
     176 ->179         0.37036
     176 ->180        -0.14677
     176 ->182         0.10065

 Excited State   5:      Singlet-A      3.0418 eV  407.60 nm  f=0.1535  <S**2>=0.000
     169 ->177         0.17180
     169 ->179         0.21984
     169 ->180        -0.14867
     169 ->186         0.10342
     170 ->177         0.24798
     170 ->178         0.11853
     170 ->179         0.28747
     170 ->180        -0.20459
     170 ->186         0.14487
     170 ->201        -0.10167
     175 ->177        -0.13722
     176 ->178         0.17709

 The electronic state is 1-A.
 Alpha  occ. eigenvalues --   -1.83180  -1.81353  -1.78861  -1.74380  -1.70928
 Alpha  occ. eigenvalues --   -1.69999  -1.66570  -1.62882  -1.60336  -1.58170
 Alpha  occ. eigenvalues --   -1.56263  -1.52318  -1.48755  -1.48541  -1.47978
 Alpha  occ. eigenvalues --   -1.44912  -1.43032  -1.40502  -1.40283  -1.39326
 Alpha  occ. eigenvalues --   -1.36934  -1.35070  -1.33180  -1.31811  -1.29702
 Alpha  occ. eigenvalues --   -1.26562  -1.24455  -1.22471  -1.21310  -1.18220
 Alpha  occ. eigenvalues --   -1.17055  -1.15894  -1.15326  -1.14014  -1.13611
 Alpha  occ. eigenvalues --   -1.12908  -1.11597  -1.10305  -1.04539  -1.03556
 Alpha  occ. eigenvalues --   -1.03144  -1.00801  -0.99831  -0.97263  -0.96644
 Alpha  occ. eigenvalues --   -0.95963  -0.94590  -0.93831  -0.93219  -0.90593
 Alpha  occ. eigenvalues --   -0.89861  -0.89669  -0.88350  -0.87887  -0.87649
 Alpha  occ. eigenvalues --   -0.85915  -0.83997  -0.83851  -0.81260  -0.80125
 Alpha  occ. eigenvalues --   -0.79085  -0.78783  -0.78450  -0.77191  -0.76714
 Alpha  occ. eigenvalues --   -0.76561  -0.75747  -0.75153  -0.74493  -0.73426
 Alpha  occ. eigenvalues --   -0.73337  -0.73245  -0.72846  -0.72361  -0.72160
 Alpha  occ. eigenvalues --   -0.71067  -0.69539  -0.68450  -0.68155  -0.67643
 Alpha  occ. eigenvalues --   -0.67339  -0.67107  -0.66584  -0.66472  -0.66039
 Alpha  occ. eigenvalues --   -0.65257  -0.65075  -0.64828  -0.64100  -0.63620
 Alpha  occ. eigenvalues --   -0.63374  -0.62819  -0.62736  -0.62504  -0.62312
 Alpha  occ. eigenvalues --   -0.62057  -0.61954  -0.61149  -0.60322  -0.60149
 Alpha  occ. eigenvalues --   -0.59764  -0.58789  -0.58682  -0.58348  -0.58101
 Alpha  occ. eigenvalues --   -0.57811  -0.57112  -0.57009  -0.56348  -0.56116
 Alpha  occ. eigenvalues --   -0.55890  -0.55071  -0.54816  -0.54405  -0.54234
 Alpha  occ. eigenvalues --   -0.53719  -0.53467  -0.53260  -0.52742  -0.52322
 Alpha  occ. eigenvalues --   -0.52070  -0.51948  -0.51663  -0.51355  -0.51100
 Alpha  occ. eigenvalues --   -0.50988  -0.50666  -0.50562  -0.50456  -0.50363
 Alpha  occ. eigenvalues --   -0.50169  -0.49910  -0.49569  -0.49152  -0.48735
 Alpha  occ. eigenvalues --   -0.48642  -0.48295  -0.47964  -0.47922  -0.47373
 Alpha  occ. eigenvalues --   -0.47240  -0.47109  -0.46981  -0.46690  -0.46446
 Alpha  occ. eigenvalues --   -0.46059  -0.45964  -0.45780  -0.45717  -0.45335
 Alpha  occ. eigenvalues --   -0.45059  -0.45036  -0.44741  -0.44622  -0.44473
 Alpha  occ. eigenvalues --   -0.43623  -0.43302  -0.43230  -0.42782  -0.42497
 Alpha  occ. eigenvalues --   -0.42468  -0.41913  -0.41572  -0.39362  -0.38398
 Alpha  occ. eigenvalues --   -0.38270  -0.37020  -0.35558  -0.34660  -0.34360
 Alpha  occ. eigenvalues --   -0.33692  -0.32239  -0.32210  -0.32009  -0.26456
 Alpha  occ. eigenvalues --   -0.21553
 Alpha virt. eigenvalues --   -0.08235  -0.01927  -0.00236   0.01190   0.01341
 Alpha virt. eigenvalues --    0.02672   0.03008   0.03227   0.03585   0.05217
 Alpha virt. eigenvalues --    0.06503   0.07012   0.07162   0.07735   0.08416

 Mulliken charges:
               1
     1  Mg   0.421367
     2  C   -0.047329
     3  C   -0.090255
     4  C   -0.072682
     5  C   -0.050689
     6  N   -0.288517
     7  C    0.115384
     8  C   -0.001061
     9  C    0.009292
    10  C    0.139773
    11  C   -0.044236
    12  C   -0.020704
    13  C   -0.004828
    14  C    0.471285
    15  O   -0.510049
    16  O   -0.259542
    17  N   -0.330639
    18  C    0.137958
    19  C    0.020126
    20  C   -0.037979
    21  C    0.121789
    22  C   -0.047579
    23  C    0.330111
    24  O   -0.515114
    25  C   -0.028508
    26  N   -0.253615
    27  C    0.170558
    28  C    0.001907
    29  C    0.022481
    30  C    0.083183
    31  C   -0.060599
    32  C   -0.031520
    33  C   -0.058205
    34  N   -0.317036
    35  C    0.058592
    36  C    0.048599
    37  C   -0.063087
    38  C    0.111200
    39  C   -0.037449
    40  C    0.337187
    41  O   -0.525944
    42  C    0.051038
    43  C    0.491696
    44  O   -0.527356
    45  O   -0.260548
    46  C    0.067587
    47  C    0.109857
    48  C   -0.110423
    49  C    0.014668
    50  C   -0.045195
    51  C   -0.015372
    52  C   -0.031555
    53  C   -0.041575
    54  C   -0.019567
    55  C   -0.062514
    56  C   -0.034910
    57  C   -0.041291
    58  C   -0.033020
    59  C   -0.011726
    60  C   -0.057919
    61  C   -0.029739
    62  C   -0.039492
    63  C   -0.036673
    64  C   -0.012083
    65  C   -0.055596
    66  C   -0.061068
    67  H    0.014194
    68  H    0.053164
    69  H    0.020277
    70  H    0.038656
    71  H    0.030492
    72  H    0.031612
    73  H    0.032517
    74  H    0.011372
    75  H    0.026006
    76  H    0.030363
    77  H    0.038263
    78  H    0.035329
    79  H    0.033665
    80  H    0.033671
    81  H    0.033676
    82  H    0.047568
    83  H    0.025857
    84  H    0.039319
    85  H    0.029238
    86  H    0.030488
    87  H    0.030564
    88  H    0.004881
    89  H    0.031242
    90  H    0.014262
    91  H    0.015068
    92  H    0.023784
    93  H    0.019582
    94  H    0.021549
    95  H    0.023707
    96  H    0.040011
    97  H    0.039578
    98  H    0.045213
    99  H    0.045538
   100  H    0.035282
   101  H    0.046916
   102  H    0.042522
   103  H    0.045638
   104  H    0.017939
   105  H    0.022559
   106  H    0.026706
   107  H    0.032626
   108  H    0.023987
   109  H    0.018927
   110  H    0.023134
   111  H    0.023060
   112  H    0.025404
   113  H    0.016383
   114  H    0.023909
   115  H    0.015753
   116  H    0.022882
   117  H    0.019669
   118  H    0.017132
   119  H    0.022849
   120  H    0.021144
   121  H    0.012153
   122  H    0.021567
   123  H    0.020990
   124  H    0.022977
   125  H    0.019454
   126  H    0.009327
   127  H    0.012163
   128  H    0.026391
   129  H    0.008567
   130  H    0.026375
   131  H    0.013167
   132  H    0.014225
   133  H    0.022455
   134  H    0.019188
   135  H    0.011949
   136  H    0.016889
   137  H    0.018108
   138  H    0.021301
   139  H    0.027454
   140  H    0.009320
 Sum of Mulliken charges =  -0.00000

 Dipole moment (field-independent basis, Debye):
    X=             -4.2689    Y=              7.1645    Z=             -0.6138  Tot=              8.3624
 N-N= 4.283482806148D+03 E-N= 0.000000000000D+00  KE=-9.241421108401D+03
 Leave Link  601 at Wed May  4 18:51:13 2022, MaxMem=  6710886400 cpu:               0.8 elap:               0.1
 (Enter /sw/apps/gaussian-16.0/g16/l9999.exe)
 1\1\GINC-BP1-COMPUTE128\SP\RZINDO CIS\STO-3G\C55H74Mg1N4O6\OF15641\04-
 May-2022\0\\#p ZINDO=(nstates=5)\\step_301_chromophore_25 ZINDO\\0,1\M
 g,0,-2.735,34.508,26.795\C,0,-3.457,32.639,29.647\C,0,-1.03,36.776,28.
 775\C,0,-2.31,36.527,24.034\C,0,-4.41,32.27,24.851\N,0,-2.437,34.708,2
 8.959\C,0,-2.757,33.827,29.968\C,0,-2.241,34.293,31.364\C,0,-1.604,35.
 69,31.055\C,0,-1.695,35.762,29.528\C,0,-2.152,36.888,31.801\C,0,-1.257
 ,33.205,32.\C,0,-1.736,32.595,33.345\C,0,-0.851,32.673,34.592\O,0,0.02

 Normal termination of Gaussian 16 at Wed May  4 18:51:13 2022.
