 Gaussian 16, Revision A.03,
 Gaussian 16:  ES64L-G16RevA.03 25-Dec-2016

 ------------------------------
 #p blyp/Def2SVP td=(nstates=5)
 ------------------------------

 -------------------------------------------------
 step_51_chromophore_13 TDDFT with blyp functional
 -------------------------------------------------
 Symbolic Z-matrix:
 Charge =  0 Multiplicity = 1

                         Standard orientation:
 ---------------------------------------------------------------------
 Center     Atomic      Atomic             Coordinates (Angstroms)
 Number     Number       Type             X           Y           Z
 ---------------------------------------------------------------------
      1         12           0       -5.948015    0.413266   -0.157925
      2          6           0       -3.679816   -2.333500    0.181435
      3          6           0       -3.309465    2.575823    0.465120
      4          6           0       -8.169126    2.955133    0.003435
      5          6           0       -8.511759   -1.830157   -0.317623
      6          7           0       -3.725236    0.115945    0.305790
      7          6           0       -2.981831   -1.080065    0.359722
      8          6           0       -1.517334   -0.822686    0.423326
      9          6           0       -1.429235    0.735045    0.596712
     10          6           0       -2.924378    1.236129    0.355959
     11          6           0       -0.811359    1.242041    1.894188
     12          6           0       -0.744596   -1.334239   -0.748298
     13          6           0        0.561686   -2.070441   -0.448495
     14          6           0        1.871894   -1.777042   -1.154813
     15          8           0        2.109095   -1.029240   -2.141735
     16          8           0        2.854696   -2.597913   -0.699279
     17          7           0       -5.734025    2.526637    0.033944
     18          6           0       -4.598491    3.217460    0.359476
     19          6           0       -4.872422    4.671575    0.345815
     20          6           0       -6.237009    4.795305    0.195764
     21          6           0       -6.807241    3.386006    0.015999
     22          6           0       -3.835639    5.718139    0.483833
     23          6           0       -7.093710    6.059004    0.174883
     24          8           0       -8.303109    6.002303    0.094941
     25          6           0       -6.454568    7.366143    0.415381
     26          7           0       -8.015252    0.533942   -0.078654
     27          6           0       -8.702765    1.698727   -0.014556
     28          6           0      -10.187315    1.412450    0.189793
     29          6           0      -10.287544   -0.004099   -0.425900
     30          6           0       -8.875724   -0.414859   -0.278517
     31          6           0      -10.762318    1.500174    1.575537
     32          6           0      -10.917534   -0.169868   -1.860634
     33          6           0       -9.909179   -0.687298   -3.011310
     34          7           0       -6.096706   -1.593692   -0.163678
     35          6           0       -7.210633   -2.354373   -0.295852
     36          6           0       -6.833372   -3.764293   -0.396401
     37          6           0       -5.442528   -3.724995   -0.204994
     38          6           0       -5.066563   -2.411196   -0.073414
     39          6           0       -7.765229   -4.910648   -0.540762
     40          6           0       -4.239233   -4.636936   -0.004966
     41          8           0       -4.135514   -5.844775    0.092587
     42          6           0       -3.062407   -3.674152    0.183282
     43          6           0       -2.456935   -4.051784    1.485276
     44          8           0       -3.058908   -3.922990    2.580872
     45          8           0       -1.148736   -4.441565    1.383863
     46          6           0       -0.348785   -4.592510    2.594506
     47          6           0        4.117583   -2.529864   -1.452459
     48          6           0        5.100116   -1.678354   -0.609930
     49          6           0        6.422411   -1.822004   -0.453831
     50          6           0        7.228964   -2.709707   -1.285431
     51          6           0        7.210513   -1.036338    0.629891
     52          6           0        7.481099    0.485669    0.372004
     53          6           0        8.973233    0.970905    0.449135
     54          6           0        9.291975    1.986433   -0.642008
     55          6           0        8.498263    3.318442   -0.643263
     56          6           0        9.338716    1.353108   -2.021770
     57          6           0       10.764189    1.749102   -2.705346
     58          6           0       11.710090    0.528076   -2.601697
     59          6           0       13.125357    0.965811   -2.115451
     60          6           0       14.212460    0.746469   -3.216936
     61          6           0       13.567308    0.271214   -0.778011
     62          6           0       13.322257    1.173328    0.442403
     63          6           0       12.787856    0.454741    1.635004
     64          6           0       13.057963    0.948831    3.050079
     65          6           0       13.870316   -0.062721    3.775489
     66          6           0       11.845798    1.332504    3.838580
     67          1           0       -2.429654    3.211568    0.583236
     68          1           0       -8.833059    3.821416    0.040742
     69          1           0       -9.343202   -2.505019   -0.533086
     70          1           0       -1.213032   -1.317576    1.345799
     71          1           0       -0.905043    1.236649   -0.217213
     72          1           0        0.038960    1.905773    1.743120
     73          1           0       -0.452608    0.334865    2.379563
     74          1           0       -1.515139    1.726162    2.572159
     75          1           0       -0.502903   -0.551277   -1.466747
     76          1           0       -1.263559   -2.114624   -1.304041
     77          1           0        0.352839   -3.139516   -0.499751
     78          1           0        0.859366   -1.843579    0.575606
     79          1           0       -3.811661    6.366077   -0.391947
     80          1           0       -2.866269    5.246282    0.647063
     81          1           0       -4.048406    6.316790    1.369743
     82          1           0       -6.004530    7.310163    1.406610
     83          1           0       -7.210933    8.144748    0.316310
     84          1           0       -5.716875    7.514047   -0.373642
     85          1           0      -10.792651    2.073460   -0.429912
     86          1           0      -10.856144   -0.694280    0.196746
     87          1           0       -9.953022    1.310443    2.280228
     88          1           0      -11.488361    0.705608    1.744240
     89          1           0      -11.213910    2.489278    1.651870
     90          1           0      -11.305844    0.799475   -2.172152
     91          1           0      -11.723460   -0.892744   -1.727206
     92          1           0       -8.891908   -0.335172   -2.842480
     93          1           0      -10.302058   -0.509066   -4.012344
     94          1           0       -9.890073   -1.770637   -2.892653
     95          1           0       -7.275262   -5.765559   -1.005696
     96          1           0       -8.728861   -4.650436   -0.978572
     97          1           0       -7.964612   -5.168131    0.499530
     98          1           0       -2.345789   -3.711356   -0.637118
     99          1           0        0.098045   -5.586475    2.574526
    100          1           0       -0.906915   -4.550780    3.529997
    101          1           0        0.499269   -3.910892    2.653048
    102          1           0        4.125295   -2.009863   -2.410176
    103          1           0        4.459593   -3.563623   -1.501339
    104          1           0        4.618592   -0.940692    0.030704
    105          1           0        7.502715   -3.690399   -0.895030
    106          1           0        8.196644   -2.295390   -1.569633
    107          1           0        6.664970   -2.670062   -2.215937
    108          1           0        8.159929   -1.538834    0.817059
    109          1           0        6.686902   -1.105210    1.583512
    110          1           0        6.834305    1.136764    0.960541
    111          1           0        7.094746    0.779281   -0.603992
    112          1           0        9.654955    0.126601    0.557046
    113          1           0        9.162635    1.462009    1.402873
    114          1           0       10.281393    2.263874   -0.279147
    115          1           0        7.507097    3.191610   -0.208481
    116          1           0        8.395336    3.610111   -1.687892
    117          1           0        9.041336    4.076529   -0.078835
    118          1           0        8.577570    1.690754   -2.724007
    119          1           0        9.250890    0.271911   -1.909675
    120          1           0       11.202423    2.646855   -2.269860
    121          1           0       10.606808    1.903725   -3.772308
    122          1           0       11.836437   -0.078256   -3.498500
    123          1           0       11.230691   -0.102598   -1.852721
    124          1           0       13.148030    2.027874   -1.869772
    125          1           0       13.699127    0.909119   -4.164333
    126          1           0       14.589378   -0.276895   -3.211343
    127          1           0       15.062455    1.416433   -3.081672
    128          1           0       14.636799    0.087053   -0.877174
    129          1           0       13.069870   -0.699147   -0.787539
    130          1           0       12.627863    1.988533    0.242114
    131          1           0       14.307724    1.496803    0.776800
    132          1           0       13.182433   -0.558576    1.563369
    133          1           0       11.724093    0.254205    1.502472
    134          1           0       13.767030    1.766501    2.921275
    135          1           0       14.351883    0.350800    4.662048
    136          1           0       14.678924   -0.399371    3.126977
    137          1           0       13.273441   -0.885239    4.169100
    138          1           0       11.596195    0.566307    4.572978
    139          1           0       11.027181    1.468922    3.131696
    140          1           0       12.024049    2.242368    4.410345
 ---------------------------------------------------------------------

 SCF Done:  E(RB-LYP) =  -3007.37272132     A.U. after   21 cycles

 Excitation energies and oscillator strengths:

 Excited State   1:      Singlet-A      1.8216 eV  680.61 nm  f=0.2862  <S**2>=0.000
     245 -> 248        0.20416
     246 -> 247        0.68654
     246 <- 247       -0.14487
 This state for optimization and/or second-order correction.
 Total Energy, E(TD-HF/TD-DFT) =  -3007.30577692
 Copying the excited state density for this state as the 1-particle RhoCI density.

 Excited State   2:      Singlet-A      2.0853 eV  594.57 nm  f=0.0581  <S**2>=0.000
     244 -> 247        0.15380
     245 -> 247        0.61472
     246 -> 248       -0.29017

 Excited State   3:      Singlet-A      2.1204 eV  584.73 nm  f=0.0036  <S**2>=0.000
     244 -> 247        0.68972
     245 -> 247       -0.13291

 Excited State   4:      Singlet-A      2.3307 eV  531.96 nm  f=0.0000  <S**2>=0.000
     243 -> 247        0.70561

 Excited State   5:      Singlet-A      2.4370 eV  508.76 nm  f=0.0000  <S**2>=0.000
     242 -> 247        0.70710

 The electronic state is 1-A.
 Alpha  occ. eigenvalues --  -46.26886 -18.83335 -18.82617 -18.76575 -18.76566
 Alpha  occ. eigenvalues --  -18.76519 -18.75456 -14.02975 -14.02937 -14.01336
 Alpha  occ. eigenvalues --  -14.00615 -10.04667 -10.04598 -10.00393  -9.99489
 Alpha  occ. eigenvalues --   -9.98280  -9.98189  -9.96716  -9.96221  -9.96135
 Alpha  occ. eigenvalues --   -9.95816  -9.95792  -9.95503  -9.95259  -9.94278
 Alpha  occ. eigenvalues --   -9.94218  -9.94147  -9.94074  -9.94011  -9.93762
 Alpha  occ. eigenvalues --   -9.93444  -9.93367  -9.93357  -9.93123  -9.93069
 Alpha  occ. eigenvalues --   -9.93013  -9.92960  -9.92932  -9.92525  -9.92399
 Alpha  occ. eigenvalues --   -9.92397  -9.92368  -9.92273  -9.92148  -9.91996
 Alpha  occ. eigenvalues --   -9.91932  -9.91888  -9.91865  -9.91646  -9.91600
 Alpha  occ. eigenvalues --   -9.91501  -9.91437  -9.91411  -9.91378  -9.91317
 Alpha  occ. eigenvalues --   -9.91250  -9.91155  -9.91054  -9.91045  -9.90948
 Alpha  occ. eigenvalues --   -9.90935  -9.90835  -9.90730  -9.90666  -9.90346
 Alpha  occ. eigenvalues --   -9.89940  -2.91589  -1.72017  -1.71460  -1.71311
 Alpha  occ. eigenvalues --   -0.98162  -0.97859  -0.92287  -0.92123  -0.88790
 Alpha  occ. eigenvalues --   -0.88538  -0.88111  -0.87321  -0.84776  -0.83900
 Alpha  occ. eigenvalues --   -0.76380  -0.73866  -0.73636  -0.73306  -0.72552
 Alpha  occ. eigenvalues --   -0.72428  -0.71787  -0.71218  -0.70879  -0.70421
 Alpha  occ. eigenvalues --   -0.69873  -0.69406  -0.67984  -0.67812  -0.67282
 Alpha  occ. eigenvalues --   -0.66544  -0.66158  -0.65694  -0.65299  -0.64489
 Alpha  occ. eigenvalues --   -0.64067  -0.62730  -0.62352  -0.62168  -0.61324
 Alpha  occ. eigenvalues --   -0.60632  -0.60440  -0.60138  -0.59138  -0.59011
 Alpha  occ. eigenvalues --   -0.58599  -0.57524  -0.56444  -0.55918  -0.55331
 Alpha  occ. eigenvalues --   -0.54020  -0.53833  -0.53003  -0.52589  -0.51648
 Alpha  occ. eigenvalues --   -0.51386  -0.51083  -0.50968  -0.50182  -0.49758
 Alpha  occ. eigenvalues --   -0.49333  -0.49015  -0.48920  -0.47863  -0.46494
 Alpha  occ. eigenvalues --   -0.46178  -0.46105  -0.45799  -0.45433  -0.45162
 Alpha  occ. eigenvalues --   -0.44868  -0.44052  -0.42926  -0.42513  -0.42375
 Alpha  occ. eigenvalues --   -0.42063  -0.41953  -0.41704  -0.41522  -0.41218
 Alpha  occ. eigenvalues --   -0.41014  -0.40738  -0.40626  -0.40476  -0.40304
 Alpha  occ. eigenvalues --   -0.40150  -0.39873  -0.39666  -0.39450  -0.39352
 Alpha  occ. eigenvalues --   -0.39115  -0.39005  -0.38837  -0.38509  -0.38383
 Alpha  occ. eigenvalues --   -0.38198  -0.37866  -0.37786  -0.37598  -0.37245
 Alpha  occ. eigenvalues --   -0.37196  -0.37114  -0.37007  -0.36770  -0.36668
 Alpha  occ. eigenvalues --   -0.36635  -0.36376  -0.36326  -0.36219  -0.35947
 Alpha  occ. eigenvalues --   -0.35616  -0.35242  -0.35133  -0.34778  -0.34702
 Alpha  occ. eigenvalues --   -0.34548  -0.34370  -0.34164  -0.34085  -0.33856
 Alpha  occ. eigenvalues --   -0.33603  -0.33401  -0.33223  -0.33123  -0.33051
 Alpha  occ. eigenvalues --   -0.32940  -0.32803  -0.32634  -0.32566  -0.32367
 Alpha  occ. eigenvalues --   -0.32314  -0.32182  -0.32015  -0.31827  -0.31573
 Alpha  occ. eigenvalues --   -0.31429  -0.31183  -0.31163  -0.30709  -0.30628
 Alpha  occ. eigenvalues --   -0.30468  -0.30423  -0.30253  -0.30081  -0.29898
 Alpha  occ. eigenvalues --   -0.29868  -0.29803  -0.29640  -0.29178  -0.28855
 Alpha  occ. eigenvalues --   -0.28766  -0.28646  -0.28568  -0.28449  -0.28283
 Alpha  occ. eigenvalues --   -0.27757  -0.27494  -0.26691  -0.26444  -0.26327
 Alpha  occ. eigenvalues --   -0.26177  -0.26148  -0.25621  -0.25327  -0.25209
 Alpha  occ. eigenvalues --   -0.25044  -0.24591  -0.24198  -0.23562  -0.23331
 Alpha  occ. eigenvalues --   -0.23274  -0.22047  -0.21775  -0.21659  -0.20839
 Alpha  occ. eigenvalues --   -0.20543  -0.19912  -0.19413  -0.18676  -0.17050
 Alpha  occ. eigenvalues --   -0.15318
 Alpha virt. eigenvalues --   -0.10956  -0.06776  -0.05905  -0.04460  -0.03563
 Alpha virt. eigenvalues --   -0.03388  -0.01954  -0.01657  -0.01356  -0.00241
 Alpha virt. eigenvalues --    0.01147   0.01558   0.01805   0.02057   0.02243

 Mulliken charges:
               1
     1  Mg   0.704925
     2  C   -0.101187
     3  C   -0.040761
     4  C   -0.043876
     5  C   -0.099489
     6  N   -0.229332
     7  C   -0.106514
     8  C    0.097730
     9  C   -0.030667
    10  C   -0.006009
    11  C    0.144405
    12  C    0.174501
    13  C    0.058824
    14  C    0.085177
    15  O   -0.228043
    16  O   -0.267464
    17  N   -0.271045
    18  C    0.123285
    19  C   -0.152186
    20  C    0.024470
    21  C    0.042031
    22  C    0.199673
    23  C   -0.102376
    24  O   -0.153081
    25  C    0.162853
    26  N   -0.185799
    27  C    0.076366
    28  C    0.009079
    29  C    0.021316
    30  C   -0.038250
    31  C    0.173379
    32  C    0.078667
    33  C    0.063700
    34  N   -0.235814
    35  C    0.140805
    36  C   -0.209574
    37  C    0.025042
    38  C    0.152968
    39  C    0.190718
    40  C   -0.029938
    41  O   -0.112782
    42  C    0.144798
    43  C    0.114132
    44  O   -0.209790
    45  O   -0.259866
    46  C    0.204635
    47  C    0.328803
    48  C   -0.118587
    49  C   -0.151122
    50  C    0.141208
    51  C    0.157787
    52  C    0.063058
    53  C    0.033761
    54  C   -0.074177
    55  C    0.121671
    56  C    0.095345
    57  C    0.058652
    58  C    0.123478
    59  C   -0.123026
    60  C    0.099073
    61  C    0.112624
    62  C    0.114680
    63  C    0.062598
    64  C   -0.062625
    65  C    0.091784
    66  C    0.145911
    67  H   -0.065911
    68  H   -0.048791
    69  H   -0.070769
    70  H   -0.017198
    71  H   -0.016069
    72  H   -0.009462
    73  H   -0.024137
    74  H   -0.000691
    75  H   -0.012105
    76  H   -0.026813
    77  H    0.026294
    78  H   -0.002345
    79  H    0.008001
    80  H   -0.021969
    81  H   -0.004781
    82  H    0.017885
    83  H   -0.008627
    84  H   -0.003816
    85  H   -0.042810
    86  H   -0.040691
    87  H   -0.009524
    88  H   -0.015396
    89  H    0.005714
    90  H   -0.014182
    91  H   -0.016726
    92  H    0.020478
    93  H   -0.001978
    94  H   -0.015941
    95  H    0.011198
    96  H   -0.009227
    97  H    0.007962
    98  H   -0.007945
    99  H    0.013251
   100  H    0.027862
   101  H    0.016300
   102  H    0.030791
   103  H    0.001906
   104  H   -0.041596
   105  H    0.007737
   106  H   -0.019153
   107  H   -0.012677
   108  H   -0.044556
   109  H   -0.028522
   110  H   -0.031805
   111  H   -0.030146
   112  H    0.001290
   113  H   -0.031707
   114  H   -0.038912
   115  H   -0.012197
   116  H   -0.016880
   117  H   -0.017149
   118  H   -0.029703
   119  H   -0.019969
   120  H   -0.012834
   121  H   -0.037191
   122  H   -0.031636
   123  H   -0.038065
   124  H   -0.034759
   125  H   -0.020541
   126  H   -0.016261
   127  H   -0.013524
   128  H   -0.047615
   129  H   -0.030691
   130  H   -0.012494
   131  H   -0.038838
   132  H   -0.056023
   133  H   -0.065392
   134  H   -0.049608
   135  H   -0.030203
   136  H   -0.019122
   137  H   -0.019491
   138  H   -0.023228
   139  H   -0.017922
   140  H   -0.018888
 Sum of Mulliken charges =  -0.00000

 Dipole moment (field-independent basis, Debye):
    X=              2.4436    Y=              1.8808    Z=             -0.0499  Tot=              3.0840
 Quadrupole moment (field-independent basis, Debye-Ang):
   XX=           -379.0762   YY=           -422.2518   ZZ=           -410.0674
   XY=              2.9211   XZ=             15.2516   YZ=              7.7135

 Normal termination of Gaussian 16 at Sat Apr 30 01:00:24 2022.
