 Gaussian 16, Revision A.03,
 Gaussian 16:  ES64L-G16RevA.03 25-Dec-2016

 -----------------------------------
 #p cam-b3lyp/Def2SVP td=(nstates=5)
 -----------------------------------

 ------------------------------------------------------
 step_51_chromophore_13 TDDFT with cam-b3lyp functional
 ------------------------------------------------------
 Symbolic Z-matrix:
 Charge =  0 Multiplicity = 1

                         Standard orientation:
 ---------------------------------------------------------------------
 Center     Atomic      Atomic             Coordinates (Angstroms)
 Number     Number       Type             X           Y           Z
 ---------------------------------------------------------------------
      1         12           0       -5.948015    0.413266   -0.157925
      2          6           0       -3.679816   -2.333500    0.181435
      3          6           0       -3.309465    2.575823    0.465120
      4          6           0       -8.169126    2.955133    0.003435
      5          6           0       -8.511759   -1.830157   -0.317623
      6          7           0       -3.725236    0.115945    0.305790
      7          6           0       -2.981831   -1.080065    0.359722
      8          6           0       -1.517334   -0.822686    0.423326
      9          6           0       -1.429235    0.735045    0.596712
     10          6           0       -2.924378    1.236129    0.355959
     11          6           0       -0.811359    1.242041    1.894188
     12          6           0       -0.744596   -1.334239   -0.748298
     13          6           0        0.561686   -2.070441   -0.448495
     14          6           0        1.871894   -1.777042   -1.154813
     15          8           0        2.109095   -1.029240   -2.141735
     16          8           0        2.854696   -2.597913   -0.699279
     17          7           0       -5.734025    2.526637    0.033944
     18          6           0       -4.598491    3.217460    0.359476
     19          6           0       -4.872422    4.671575    0.345815
     20          6           0       -6.237009    4.795305    0.195764
     21          6           0       -6.807241    3.386006    0.015999
     22          6           0       -3.835639    5.718139    0.483833
     23          6           0       -7.093710    6.059004    0.174883
     24          8           0       -8.303109    6.002303    0.094941
     25          6           0       -6.454568    7.366143    0.415381
     26          7           0       -8.015252    0.533942   -0.078654
     27          6           0       -8.702765    1.698727   -0.014556
     28          6           0      -10.187315    1.412450    0.189793
     29          6           0      -10.287544   -0.004099   -0.425900
     30          6           0       -8.875724   -0.414859   -0.278517
     31          6           0      -10.762318    1.500174    1.575537
     32          6           0      -10.917534   -0.169868   -1.860634
     33          6           0       -9.909179   -0.687298   -3.011310
     34          7           0       -6.096706   -1.593692   -0.163678
     35          6           0       -7.210633   -2.354373   -0.295852
     36          6           0       -6.833372   -3.764293   -0.396401
     37          6           0       -5.442528   -3.724995   -0.204994
     38          6           0       -5.066563   -2.411196   -0.073414
     39          6           0       -7.765229   -4.910648   -0.540762
     40          6           0       -4.239233   -4.636936   -0.004966
     41          8           0       -4.135514   -5.844775    0.092587
     42          6           0       -3.062407   -3.674152    0.183282
     43          6           0       -2.456935   -4.051784    1.485276
     44          8           0       -3.058908   -3.922990    2.580872
     45          8           0       -1.148736   -4.441565    1.383863
     46          6           0       -0.348785   -4.592510    2.594506
     47          6           0        4.117583   -2.529864   -1.452459
     48          6           0        5.100116   -1.678354   -0.609930
     49          6           0        6.422411   -1.822004   -0.453831
     50          6           0        7.228964   -2.709707   -1.285431
     51          6           0        7.210513   -1.036338    0.629891
     52          6           0        7.481099    0.485669    0.372004
     53          6           0        8.973233    0.970905    0.449135
     54          6           0        9.291975    1.986433   -0.642008
     55          6           0        8.498263    3.318442   -0.643263
     56          6           0        9.338716    1.353108   -2.021770
     57          6           0       10.764189    1.749102   -2.705346
     58          6           0       11.710090    0.528076   -2.601697
     59          6           0       13.125357    0.965811   -2.115451
     60          6           0       14.212460    0.746469   -3.216936
     61          6           0       13.567308    0.271214   -0.778011
     62          6           0       13.322257    1.173328    0.442403
     63          6           0       12.787856    0.454741    1.635004
     64          6           0       13.057963    0.948831    3.050079
     65          6           0       13.870316   -0.062721    3.775489
     66          6           0       11.845798    1.332504    3.838580
     67          1           0       -2.429654    3.211568    0.583236
     68          1           0       -8.833059    3.821416    0.040742
     69          1           0       -9.343202   -2.505019   -0.533086
     70          1           0       -1.213032   -1.317576    1.345799
     71          1           0       -0.905043    1.236649   -0.217213
     72          1           0        0.038960    1.905773    1.743120
     73          1           0       -0.452608    0.334865    2.379563
     74          1           0       -1.515139    1.726162    2.572159
     75          1           0       -0.502903   -0.551277   -1.466747
     76          1           0       -1.263559   -2.114624   -1.304041
     77          1           0        0.352839   -3.139516   -0.499751
     78          1           0        0.859366   -1.843579    0.575606
     79          1           0       -3.811661    6.366077   -0.391947
     80          1           0       -2.866269    5.246282    0.647063
     81          1           0       -4.048406    6.316790    1.369743
     82          1           0       -6.004530    7.310163    1.406610
     83          1           0       -7.210933    8.144748    0.316310
     84          1           0       -5.716875    7.514047   -0.373642
     85          1           0      -10.792651    2.073460   -0.429912
     86          1           0      -10.856144   -0.694280    0.196746
     87          1           0       -9.953022    1.310443    2.280228
     88          1           0      -11.488361    0.705608    1.744240
     89          1           0      -11.213910    2.489278    1.651870
     90          1           0      -11.305844    0.799475   -2.172152
     91          1           0      -11.723460   -0.892744   -1.727206
     92          1           0       -8.891908   -0.335172   -2.842480
     93          1           0      -10.302058   -0.509066   -4.012344
     94          1           0       -9.890073   -1.770637   -2.892653
     95          1           0       -7.275262   -5.765559   -1.005696
     96          1           0       -8.728861   -4.650436   -0.978572
     97          1           0       -7.964612   -5.168131    0.499530
     98          1           0       -2.345789   -3.711356   -0.637118
     99          1           0        0.098045   -5.586475    2.574526
    100          1           0       -0.906915   -4.550780    3.529997
    101          1           0        0.499269   -3.910892    2.653048
    102          1           0        4.125295   -2.009863   -2.410176
    103          1           0        4.459593   -3.563623   -1.501339
    104          1           0        4.618592   -0.940692    0.030704
    105          1           0        7.502715   -3.690399   -0.895030
    106          1           0        8.196644   -2.295390   -1.569633
    107          1           0        6.664970   -2.670062   -2.215937
    108          1           0        8.159929   -1.538834    0.817059
    109          1           0        6.686902   -1.105210    1.583512
    110          1           0        6.834305    1.136764    0.960541
    111          1           0        7.094746    0.779281   -0.603992
    112          1           0        9.654955    0.126601    0.557046
    113          1           0        9.162635    1.462009    1.402873
    114          1           0       10.281393    2.263874   -0.279147
    115          1           0        7.507097    3.191610   -0.208481
    116          1           0        8.395336    3.610111   -1.687892
    117          1           0        9.041336    4.076529   -0.078835
    118          1           0        8.577570    1.690754   -2.724007
    119          1           0        9.250890    0.271911   -1.909675
    120          1           0       11.202423    2.646855   -2.269860
    121          1           0       10.606808    1.903725   -3.772308
    122          1           0       11.836437   -0.078256   -3.498500
    123          1           0       11.230691   -0.102598   -1.852721
    124          1           0       13.148030    2.027874   -1.869772
    125          1           0       13.699127    0.909119   -4.164333
    126          1           0       14.589378   -0.276895   -3.211343
    127          1           0       15.062455    1.416433   -3.081672
    128          1           0       14.636799    0.087053   -0.877174
    129          1           0       13.069870   -0.699147   -0.787539
    130          1           0       12.627863    1.988533    0.242114
    131          1           0       14.307724    1.496803    0.776800
    132          1           0       13.182433   -0.558576    1.563369
    133          1           0       11.724093    0.254205    1.502472
    134          1           0       13.767030    1.766501    2.921275
    135          1           0       14.351883    0.350800    4.662048
    136          1           0       14.678924   -0.399371    3.126977
    137          1           0       13.273441   -0.885239    4.169100
    138          1           0       11.596195    0.566307    4.572978
    139          1           0       11.027181    1.468922    3.131696
    140          1           0       12.024049    2.242368    4.410345
 ---------------------------------------------------------------------

 SCF Done:  E(RCAM-B3LYP) =  -3007.17765858     A.U. after   19 cycles

 Excitation energies and oscillator strengths:

 Excited State   1:      Singlet-A      1.7302 eV  716.61 nm  f=0.3621  <S**2>=0.000
     245 -> 248       -0.18456
     246 -> 247        0.68344
     245 <- 248       -0.10843
 This state for optimization and/or second-order correction.
 Total Energy, E(TD-HF/TD-DFT) =  -3007.11407655
 Copying the excited state density for this state as the 1-particle RhoCI density.

 Excited State   2:      Singlet-A      2.2870 eV  542.12 nm  f=0.0691  <S**2>=0.000
     245 -> 247        0.60696
     246 -> 248        0.35352

 Excited State   3:      Singlet-A      3.4671 eV  357.60 nm  f=0.8192  <S**2>=0.000
     242 -> 247       -0.11918
     245 -> 247       -0.34466
     246 -> 248        0.60076
     245 <- 247        0.11286

 Excited State   4:      Singlet-A      3.6484 eV  339.84 nm  f=0.0155  <S**2>=0.000
     242 -> 247       -0.41071
     243 -> 247        0.55272

 Excited State   5:      Singlet-A      3.7837 eV  327.68 nm  f=0.0001  <S**2>=0.000
     239 -> 247        0.54305
     239 -> 249       -0.37999
     239 -> 250        0.15760

 The electronic state is 1-A.
 Alpha  occ. eigenvalues --  -46.88436 -19.26412 -19.25538 -19.20103 -19.19751
 Alpha  occ. eigenvalues --  -19.19538 -19.18499 -14.41849 -14.41805 -14.39780
 Alpha  occ. eigenvalues --  -14.39088 -10.40297 -10.39998 -10.36025 -10.34453
 Alpha  occ. eigenvalues --  -10.32355 -10.32259 -10.31498 -10.30730 -10.30493
 Alpha  occ. eigenvalues --  -10.29952 -10.29811 -10.29795 -10.29636 -10.28757
 Alpha  occ. eigenvalues --  -10.28626 -10.28328 -10.28151 -10.28142 -10.28075
 Alpha  occ. eigenvalues --  -10.27975 -10.27672 -10.27188 -10.27084 -10.27010
 Alpha  occ. eigenvalues --  -10.26860 -10.26792 -10.26775 -10.26712 -10.26515
 Alpha  occ. eigenvalues --  -10.26500 -10.26301 -10.25910 -10.25844 -10.25819
 Alpha  occ. eigenvalues --  -10.25759 -10.25584 -10.25498 -10.25476 -10.25401
 Alpha  occ. eigenvalues --  -10.25397 -10.25335 -10.25164 -10.25141 -10.25111
 Alpha  occ. eigenvalues --  -10.25050 -10.24946 -10.24750 -10.24670 -10.24663
 Alpha  occ. eigenvalues --  -10.24617 -10.24515 -10.24342 -10.24240 -10.23930
 Alpha  occ. eigenvalues --  -10.23578  -3.17046  -1.91948  -1.91490  -1.91363
 Alpha  occ. eigenvalues --   -1.16617  -1.16447  -1.11049  -1.10400  -1.06839
 Alpha  occ. eigenvalues --   -1.06380  -1.05934  -1.05181  -1.02204  -1.01402
 Alpha  occ. eigenvalues --   -0.93758  -0.90762  -0.90505  -0.90155  -0.89315
 Alpha  occ. eigenvalues --   -0.89080  -0.88430  -0.87849  -0.87494  -0.87099
 Alpha  occ. eigenvalues --   -0.86390  -0.85775  -0.84274  -0.84054  -0.83411
 Alpha  occ. eigenvalues --   -0.82597  -0.82258  -0.81628  -0.81107  -0.80353
 Alpha  occ. eigenvalues --   -0.79874  -0.78476  -0.77943  -0.77764  -0.76824
 Alpha  occ. eigenvalues --   -0.76026  -0.75838  -0.75405  -0.74424  -0.74203
 Alpha  occ. eigenvalues --   -0.73722  -0.72589  -0.71287  -0.70760  -0.70020
 Alpha  occ. eigenvalues --   -0.68615  -0.68456  -0.67494  -0.66942  -0.65725
 Alpha  occ. eigenvalues --   -0.65669  -0.65249  -0.64941  -0.64294  -0.63834
 Alpha  occ. eigenvalues --   -0.63089  -0.62850  -0.62792  -0.61629  -0.60165
 Alpha  occ. eigenvalues --   -0.59830  -0.59718  -0.59483  -0.59122  -0.58507
 Alpha  occ. eigenvalues --   -0.58415  -0.57429  -0.56119  -0.55595  -0.55391
 Alpha  occ. eigenvalues --   -0.55180  -0.55135  -0.54902  -0.54528  -0.54391
 Alpha  occ. eigenvalues --   -0.53698  -0.53415  -0.53374  -0.53263  -0.53013
 Alpha  occ. eigenvalues --   -0.52902  -0.52693  -0.52449  -0.52105  -0.51976
 Alpha  occ. eigenvalues --   -0.51814  -0.51693  -0.51474  -0.51022  -0.50805
 Alpha  occ. eigenvalues --   -0.50635  -0.50166  -0.50057  -0.49865  -0.49756
 Alpha  occ. eigenvalues --   -0.49645  -0.49451  -0.49339  -0.49229  -0.48900
 Alpha  occ. eigenvalues --   -0.48828  -0.48732  -0.48544  -0.48420  -0.48235
 Alpha  occ. eigenvalues --   -0.47954  -0.47276  -0.47122  -0.46824  -0.46672
 Alpha  occ. eigenvalues --   -0.46503  -0.46190  -0.45936  -0.45897  -0.45660
 Alpha  occ. eigenvalues --   -0.45586  -0.45297  -0.45211  -0.44938  -0.44685
 Alpha  occ. eigenvalues --   -0.44581  -0.44459  -0.44336  -0.44316  -0.44026
 Alpha  occ. eigenvalues --   -0.43835  -0.43744  -0.43582  -0.43447  -0.43175
 Alpha  occ. eigenvalues --   -0.43106  -0.42971  -0.42609  -0.42383  -0.42208
 Alpha  occ. eigenvalues --   -0.42121  -0.41858  -0.41675  -0.41523  -0.41359
 Alpha  occ. eigenvalues --   -0.41117  -0.41009  -0.40774  -0.40175  -0.39914
 Alpha  occ. eigenvalues --   -0.39875  -0.39630  -0.39609  -0.39517  -0.39304
 Alpha  occ. eigenvalues --   -0.38802  -0.38384  -0.37634  -0.37519  -0.37336
 Alpha  occ. eigenvalues --   -0.37084  -0.36880  -0.36615  -0.36344  -0.35931
 Alpha  occ. eigenvalues --   -0.35850  -0.35609  -0.34686  -0.34486  -0.34246
 Alpha  occ. eigenvalues --   -0.33985  -0.33603  -0.32936  -0.31694  -0.31151
 Alpha  occ. eigenvalues --   -0.30767  -0.30269  -0.29945  -0.29623  -0.23809
 Alpha  occ. eigenvalues --   -0.20508
 Alpha virt. eigenvalues --   -0.07906  -0.01679   0.00717   0.02553   0.03011
 Alpha virt. eigenvalues --    0.04122   0.04448   0.05417   0.05885   0.06857
 Alpha virt. eigenvalues --    0.07286   0.07956   0.08224   0.08312   0.08550

 Mulliken charges:
               1
     1  Mg   0.839548
     2  C   -0.128220
     3  C   -0.059414
     4  C   -0.056820
     5  C   -0.101423
     6  N   -0.297688
     7  C   -0.046351
     8  C    0.034779
     9  C   -0.079568
    10  C    0.017827
    11  C    0.082147
    12  C    0.111777
    13  C   -0.005376
    14  C    0.169784
    15  O   -0.272137
    16  O   -0.330473
    17  N   -0.353945
    18  C    0.129942
    19  C   -0.159600
    20  C   -0.044754
    21  C    0.065105
    22  C    0.140376
    23  C   -0.017806
    24  O   -0.196832
    25  C    0.075645
    26  N   -0.258602
    27  C    0.080811
    28  C   -0.045028
    29  C   -0.037393
    30  C   -0.019441
    31  C    0.114845
    32  C    0.028345
    33  C    0.004941
    34  N   -0.332809
    35  C    0.145568
    36  C   -0.201999
    37  C   -0.055248
    38  C    0.190134
    39  C    0.137198
    40  C    0.078098
    41  O   -0.148507
    42  C    0.059942
    43  C    0.204041
    44  O   -0.247727
    45  O   -0.325058
    46  C    0.167850
    47  C    0.287816
    48  C   -0.130978
    49  C   -0.176607
    50  C    0.075139
    51  C    0.101370
    52  C    0.009092
    53  C   -0.008265
    54  C   -0.128841
    55  C    0.066090
    56  C    0.037766
    57  C    0.007058
    58  C    0.072075
    59  C   -0.177975
    60  C    0.043825
    61  C    0.058698
    62  C    0.059620
    63  C    0.014352
    64  C   -0.126930
    65  C    0.033216
    66  C    0.087776
    67  H   -0.033046
    68  H   -0.006230
    69  H   -0.035165
    70  H    0.016499
    71  H    0.018495
    72  H    0.015656
    73  H   -0.000942
    74  H    0.026706
    75  H    0.025275
    76  H    0.004346
    77  H    0.057499
    78  H    0.026698
    79  H    0.033097
    80  H    0.005544
    81  H    0.020546
    82  H    0.043614
    83  H    0.027029
    84  H    0.023136
    85  H   -0.006198
    86  H   -0.002595
    87  H    0.015862
    88  H    0.008426
    89  H    0.029247
    90  H    0.014021
    91  H    0.011145
    92  H    0.039954
    93  H    0.023478
    94  H    0.005202
    95  H    0.038630
    96  H    0.015556
    97  H    0.036788
    98  H    0.035598
    99  H    0.035944
   100  H    0.055364
   101  H    0.035293
   102  H    0.064122
   103  H    0.031532
   104  H   -0.009768
   105  H    0.033646
   106  H    0.005219
   107  H    0.010660
   108  H   -0.013613
   109  H    0.002763
   110  H   -0.003595
   111  H   -0.001538
   112  H    0.021754
   113  H   -0.004290
   114  H   -0.010589
   115  H    0.009976
   116  H    0.007411
   117  H    0.007784
   118  H    0.000243
   119  H    0.003774
   120  H    0.012857
   121  H   -0.007189
   122  H   -0.001950
   123  H   -0.012853
   124  H   -0.002862
   125  H    0.003061
   126  H    0.006589
   127  H    0.010889
   128  H   -0.015720
   129  H   -0.003087
   130  H    0.009484
   131  H   -0.009864
   132  H   -0.023826
   133  H   -0.041155
   134  H   -0.016142
   135  H   -0.003709
   136  H    0.005019
   137  H    0.003954
   138  H    0.001224
   139  H    0.001682
   140  H    0.006851
 Sum of Mulliken charges =  -0.00000

 Dipole moment (field-independent basis, Debye):
    X=              2.5919    Y=              1.6479    Z=             -0.0506  Tot=              3.0718
 Quadrupole moment (field-independent basis, Debye-Ang):
   XX=           -376.4422   YY=           -418.7784   ZZ=           -410.1684
   XY=              4.0685   XZ=             17.0576   YZ=              8.2738

 Normal termination of Gaussian 16 at Fri Apr 29 23:50:32 2022.
