 Gaussian 16, Revision A.03,
 Gaussian 16:  ES64L-G16RevA.03 25-Dec-2016

 ---------------------------------
 #p PBE1PBE/Def2SVP td=(nstates=5)
 ---------------------------------

 ----------------------------------------------------
 step_51_chromophore_13 TDDFT with PBE1PBE functional
 ----------------------------------------------------
 Symbolic Z-matrix:
 Charge =  0 Multiplicity = 1

                         Standard orientation:
 ---------------------------------------------------------------------
 Center     Atomic      Atomic             Coordinates (Angstroms)
 Number     Number       Type             X           Y           Z
 ---------------------------------------------------------------------
      1         12           0       -5.948015    0.413266   -0.157925
      2          6           0       -3.679816   -2.333500    0.181435
      3          6           0       -3.309465    2.575823    0.465120
      4          6           0       -8.169126    2.955133    0.003435
      5          6           0       -8.511759   -1.830157   -0.317623
      6          7           0       -3.725236    0.115945    0.305790
      7          6           0       -2.981831   -1.080065    0.359722
      8          6           0       -1.517334   -0.822686    0.423326
      9          6           0       -1.429235    0.735045    0.596712
     10          6           0       -2.924378    1.236129    0.355959
     11          6           0       -0.811359    1.242041    1.894188
     12          6           0       -0.744596   -1.334239   -0.748298
     13          6           0        0.561686   -2.070441   -0.448495
     14          6           0        1.871894   -1.777042   -1.154813
     15          8           0        2.109095   -1.029240   -2.141735
     16          8           0        2.854696   -2.597913   -0.699279
     17          7           0       -5.734025    2.526637    0.033944
     18          6           0       -4.598491    3.217460    0.359476
     19          6           0       -4.872422    4.671575    0.345815
     20          6           0       -6.237009    4.795305    0.195764
     21          6           0       -6.807241    3.386006    0.015999
     22          6           0       -3.835639    5.718139    0.483833
     23          6           0       -7.093710    6.059004    0.174883
     24          8           0       -8.303109    6.002303    0.094941
     25          6           0       -6.454568    7.366143    0.415381
     26          7           0       -8.015252    0.533942   -0.078654
     27          6           0       -8.702765    1.698727   -0.014556
     28          6           0      -10.187315    1.412450    0.189793
     29          6           0      -10.287544   -0.004099   -0.425900
     30          6           0       -8.875724   -0.414859   -0.278517
     31          6           0      -10.762318    1.500174    1.575537
     32          6           0      -10.917534   -0.169868   -1.860634
     33          6           0       -9.909179   -0.687298   -3.011310
     34          7           0       -6.096706   -1.593692   -0.163678
     35          6           0       -7.210633   -2.354373   -0.295852
     36          6           0       -6.833372   -3.764293   -0.396401
     37          6           0       -5.442528   -3.724995   -0.204994
     38          6           0       -5.066563   -2.411196   -0.073414
     39          6           0       -7.765229   -4.910648   -0.540762
     40          6           0       -4.239233   -4.636936   -0.004966
     41          8           0       -4.135514   -5.844775    0.092587
     42          6           0       -3.062407   -3.674152    0.183282
     43          6           0       -2.456935   -4.051784    1.485276
     44          8           0       -3.058908   -3.922990    2.580872
     45          8           0       -1.148736   -4.441565    1.383863
     46          6           0       -0.348785   -4.592510    2.594506
     47          6           0        4.117583   -2.529864   -1.452459
     48          6           0        5.100116   -1.678354   -0.609930
     49          6           0        6.422411   -1.822004   -0.453831
     50          6           0        7.228964   -2.709707   -1.285431
     51          6           0        7.210513   -1.036338    0.629891
     52          6           0        7.481099    0.485669    0.372004
     53          6           0        8.973233    0.970905    0.449135
     54          6           0        9.291975    1.986433   -0.642008
     55          6           0        8.498263    3.318442   -0.643263
     56          6           0        9.338716    1.353108   -2.021770
     57          6           0       10.764189    1.749102   -2.705346
     58          6           0       11.710090    0.528076   -2.601697
     59          6           0       13.125357    0.965811   -2.115451
     60          6           0       14.212460    0.746469   -3.216936
     61          6           0       13.567308    0.271214   -0.778011
     62          6           0       13.322257    1.173328    0.442403
     63          6           0       12.787856    0.454741    1.635004
     64          6           0       13.057963    0.948831    3.050079
     65          6           0       13.870316   -0.062721    3.775489
     66          6           0       11.845798    1.332504    3.838580
     67          1           0       -2.429654    3.211568    0.583236
     68          1           0       -8.833059    3.821416    0.040742
     69          1           0       -9.343202   -2.505019   -0.533086
     70          1           0       -1.213032   -1.317576    1.345799
     71          1           0       -0.905043    1.236649   -0.217213
     72          1           0        0.038960    1.905773    1.743120
     73          1           0       -0.452608    0.334865    2.379563
     74          1           0       -1.515139    1.726162    2.572159
     75          1           0       -0.502903   -0.551277   -1.466747
     76          1           0       -1.263559   -2.114624   -1.304041
     77          1           0        0.352839   -3.139516   -0.499751
     78          1           0        0.859366   -1.843579    0.575606
     79          1           0       -3.811661    6.366077   -0.391947
     80          1           0       -2.866269    5.246282    0.647063
     81          1           0       -4.048406    6.316790    1.369743
     82          1           0       -6.004530    7.310163    1.406610
     83          1           0       -7.210933    8.144748    0.316310
     84          1           0       -5.716875    7.514047   -0.373642
     85          1           0      -10.792651    2.073460   -0.429912
     86          1           0      -10.856144   -0.694280    0.196746
     87          1           0       -9.953022    1.310443    2.280228
     88          1           0      -11.488361    0.705608    1.744240
     89          1           0      -11.213910    2.489278    1.651870
     90          1           0      -11.305844    0.799475   -2.172152
     91          1           0      -11.723460   -0.892744   -1.727206
     92          1           0       -8.891908   -0.335172   -2.842480
     93          1           0      -10.302058   -0.509066   -4.012344
     94          1           0       -9.890073   -1.770637   -2.892653
     95          1           0       -7.275262   -5.765559   -1.005696
     96          1           0       -8.728861   -4.650436   -0.978572
     97          1           0       -7.964612   -5.168131    0.499530
     98          1           0       -2.345789   -3.711356   -0.637118
     99          1           0        0.098045   -5.586475    2.574526
    100          1           0       -0.906915   -4.550780    3.529997
    101          1           0        0.499269   -3.910892    2.653048
    102          1           0        4.125295   -2.009863   -2.410176
    103          1           0        4.459593   -3.563623   -1.501339
    104          1           0        4.618592   -0.940692    0.030704
    105          1           0        7.502715   -3.690399   -0.895030
    106          1           0        8.196644   -2.295390   -1.569633
    107          1           0        6.664970   -2.670062   -2.215937
    108          1           0        8.159929   -1.538834    0.817059
    109          1           0        6.686902   -1.105210    1.583512
    110          1           0        6.834305    1.136764    0.960541
    111          1           0        7.094746    0.779281   -0.603992
    112          1           0        9.654955    0.126601    0.557046
    113          1           0        9.162635    1.462009    1.402873
    114          1           0       10.281393    2.263874   -0.279147
    115          1           0        7.507097    3.191610   -0.208481
    116          1           0        8.395336    3.610111   -1.687892
    117          1           0        9.041336    4.076529   -0.078835
    118          1           0        8.577570    1.690754   -2.724007
    119          1           0        9.250890    0.271911   -1.909675
    120          1           0       11.202423    2.646855   -2.269860
    121          1           0       10.606808    1.903725   -3.772308
    122          1           0       11.836437   -0.078256   -3.498500
    123          1           0       11.230691   -0.102598   -1.852721
    124          1           0       13.148030    2.027874   -1.869772
    125          1           0       13.699127    0.909119   -4.164333
    126          1           0       14.589378   -0.276895   -3.211343
    127          1           0       15.062455    1.416433   -3.081672
    128          1           0       14.636799    0.087053   -0.877174
    129          1           0       13.069870   -0.699147   -0.787539
    130          1           0       12.627863    1.988533    0.242114
    131          1           0       14.307724    1.496803    0.776800
    132          1           0       13.182433   -0.558576    1.563369
    133          1           0       11.724093    0.254205    1.502472
    134          1           0       13.767030    1.766501    2.921275
    135          1           0       14.351883    0.350800    4.662048
    136          1           0       14.678924   -0.399371    3.126977
    137          1           0       13.273441   -0.885239    4.169100
    138          1           0       11.596195    0.566307    4.572978
    139          1           0       11.027181    1.468922    3.131696
    140          1           0       12.024049    2.242368    4.410345
 ---------------------------------------------------------------------

 SCF Done:  E(RPBE1PBE) =  -3005.36651383     A.U. after   16 cycles

 Excitation energies and oscillator strengths:

 Excited State   1:      Singlet-A      1.8777 eV  660.28 nm  f=0.3513  <S**2>=0.000
     245 -> 248        0.18061
     246 -> 247        0.69011
     246 <- 247       -0.10361
 This state for optimization and/or second-order correction.
 Total Energy, E(TD-HF/TD-DFT) =  -3005.29750794
 Copying the excited state density for this state as the 1-particle RhoCI density.

 Excited State   2:      Singlet-A      2.3031 eV  538.34 nm  f=0.0754  <S**2>=0.000
     245 -> 247        0.62280
     246 -> 248       -0.32498

 Excited State   3:      Singlet-A      3.2937 eV  376.43 nm  f=0.4442  <S**2>=0.000
     241 -> 247        0.14994
     242 -> 247        0.16429
     243 -> 247        0.12040
     245 -> 247        0.26899
     246 -> 248        0.55902
     246 -> 250        0.11581

 Excited State   4:      Singlet-A      3.3126 eV  374.28 nm  f=0.0324  <S**2>=0.000
     243 -> 247        0.66573
     246 -> 248       -0.13624

 Excited State   5:      Singlet-A      3.3149 eV  374.02 nm  f=0.0203  <S**2>=0.000
     242 -> 247        0.64733
     242 -> 249        0.12562
     242 -> 250        0.12618
     246 -> 248       -0.11925

 The electronic state is 1-A.
 Alpha  occ. eigenvalues --  -46.91830 -19.26986 -19.26245 -19.20148 -19.19948
 Alpha  occ. eigenvalues --  -19.19876 -19.18833 -14.41386 -14.41287 -14.39490
 Alpha  occ. eigenvalues --  -14.38657 -10.37267 -10.37043 -10.33061 -10.31695
 Alpha  occ. eigenvalues --  -10.29800 -10.29447 -10.29136 -10.28388 -10.28318
 Alpha  occ. eigenvalues --  -10.27910 -10.27759 -10.27494 -10.27307 -10.26228
 Alpha  occ. eigenvalues --  -10.26148 -10.26094 -10.25894 -10.25839 -10.25625
 Alpha  occ. eigenvalues --  -10.25611 -10.25542 -10.24816 -10.24765 -10.24675
 Alpha  occ. eigenvalues --  -10.24669 -10.24552 -10.24418 -10.24376 -10.24326
 Alpha  occ. eigenvalues --  -10.24142 -10.23591 -10.23411 -10.23312 -10.23268
 Alpha  occ. eigenvalues --  -10.23252 -10.23195 -10.23044 -10.23040 -10.22944
 Alpha  occ. eigenvalues --  -10.22899 -10.22872 -10.22836 -10.22728 -10.22701
 Alpha  occ. eigenvalues --  -10.22626 -10.22548 -10.22281 -10.22185 -10.22181
 Alpha  occ. eigenvalues --  -10.22140 -10.22089 -10.21744 -10.21604 -10.21298
 Alpha  occ. eigenvalues --  -10.21115  -3.14020  -1.86864  -1.86382  -1.86261
 Alpha  occ. eigenvalues --   -1.11455  -1.11155  -1.05642  -1.05253  -1.01560
 Alpha  occ. eigenvalues --   -1.01003  -1.00792  -0.99775  -0.96962  -0.96049
 Alpha  occ. eigenvalues --   -0.88036  -0.84979  -0.84604  -0.84287  -0.83444
 Alpha  occ. eigenvalues --   -0.83383  -0.82803  -0.81963  -0.81826  -0.81356
 Alpha  occ. eigenvalues --   -0.80698  -0.80065  -0.78539  -0.78206  -0.77672
 Alpha  occ. eigenvalues --   -0.76797  -0.76511  -0.75860  -0.75403  -0.74656
 Alpha  occ. eigenvalues --   -0.74045  -0.72711  -0.72351  -0.72064  -0.71104
 Alpha  occ. eigenvalues --   -0.70175  -0.69938  -0.69792  -0.68579  -0.68421
 Alpha  occ. eigenvalues --   -0.68005  -0.66996  -0.65772  -0.65057  -0.64333
 Alpha  occ. eigenvalues --   -0.62961  -0.62754  -0.61678  -0.61437  -0.60179
 Alpha  occ. eigenvalues --   -0.59871  -0.59759  -0.59529  -0.58838  -0.57926
 Alpha  occ. eigenvalues --   -0.57654  -0.57341  -0.57030  -0.55880  -0.54546
 Alpha  occ. eigenvalues --   -0.54363  -0.54099  -0.53983  -0.53604  -0.53123
 Alpha  occ. eigenvalues --   -0.52806  -0.52056  -0.50757  -0.50115  -0.49938
 Alpha  occ. eigenvalues --   -0.49710  -0.49599  -0.49363  -0.49020  -0.48843
 Alpha  occ. eigenvalues --   -0.48256  -0.48017  -0.47805  -0.47678  -0.47475
 Alpha  occ. eigenvalues --   -0.47414  -0.47241  -0.46973  -0.46711  -0.46578
 Alpha  occ. eigenvalues --   -0.46307  -0.46195  -0.46006  -0.45529  -0.45343
 Alpha  occ. eigenvalues --   -0.45173  -0.44721  -0.44686  -0.44485  -0.44369
 Alpha  occ. eigenvalues --   -0.44240  -0.44048  -0.43877  -0.43826  -0.43503
 Alpha  occ. eigenvalues --   -0.43456  -0.43301  -0.43150  -0.43010  -0.42877
 Alpha  occ. eigenvalues --   -0.42626  -0.41921  -0.41810  -0.41471  -0.41375
 Alpha  occ. eigenvalues --   -0.41273  -0.40917  -0.40640  -0.40542  -0.40366
 Alpha  occ. eigenvalues --   -0.40291  -0.39993  -0.39922  -0.39728  -0.39348
 Alpha  occ. eigenvalues --   -0.39255  -0.39180  -0.39120  -0.39058  -0.38784
 Alpha  occ. eigenvalues --   -0.38522  -0.38455  -0.38330  -0.38280  -0.37937
 Alpha  occ. eigenvalues --   -0.37895  -0.37836  -0.37335  -0.37127  -0.37008
 Alpha  occ. eigenvalues --   -0.36947  -0.36605  -0.36536  -0.36443  -0.36160
 Alpha  occ. eigenvalues --   -0.35974  -0.35741  -0.35549  -0.35081  -0.34825
 Alpha  occ. eigenvalues --   -0.34670  -0.34502  -0.34493  -0.34355  -0.34122
 Alpha  occ. eigenvalues --   -0.33765  -0.33125  -0.32682  -0.32333  -0.32225
 Alpha  occ. eigenvalues --   -0.32105  -0.31655  -0.31557  -0.31134  -0.31025
 Alpha  occ. eigenvalues --   -0.30763  -0.30553  -0.29600  -0.29443  -0.29164
 Alpha  occ. eigenvalues --   -0.28776  -0.28562  -0.28548  -0.26865  -0.26424
 Alpha  occ. eigenvalues --   -0.25830  -0.25635  -0.25561  -0.24894  -0.20733
 Alpha  occ. eigenvalues --   -0.18192
 Alpha virt. eigenvalues --   -0.10455  -0.05160  -0.03547  -0.01870  -0.00525
 Alpha virt. eigenvalues --   -0.00183   0.00295   0.01271   0.01490   0.02679
 Alpha virt. eigenvalues --    0.03769   0.04539   0.04654   0.04889   0.05166

 Mulliken charges:
               1
     1  Mg   0.988470
     2  C   -0.121330
     3  C   -0.066630
     4  C   -0.054415
     5  C   -0.081517
     6  N   -0.396200
     7  C    0.043023
     8  C   -0.050357
     9  C   -0.150472
    10  C    0.064045
    11  C    0.022450
    12  C    0.062516
    13  C   -0.078021
    14  C    0.234553
    15  O   -0.304853
    16  O   -0.358531
    17  N   -0.467753
    18  C    0.160121
    19  C   -0.186645
    20  C   -0.097348
    21  C    0.112673
    22  C    0.076617
    23  C    0.039959
    24  O   -0.234326
    25  C   -0.003173
    26  N   -0.371016
    27  C    0.107433
    28  C   -0.125436
    29  C   -0.105187
    30  C    0.017789
    31  C    0.058608
    32  C   -0.027729
    33  C   -0.074577
    34  N   -0.472971
    35  C    0.158841
    36  C   -0.219920
    37  C   -0.099609
    38  C    0.227538
    39  C    0.081140
    40  C    0.180966
    41  O   -0.196415
    42  C   -0.069765
    43  C    0.299279
    44  O   -0.280614
    45  O   -0.360422
    46  C    0.114881
    47  C    0.238082
    48  C   -0.135453
    49  C   -0.224222
    50  C    0.009512
    51  C    0.041254
    52  C   -0.047335
    53  C   -0.072031
    54  C   -0.223090
    55  C    0.009523
    56  C   -0.027297
    57  C   -0.054987
    58  C    0.020406
    59  C   -0.260605
    60  C   -0.020281
    61  C    0.007281
    62  C   -0.015226
    63  C   -0.043534
    64  C   -0.221020
    65  C   -0.029882
    66  C    0.020502
    67  H    0.000953
    68  H    0.026168
    69  H   -0.004319
    70  H    0.056237
    71  H    0.054960
    72  H    0.042933
    73  H    0.028172
    74  H    0.053919
    75  H    0.056205
    76  H    0.039622
    77  H    0.089354
    78  H    0.059449
    79  H    0.061552
    80  H    0.035553
    81  H    0.049798
    82  H    0.070858
    83  H    0.055321
    84  H    0.051299
    85  H    0.031547
    86  H    0.034602
    87  H    0.044535
    88  H    0.036736
    89  H    0.056155
    90  H    0.045783
    91  H    0.042821
    92  H    0.071558
    93  H    0.051730
    94  H    0.034387
    95  H    0.065436
    96  H    0.041239
    97  H    0.065223
    98  H    0.073857
    99  H    0.057789
   100  H    0.075511
   101  H    0.056093
   102  H    0.091281
   103  H    0.058969
   104  H    0.020268
   105  H    0.060465
   106  H    0.034465
   107  H    0.038700
   108  H    0.018345
   109  H    0.035725
   110  H    0.027758
   111  H    0.032211
   112  H    0.054408
   113  H    0.032968
   114  H    0.036684
   115  H    0.037197
   116  H    0.035115
   117  H    0.034619
   118  H    0.031756
   119  H    0.041885
   120  H    0.042472
   121  H    0.026687
   122  H    0.029465
   123  H    0.020707
   124  H    0.035810
   125  H    0.032000
   126  H    0.034581
   127  H    0.039021
   128  H    0.018032
   129  H    0.027643
   130  H    0.042992
   131  H    0.024653
   132  H    0.010335
   133  H    0.002023
   134  H    0.022508
   135  H    0.025539
   136  H    0.033532
   137  H    0.031835
   138  H    0.028293
   139  H    0.033797
   140  H    0.034950
 Sum of Mulliken charges =  -0.00000

 Dipole moment (field-independent basis, Debye):
    X=              2.5726    Y=              2.0013    Z=              0.0006  Tot=              3.2594
 Quadrupole moment (field-independent basis, Debye-Ang):
   XX=           -370.4292   YY=           -415.8876   ZZ=           -407.7508
   XY=              2.4029   XZ=             16.9632   YZ=              8.4970

 Normal termination of Gaussian 16 at Sat Apr 30 00:14:22 2022.
