 Gaussian 16, Revision A.03,
 Gaussian 16:  ES64L-G16RevA.03 25-Dec-2016

 --------------------------------
 #p wB97XD/Def2SVP td=(nstates=5)
 --------------------------------

 ---------------------------------------------------
 step_51_chromophore_13 TDDFT with wB97XD functional
 ---------------------------------------------------
 Symbolic Z-matrix:
 Charge =  0 Multiplicity = 1

                         Standard orientation:
 ---------------------------------------------------------------------
 Center     Atomic      Atomic             Coordinates (Angstroms)
 Number     Number       Type             X           Y           Z
 ---------------------------------------------------------------------
      1         12           0       -5.948015    0.413266   -0.157925
      2          6           0       -3.679816   -2.333500    0.181435
      3          6           0       -3.309465    2.575823    0.465120
      4          6           0       -8.169126    2.955133    0.003435
      5          6           0       -8.511759   -1.830157   -0.317623
      6          7           0       -3.725236    0.115945    0.305790
      7          6           0       -2.981831   -1.080065    0.359722
      8          6           0       -1.517334   -0.822686    0.423326
      9          6           0       -1.429235    0.735045    0.596712
     10          6           0       -2.924378    1.236129    0.355959
     11          6           0       -0.811359    1.242041    1.894188
     12          6           0       -0.744596   -1.334239   -0.748298
     13          6           0        0.561686   -2.070441   -0.448495
     14          6           0        1.871894   -1.777042   -1.154813
     15          8           0        2.109095   -1.029240   -2.141735
     16          8           0        2.854696   -2.597913   -0.699279
     17          7           0       -5.734025    2.526637    0.033944
     18          6           0       -4.598491    3.217460    0.359476
     19          6           0       -4.872422    4.671575    0.345815
     20          6           0       -6.237009    4.795305    0.195764
     21          6           0       -6.807241    3.386006    0.015999
     22          6           0       -3.835639    5.718139    0.483833
     23          6           0       -7.093710    6.059004    0.174883
     24          8           0       -8.303109    6.002303    0.094941
     25          6           0       -6.454568    7.366143    0.415381
     26          7           0       -8.015252    0.533942   -0.078654
     27          6           0       -8.702765    1.698727   -0.014556
     28          6           0      -10.187315    1.412450    0.189793
     29          6           0      -10.287544   -0.004099   -0.425900
     30          6           0       -8.875724   -0.414859   -0.278517
     31          6           0      -10.762318    1.500174    1.575537
     32          6           0      -10.917534   -0.169868   -1.860634
     33          6           0       -9.909179   -0.687298   -3.011310
     34          7           0       -6.096706   -1.593692   -0.163678
     35          6           0       -7.210633   -2.354373   -0.295852
     36          6           0       -6.833372   -3.764293   -0.396401
     37          6           0       -5.442528   -3.724995   -0.204994
     38          6           0       -5.066563   -2.411196   -0.073414
     39          6           0       -7.765229   -4.910648   -0.540762
     40          6           0       -4.239233   -4.636936   -0.004966
     41          8           0       -4.135514   -5.844775    0.092587
     42          6           0       -3.062407   -3.674152    0.183282
     43          6           0       -2.456935   -4.051784    1.485276
     44          8           0       -3.058908   -3.922990    2.580872
     45          8           0       -1.148736   -4.441565    1.383863
     46          6           0       -0.348785   -4.592510    2.594506
     47          6           0        4.117583   -2.529864   -1.452459
     48          6           0        5.100116   -1.678354   -0.609930
     49          6           0        6.422411   -1.822004   -0.453831
     50          6           0        7.228964   -2.709707   -1.285431
     51          6           0        7.210513   -1.036338    0.629891
     52          6           0        7.481099    0.485669    0.372004
     53          6           0        8.973233    0.970905    0.449135
     54          6           0        9.291975    1.986433   -0.642008
     55          6           0        8.498263    3.318442   -0.643263
     56          6           0        9.338716    1.353108   -2.021770
     57          6           0       10.764189    1.749102   -2.705346
     58          6           0       11.710090    0.528076   -2.601697
     59          6           0       13.125357    0.965811   -2.115451
     60          6           0       14.212460    0.746469   -3.216936
     61          6           0       13.567308    0.271214   -0.778011
     62          6           0       13.322257    1.173328    0.442403
     63          6           0       12.787856    0.454741    1.635004
     64          6           0       13.057963    0.948831    3.050079
     65          6           0       13.870316   -0.062721    3.775489
     66          6           0       11.845798    1.332504    3.838580
     67          1           0       -2.429654    3.211568    0.583236
     68          1           0       -8.833059    3.821416    0.040742
     69          1           0       -9.343202   -2.505019   -0.533086
     70          1           0       -1.213032   -1.317576    1.345799
     71          1           0       -0.905043    1.236649   -0.217213
     72          1           0        0.038960    1.905773    1.743120
     73          1           0       -0.452608    0.334865    2.379563
     74          1           0       -1.515139    1.726162    2.572159
     75          1           0       -0.502903   -0.551277   -1.466747
     76          1           0       -1.263559   -2.114624   -1.304041
     77          1           0        0.352839   -3.139516   -0.499751
     78          1           0        0.859366   -1.843579    0.575606
     79          1           0       -3.811661    6.366077   -0.391947
     80          1           0       -2.866269    5.246282    0.647063
     81          1           0       -4.048406    6.316790    1.369743
     82          1           0       -6.004530    7.310163    1.406610
     83          1           0       -7.210933    8.144748    0.316310
     84          1           0       -5.716875    7.514047   -0.373642
     85          1           0      -10.792651    2.073460   -0.429912
     86          1           0      -10.856144   -0.694280    0.196746
     87          1           0       -9.953022    1.310443    2.280228
     88          1           0      -11.488361    0.705608    1.744240
     89          1           0      -11.213910    2.489278    1.651870
     90          1           0      -11.305844    0.799475   -2.172152
     91          1           0      -11.723460   -0.892744   -1.727206
     92          1           0       -8.891908   -0.335172   -2.842480
     93          1           0      -10.302058   -0.509066   -4.012344
     94          1           0       -9.890073   -1.770637   -2.892653
     95          1           0       -7.275262   -5.765559   -1.005696
     96          1           0       -8.728861   -4.650436   -0.978572
     97          1           0       -7.964612   -5.168131    0.499530
     98          1           0       -2.345789   -3.711356   -0.637118
     99          1           0        0.098045   -5.586475    2.574526
    100          1           0       -0.906915   -4.550780    3.529997
    101          1           0        0.499269   -3.910892    2.653048
    102          1           0        4.125295   -2.009863   -2.410176
    103          1           0        4.459593   -3.563623   -1.501339
    104          1           0        4.618592   -0.940692    0.030704
    105          1           0        7.502715   -3.690399   -0.895030
    106          1           0        8.196644   -2.295390   -1.569633
    107          1           0        6.664970   -2.670062   -2.215937
    108          1           0        8.159929   -1.538834    0.817059
    109          1           0        6.686902   -1.105210    1.583512
    110          1           0        6.834305    1.136764    0.960541
    111          1           0        7.094746    0.779281   -0.603992
    112          1           0        9.654955    0.126601    0.557046
    113          1           0        9.162635    1.462009    1.402873
    114          1           0       10.281393    2.263874   -0.279147
    115          1           0        7.507097    3.191610   -0.208481
    116          1           0        8.395336    3.610111   -1.687892
    117          1           0        9.041336    4.076529   -0.078835
    118          1           0        8.577570    1.690754   -2.724007
    119          1           0        9.250890    0.271911   -1.909675
    120          1           0       11.202423    2.646855   -2.269860
    121          1           0       10.606808    1.903725   -3.772308
    122          1           0       11.836437   -0.078256   -3.498500
    123          1           0       11.230691   -0.102598   -1.852721
    124          1           0       13.148030    2.027874   -1.869772
    125          1           0       13.699127    0.909119   -4.164333
    126          1           0       14.589378   -0.276895   -3.211343
    127          1           0       15.062455    1.416433   -3.081672
    128          1           0       14.636799    0.087053   -0.877174
    129          1           0       13.069870   -0.699147   -0.787539
    130          1           0       12.627863    1.988533    0.242114
    131          1           0       14.307724    1.496803    0.776800
    132          1           0       13.182433   -0.558576    1.563369
    133          1           0       11.724093    0.254205    1.502472
    134          1           0       13.767030    1.766501    2.921275
    135          1           0       14.351883    0.350800    4.662048
    136          1           0       14.678924   -0.399371    3.126977
    137          1           0       13.273441   -0.885239    4.169100
    138          1           0       11.596195    0.566307    4.572978
    139          1           0       11.027181    1.468922    3.131696
    140          1           0       12.024049    2.242368    4.410345
 ---------------------------------------------------------------------

 SCF Done:  E(RwB97XD) =  -3007.87854378     A.U. after   19 cycles

 Excitation energies and oscillator strengths:

 Excited State   1:      Singlet-A      1.6772 eV  739.21 nm  f=0.3602  <S**2>=0.000
     245 -> 248       -0.18982
     246 -> 247        0.68134
     245 <- 248       -0.11773
 This state for optimization and/or second-order correction.
 Total Energy, E(TD-HF/TD-DFT) =  -3007.81690626
 Copying the excited state density for this state as the 1-particle RhoCI density.

 Excited State   2:      Singlet-A      2.2322 eV  555.43 nm  f=0.0682  <S**2>=0.000
     245 -> 247        0.60662
     246 -> 248        0.35398

 Excited State   3:      Singlet-A      3.4805 eV  356.22 nm  f=0.8279  <S**2>=0.000
     242 -> 247       -0.15711
     245 -> 247       -0.33969
     246 -> 248        0.59660
     245 <- 247        0.11705

 Excited State   4:      Singlet-A      3.6605 eV  338.70 nm  f=0.0430  <S**2>=0.000
     242 -> 247       -0.46149
     243 -> 247        0.49596

 Excited State   5:      Singlet-A      3.7956 eV  326.66 nm  f=0.0001  <S**2>=0.000
     239 -> 247        0.52858
     239 -> 249       -0.39367
     239 -> 250        0.16515

 The electronic state is 1-A.
 Alpha  occ. eigenvalues --  -46.94776 -19.31656 -19.30817 -19.25211 -19.24755
 Alpha  occ. eigenvalues --  -19.24534 -19.23461 -14.46427 -14.46420 -14.44343
 Alpha  occ. eigenvalues --  -14.43716 -10.44196 -10.43842 -10.40112 -10.38342
 Alpha  occ. eigenvalues --  -10.36280 -10.36015 -10.35596 -10.34756 -10.34507
 Alpha  occ. eigenvalues --  -10.33944 -10.33909 -10.33781 -10.33618 -10.32810
 Alpha  occ. eigenvalues --  -10.32704 -10.32399 -10.32352 -10.32222 -10.32092
 Alpha  occ. eigenvalues --  -10.32018 -10.31724 -10.31145 -10.31094 -10.31061
 Alpha  occ. eigenvalues --  -10.30911 -10.30892 -10.30730 -10.30666 -10.30533
 Alpha  occ. eigenvalues --  -10.30500 -10.30221 -10.29755 -10.29706 -10.29702
 Alpha  occ. eigenvalues --  -10.29642 -10.29604 -10.29523 -10.29435 -10.29311
 Alpha  occ. eigenvalues --  -10.29290 -10.29222 -10.29132 -10.29118 -10.29047
 Alpha  occ. eigenvalues --  -10.29007 -10.28887 -10.28579 -10.28572 -10.28571
 Alpha  occ. eigenvalues --  -10.28542 -10.28445 -10.28177 -10.28039 -10.27746
 Alpha  occ. eigenvalues --  -10.27493  -3.20818  -1.94413  -1.93934  -1.93804
 Alpha  occ. eigenvalues --   -1.18845  -1.18659  -1.13344  -1.12554  -1.09059
 Alpha  occ. eigenvalues --   -1.08400  -1.08159  -1.07280  -1.04185  -1.03401
 Alpha  occ. eigenvalues --   -0.95792  -0.92637  -0.92267  -0.91949  -0.91106
 Alpha  occ. eigenvalues --   -0.90945  -0.90336  -0.89620  -0.89421  -0.89048
 Alpha  occ. eigenvalues --   -0.88318  -0.87690  -0.86239  -0.85870  -0.85287
 Alpha  occ. eigenvalues --   -0.84448  -0.84132  -0.83530  -0.83043  -0.82279
 Alpha  occ. eigenvalues --   -0.81717  -0.80424  -0.79871  -0.79718  -0.78753
 Alpha  occ. eigenvalues --   -0.77857  -0.77629  -0.77349  -0.76249  -0.76062
 Alpha  occ. eigenvalues --   -0.75629  -0.74593  -0.73266  -0.72688  -0.71951
 Alpha  occ. eigenvalues --   -0.70549  -0.70401  -0.69336  -0.68914  -0.67657
 Alpha  occ. eigenvalues --   -0.67516  -0.67216  -0.66968  -0.66306  -0.65624
 Alpha  occ. eigenvalues --   -0.65107  -0.64809  -0.64670  -0.63481  -0.62112
 Alpha  occ. eigenvalues --   -0.61819  -0.61639  -0.61494  -0.61102  -0.60489
 Alpha  occ. eigenvalues --   -0.60329  -0.59430  -0.58100  -0.57555  -0.57342
 Alpha  occ. eigenvalues --   -0.57137  -0.57061  -0.56847  -0.56444  -0.56324
 Alpha  occ. eigenvalues --   -0.55612  -0.55394  -0.55230  -0.55137  -0.54888
 Alpha  occ. eigenvalues --   -0.54796  -0.54616  -0.54361  -0.54029  -0.53893
 Alpha  occ. eigenvalues --   -0.53763  -0.53609  -0.53375  -0.52953  -0.52712
 Alpha  occ. eigenvalues --   -0.52527  -0.52091  -0.51967  -0.51798  -0.51688
 Alpha  occ. eigenvalues --   -0.51560  -0.51354  -0.51207  -0.51142  -0.50795
 Alpha  occ. eigenvalues --   -0.50736  -0.50614  -0.50447  -0.50297  -0.50133
 Alpha  occ. eigenvalues --   -0.49899  -0.49183  -0.49054  -0.48813  -0.48616
 Alpha  occ. eigenvalues --   -0.48421  -0.48108  -0.47834  -0.47792  -0.47621
 Alpha  occ. eigenvalues --   -0.47497  -0.47193  -0.47150  -0.46894  -0.46535
 Alpha  occ. eigenvalues --   -0.46488  -0.46326  -0.46265  -0.46218  -0.45959
 Alpha  occ. eigenvalues --   -0.45699  -0.45663  -0.45460  -0.45372  -0.45076
 Alpha  occ. eigenvalues --   -0.45059  -0.44860  -0.44486  -0.44339  -0.44164
 Alpha  occ. eigenvalues --   -0.44078  -0.43725  -0.43574  -0.43472  -0.43247
 Alpha  occ. eigenvalues --   -0.43002  -0.42851  -0.42636  -0.42102  -0.41819
 Alpha  occ. eigenvalues --   -0.41746  -0.41511  -0.41502  -0.41387  -0.41167
 Alpha  occ. eigenvalues --   -0.40719  -0.40215  -0.39564  -0.39380  -0.39269
 Alpha  occ. eigenvalues --   -0.39173  -0.38706  -0.38650  -0.38174  -0.37957
 Alpha  occ. eigenvalues --   -0.37711  -0.37519  -0.36526  -0.36430  -0.36232
 Alpha  occ. eigenvalues --   -0.35913  -0.35456  -0.35215  -0.33730  -0.33348
 Alpha  occ. eigenvalues --   -0.32641  -0.32487  -0.32115  -0.31652  -0.25739
 Alpha  occ. eigenvalues --   -0.22326
 Alpha virt. eigenvalues --   -0.06250   0.00229   0.02749   0.04686   0.06015
 Alpha virt. eigenvalues --    0.06312   0.06654   0.07922   0.08185   0.09365
 Alpha virt. eigenvalues --    0.10064   0.11139   0.11345   0.11481   0.11924

 Mulliken charges:
               1
     1  Mg   0.977856
     2  C   -0.132475
     3  C   -0.074652
     4  C   -0.064246
     5  C   -0.104958
     6  N   -0.364568
     7  C    0.008108
     8  C   -0.017315
     9  C   -0.125664
    10  C    0.044379
    11  C    0.033541
    12  C    0.071638
    13  C   -0.059484
    14  C    0.224452
    15  O   -0.301873
    16  O   -0.358797
    17  N   -0.434344
    18  C    0.147283
    19  C   -0.177337
    20  C   -0.089675
    21  C    0.092739
    22  C    0.091128
    23  C    0.033705
    24  O   -0.230151
    25  C    0.010869
    26  N   -0.332324
    27  C    0.090315
    28  C   -0.094817
    29  C   -0.083698
    30  C    0.007848
    31  C    0.064903
    32  C   -0.020238
    33  C   -0.049720
    34  N   -0.431508
    35  C    0.156911
    36  C   -0.213540
    37  C   -0.097852
    38  C    0.217288
    39  C    0.092376
    40  C    0.160812
    41  O   -0.185374
    42  C   -0.021082
    43  C    0.272925
    44  O   -0.275703
    45  O   -0.356963
    46  C    0.129981
    47  C    0.256110
    48  C   -0.148457
    49  C   -0.207687
    50  C    0.022081
    51  C    0.057344
    52  C   -0.032856
    53  C   -0.046594
    54  C   -0.179885
    55  C    0.018447
    56  C   -0.005758
    57  C   -0.037290
    58  C    0.036088
    59  C   -0.230868
    60  C   -0.005357
    61  C    0.019715
    62  C    0.009607
    63  C   -0.014973
    64  C   -0.193019
    65  C   -0.015802
    66  C    0.038571
    67  H   -0.008394
    68  H    0.021934
    69  H   -0.010632
    70  H    0.039274
    71  H    0.044667
    72  H    0.038415
    73  H    0.020294
    74  H    0.048328
    75  H    0.050569
    76  H    0.029315
    77  H    0.081620
    78  H    0.050312
    79  H    0.055361
    80  H    0.029885
    81  H    0.042446
    82  H    0.064392
    83  H    0.053733
    84  H    0.044196
    85  H    0.021438
    86  H    0.023789
    87  H    0.038466
    88  H    0.030240
    89  H    0.051831
    90  H    0.038732
    91  H    0.036778
    92  H    0.059969
    93  H    0.047765
    94  H    0.025220
    95  H    0.062882
    96  H    0.036850
    97  H    0.060686
    98  H    0.064952
    99  H    0.053852
   100  H    0.072416
   101  H    0.052295
   102  H    0.086369
   103  H    0.054879
   104  H    0.016636
   105  H    0.056881
   106  H    0.028487
   107  H    0.031796
   108  H    0.010851
   109  H    0.029081
   110  H    0.020851
   111  H    0.018480
   112  H    0.038257
   113  H    0.021476
   114  H    0.011442
   115  H    0.030665
   116  H    0.028595
   117  H    0.030587
   118  H    0.024653
   119  H    0.024470
   120  H    0.032162
   121  H    0.019752
   122  H    0.022932
   123  H    0.004300
   124  H    0.020455
   125  H    0.024671
   126  H    0.027754
   127  H    0.033894
   128  H    0.010157
   129  H    0.018400
   130  H    0.030054
   131  H    0.015070
   132  H   -0.001833
   133  H   -0.021818
   134  H    0.010867
   135  H    0.019821
   136  H    0.026207
   137  H    0.024674
   138  H    0.022143
   139  H    0.021866
   140  H    0.030025
 Sum of Mulliken charges =  -0.00000

 Dipole moment (field-independent basis, Debye):
    X=              2.6286    Y=              1.5586    Z=             -0.0514  Tot=              3.0564
 Quadrupole moment (field-independent basis, Debye-Ang):
   XX=           -370.7394   YY=           -414.6333   ZZ=           -407.2208
   XY=              4.6591   XZ=             17.5751   YZ=              8.5672

 Normal termination of Gaussian 16 at Sat Apr 30 00:47:34 2022.
