 Gaussian 16, Revision A.03,
 Gaussian 16:  ES64L-G16RevA.03 25-Dec-2016

 --------------------
 #p ZINDO=(nstates=5)
 --------------------

 ----------------------------
 step_51_chromophore_13 ZINDO
 ----------------------------
 Symbolic Z-matrix:
 Charge =  0 Multiplicity = 1

                         Standard orientation:
 ---------------------------------------------------------------------
 Center     Atomic      Atomic             Coordinates (Angstroms)
 Number     Number       Type             X           Y           Z
 ---------------------------------------------------------------------
      1         12           0       -5.948015    0.413266   -0.157925
      2          6           0       -3.679816   -2.333500    0.181435
      3          6           0       -3.309465    2.575823    0.465120
      4          6           0       -8.169126    2.955133    0.003435
      5          6           0       -8.511759   -1.830157   -0.317623
      6          7           0       -3.725236    0.115945    0.305790
      7          6           0       -2.981831   -1.080065    0.359722
      8          6           0       -1.517334   -0.822686    0.423326
      9          6           0       -1.429235    0.735045    0.596712
     10          6           0       -2.924378    1.236129    0.355959
     11          6           0       -0.811359    1.242041    1.894188
     12          6           0       -0.744596   -1.334239   -0.748298
     13          6           0        0.561686   -2.070441   -0.448495
     14          6           0        1.871894   -1.777042   -1.154813
     15          8           0        2.109095   -1.029240   -2.141735
     16          8           0        2.854696   -2.597913   -0.699279
     17          7           0       -5.734025    2.526637    0.033944
     18          6           0       -4.598491    3.217460    0.359476
     19          6           0       -4.872422    4.671575    0.345815
     20          6           0       -6.237009    4.795305    0.195764
     21          6           0       -6.807241    3.386006    0.015999
     22          6           0       -3.835639    5.718139    0.483833
     23          6           0       -7.093710    6.059004    0.174883
     24          8           0       -8.303109    6.002303    0.094941
     25          6           0       -6.454568    7.366143    0.415381
     26          7           0       -8.015252    0.533942   -0.078654
     27          6           0       -8.702765    1.698727   -0.014556
     28          6           0      -10.187315    1.412450    0.189793
     29          6           0      -10.287544   -0.004099   -0.425900
     30          6           0       -8.875724   -0.414859   -0.278517
     31          6           0      -10.762318    1.500174    1.575537
     32          6           0      -10.917534   -0.169868   -1.860634
     33          6           0       -9.909179   -0.687298   -3.011310
     34          7           0       -6.096706   -1.593692   -0.163678
     35          6           0       -7.210633   -2.354373   -0.295852
     36          6           0       -6.833372   -3.764293   -0.396401
     37          6           0       -5.442528   -3.724995   -0.204994
     38          6           0       -5.066563   -2.411196   -0.073414
     39          6           0       -7.765229   -4.910648   -0.540762
     40          6           0       -4.239233   -4.636936   -0.004966
     41          8           0       -4.135514   -5.844775    0.092587
     42          6           0       -3.062407   -3.674152    0.183282
     43          6           0       -2.456935   -4.051784    1.485276
     44          8           0       -3.058908   -3.922990    2.580872
     45          8           0       -1.148736   -4.441565    1.383863
     46          6           0       -0.348785   -4.592510    2.594506
     47          6           0        4.117583   -2.529864   -1.452459
     48          6           0        5.100116   -1.678354   -0.609930
     49          6           0        6.422411   -1.822004   -0.453831
     50          6           0        7.228964   -2.709707   -1.285431
     51          6           0        7.210513   -1.036338    0.629891
     52          6           0        7.481099    0.485669    0.372004
     53          6           0        8.973233    0.970905    0.449135
     54          6           0        9.291975    1.986433   -0.642008
     55          6           0        8.498263    3.318442   -0.643263
     56          6           0        9.338716    1.353108   -2.021770
     57          6           0       10.764189    1.749102   -2.705346
     58          6           0       11.710090    0.528076   -2.601697
     59          6           0       13.125357    0.965811   -2.115451
     60          6           0       14.212460    0.746469   -3.216936
     61          6           0       13.567308    0.271214   -0.778011
     62          6           0       13.322257    1.173328    0.442403
     63          6           0       12.787856    0.454741    1.635004
     64          6           0       13.057963    0.948831    3.050079
     65          6           0       13.870316   -0.062721    3.775489
     66          6           0       11.845798    1.332504    3.838580
     67          1           0       -2.429654    3.211568    0.583236
     68          1           0       -8.833059    3.821416    0.040742
     69          1           0       -9.343202   -2.505019   -0.533086
     70          1           0       -1.213032   -1.317576    1.345799
     71          1           0       -0.905043    1.236649   -0.217213
     72          1           0        0.038960    1.905773    1.743120
     73          1           0       -0.452608    0.334865    2.379563
     74          1           0       -1.515139    1.726162    2.572159
     75          1           0       -0.502903   -0.551277   -1.466747
     76          1           0       -1.263559   -2.114624   -1.304041
     77          1           0        0.352839   -3.139516   -0.499751
     78          1           0        0.859366   -1.843579    0.575606
     79          1           0       -3.811661    6.366077   -0.391947
     80          1           0       -2.866269    5.246282    0.647063
     81          1           0       -4.048406    6.316790    1.369743
     82          1           0       -6.004530    7.310163    1.406610
     83          1           0       -7.210933    8.144748    0.316310
     84          1           0       -5.716875    7.514047   -0.373642
     85          1           0      -10.792651    2.073460   -0.429912
     86          1           0      -10.856144   -0.694280    0.196746
     87          1           0       -9.953022    1.310443    2.280228
     88          1           0      -11.488361    0.705608    1.744240
     89          1           0      -11.213910    2.489278    1.651870
     90          1           0      -11.305844    0.799475   -2.172152
     91          1           0      -11.723460   -0.892744   -1.727206
     92          1           0       -8.891908   -0.335172   -2.842480
     93          1           0      -10.302058   -0.509066   -4.012344
     94          1           0       -9.890073   -1.770637   -2.892653
     95          1           0       -7.275262   -5.765559   -1.005696
     96          1           0       -8.728861   -4.650436   -0.978572
     97          1           0       -7.964612   -5.168131    0.499530
     98          1           0       -2.345789   -3.711356   -0.637118
     99          1           0        0.098045   -5.586475    2.574526
    100          1           0       -0.906915   -4.550780    3.529997
    101          1           0        0.499269   -3.910892    2.653048
    102          1           0        4.125295   -2.009863   -2.410176
    103          1           0        4.459593   -3.563623   -1.501339
    104          1           0        4.618592   -0.940692    0.030704
    105          1           0        7.502715   -3.690399   -0.895030
    106          1           0        8.196644   -2.295390   -1.569633
    107          1           0        6.664970   -2.670062   -2.215937
    108          1           0        8.159929   -1.538834    0.817059
    109          1           0        6.686902   -1.105210    1.583512
    110          1           0        6.834305    1.136764    0.960541
    111          1           0        7.094746    0.779281   -0.603992
    112          1           0        9.654955    0.126601    0.557046
    113          1           0        9.162635    1.462009    1.402873
    114          1           0       10.281393    2.263874   -0.279147
    115          1           0        7.507097    3.191610   -0.208481
    116          1           0        8.395336    3.610111   -1.687892
    117          1           0        9.041336    4.076529   -0.078835
    118          1           0        8.577570    1.690754   -2.724007
    119          1           0        9.250890    0.271911   -1.909675
    120          1           0       11.202423    2.646855   -2.269860
    121          1           0       10.606808    1.903725   -3.772308
    122          1           0       11.836437   -0.078256   -3.498500
    123          1           0       11.230691   -0.102598   -1.852721
    124          1           0       13.148030    2.027874   -1.869772
    125          1           0       13.699127    0.909119   -4.164333
    126          1           0       14.589378   -0.276895   -3.211343
    127          1           0       15.062455    1.416433   -3.081672
    128          1           0       14.636799    0.087053   -0.877174
    129          1           0       13.069870   -0.699147   -0.787539
    130          1           0       12.627863    1.988533    0.242114
    131          1           0       14.307724    1.496803    0.776800
    132          1           0       13.182433   -0.558576    1.563369
    133          1           0       11.724093    0.254205    1.502472
    134          1           0       13.767030    1.766501    2.921275
    135          1           0       14.351883    0.350800    4.662048
    136          1           0       14.678924   -0.399371    3.126977
    137          1           0       13.273441   -0.885239    4.169100
    138          1           0       11.596195    0.566307    4.572978
    139          1           0       11.027181    1.468922    3.131696
    140          1           0       12.024049    2.242368    4.410345
 ---------------------------------------------------------------------

 SCF Done:  E(RZINDO/S) =  -474.594550220     A.U. after   19 cycles

 Excitation energies and oscillator strengths:

 Excited State   1:      Singlet-A      1.2754 eV  972.13 nm  f=0.5600  <S**2>=0.000
     175 ->178        -0.18865
     176 ->177         0.66366
 This state for optimization and/or second-order correction.
 Total Energy, E(CIS/TDA) =  -474.547680402
 Copying the excited state density for this state as the 1-particle RhoCI density.

 Excited State   2:      Singlet-A      1.9086 eV  649.61 nm  f=0.0069  <S**2>=0.000
     175 ->177         0.49801
     176 ->178         0.47683

 Excited State   3:      Singlet-A      2.9835 eV  415.56 nm  f=0.5292  <S**2>=0.000
     175 ->177         0.28405
     176 ->178        -0.25317
     176 ->179         0.47847
     176 ->181         0.23752
     176 ->182         0.13316

 Excited State   4:      Singlet-A      2.9952 eV  413.94 nm  f=0.8495  <S**2>=0.000
     175 ->177        -0.35600
     176 ->178         0.41818
     176 ->179         0.38367
     176 ->181         0.11319

 Excited State   5:      Singlet-A      3.0500 eV  406.51 nm  f=0.0189  <S**2>=0.000
     170 ->177         0.22472
     170 ->178        -0.11888
     170 ->179         0.24948
     170 ->181         0.31764
     170 ->182         0.34912
     170 ->185         0.19126
     170 ->187         0.21187
     170 ->201         0.10662

 The electronic state is 1-A.
 Alpha  occ. eigenvalues --   -1.88331  -1.84590  -1.77764  -1.74021  -1.72382
 Alpha  occ. eigenvalues --   -1.70657  -1.67093  -1.61962  -1.60705  -1.59577
 Alpha  occ. eigenvalues --   -1.56191  -1.51771  -1.49107  -1.48938  -1.45639
 Alpha  occ. eigenvalues --   -1.43293  -1.41974  -1.40755  -1.39462  -1.39121
 Alpha  occ. eigenvalues --   -1.36838  -1.35028  -1.33402  -1.31508  -1.29138
 Alpha  occ. eigenvalues --   -1.27581  -1.24895  -1.22224  -1.20975  -1.17994
 Alpha  occ. eigenvalues --   -1.16956  -1.16443  -1.15231  -1.14812  -1.13279
 Alpha  occ. eigenvalues --   -1.11708  -1.10061  -1.09785  -1.06579  -1.04584
 Alpha  occ. eigenvalues --   -1.03518  -1.01806  -1.00160  -0.98777  -0.97818
 Alpha  occ. eigenvalues --   -0.97734  -0.94933  -0.93904  -0.93080  -0.92337
 Alpha  occ. eigenvalues --   -0.91584  -0.89365  -0.88632  -0.88575  -0.85600
 Alpha  occ. eigenvalues --   -0.84392  -0.84062  -0.82663  -0.81692  -0.80463
 Alpha  occ. eigenvalues --   -0.80174  -0.79845  -0.77432  -0.77307  -0.76219
 Alpha  occ. eigenvalues --   -0.75929  -0.75444  -0.74833  -0.74577  -0.73674
 Alpha  occ. eigenvalues --   -0.73435  -0.72978  -0.72092  -0.71986  -0.70879
 Alpha  occ. eigenvalues --   -0.70854  -0.68973  -0.68820  -0.68090  -0.67914
 Alpha  occ. eigenvalues --   -0.67506  -0.67291  -0.66981  -0.66265  -0.65497
 Alpha  occ. eigenvalues --   -0.65453  -0.64695  -0.64297  -0.64217  -0.63884
 Alpha  occ. eigenvalues --   -0.63586  -0.63286  -0.62892  -0.62800  -0.62290
 Alpha  occ. eigenvalues --   -0.61590  -0.60855  -0.60654  -0.60525  -0.60184
 Alpha  occ. eigenvalues --   -0.59971  -0.59076  -0.58738  -0.58366  -0.58128
 Alpha  occ. eigenvalues --   -0.57963  -0.57024  -0.56900  -0.56717  -0.56624
 Alpha  occ. eigenvalues --   -0.56018  -0.55580  -0.55279  -0.54938  -0.54386
 Alpha  occ. eigenvalues --   -0.54349  -0.53936  -0.53741  -0.52882  -0.52580
 Alpha  occ. eigenvalues --   -0.52544  -0.52190  -0.51901  -0.51577  -0.51238
 Alpha  occ. eigenvalues --   -0.50755  -0.50659  -0.50491  -0.50390  -0.50247
 Alpha  occ. eigenvalues --   -0.50158  -0.49982  -0.49800  -0.49575  -0.49447
 Alpha  occ. eigenvalues --   -0.49188  -0.48865  -0.48431  -0.48275  -0.48159
 Alpha  occ. eigenvalues --   -0.47698  -0.47054  -0.46800  -0.46388  -0.46348
 Alpha  occ. eigenvalues --   -0.45923  -0.45770  -0.45061  -0.44972  -0.44878
 Alpha  occ. eigenvalues --   -0.44796  -0.44379  -0.44041  -0.43936  -0.43368
 Alpha  occ. eigenvalues --   -0.43230  -0.43104  -0.42454  -0.42251  -0.41718
 Alpha  occ. eigenvalues --   -0.41563  -0.41443  -0.40743  -0.38933  -0.38880
 Alpha  occ. eigenvalues --   -0.38285  -0.37134  -0.35842  -0.34626  -0.34189
 Alpha  occ. eigenvalues --   -0.33455  -0.32424  -0.32173  -0.32039  -0.26441
 Alpha  occ. eigenvalues --   -0.21115
 Alpha virt. eigenvalues --   -0.07738  -0.02018  -0.00350   0.00968   0.01464
 Alpha virt. eigenvalues --    0.02097   0.02729   0.03166   0.04460   0.04969
 Alpha virt. eigenvalues --    0.06608   0.06844   0.07482   0.07960   0.08288

 Mulliken charges:
               1
     1  Mg   0.424909
     2  C   -0.062445
     3  C   -0.072914
     4  C   -0.047708
     5  C   -0.096049
     6  N   -0.307203
     7  C    0.130473
     8  C    0.026813
     9  C   -0.000469
    10  C    0.090152
    11  C   -0.049374
    12  C   -0.016682
    13  C    0.006566
    14  C    0.466934
    15  O   -0.539866
    16  O   -0.262286
    17  N   -0.298728
    18  C    0.076086
    19  C    0.003866
    20  C   -0.059089
    21  C    0.092973
    22  C   -0.039147
    23  C    0.327772
    24  O   -0.530210
    25  C   -0.028651
    26  N   -0.244105
    27  C    0.101816
    28  C    0.008673
    29  C   -0.001887
    30  C    0.174559
    31  C   -0.044072
    32  C   -0.031843
    33  C   -0.061079
    34  N   -0.316271
    35  C    0.115726
    36  C    0.046514
    37  C   -0.056978
    38  C    0.146102
    39  C   -0.034215
    40  C    0.338595
    41  O   -0.501118
    42  C    0.067415
    43  C    0.495271
    44  O   -0.539212
    45  O   -0.267052
    46  C    0.076427
    47  C    0.106390
    48  C   -0.085391
    49  C   -0.004522
    50  C   -0.045398
    51  C   -0.023831
    52  C   -0.038433
    53  C   -0.032830
    54  C   -0.005758
    55  C   -0.055696
    56  C   -0.034649
    57  C   -0.046185
    58  C   -0.036397
    59  C   -0.026825
    60  C   -0.060583
    61  C   -0.038457
    62  C   -0.028325
    63  C   -0.036071
    64  C   -0.001335
    65  C   -0.049381
    66  C   -0.050600
    67  H    0.020488
    68  H    0.046617
    69  H    0.027199
    70  H    0.036321
    71  H    0.027874
    72  H    0.021647
    73  H    0.012893
    74  H    0.028517
    75  H    0.037457
    76  H    0.019703
    77  H    0.048297
    78  H    0.036657
    79  H    0.033072
    80  H    0.021640
    81  H    0.026776
    82  H    0.045314
    83  H    0.036078
    84  H    0.034148
    85  H    0.019573
    86  H    0.023868
    87  H    0.025464
    88  H    0.019081
    89  H    0.029265
    90  H    0.026266
    91  H    0.023355
    92  H    0.034784
    93  H    0.024832
    94  H    0.013109
    95  H    0.039470
    96  H    0.029687
    97  H    0.038880
    98  H    0.054446
    99  H    0.031970
   100  H    0.055622
   101  H    0.035128
   102  H    0.072515
   103  H    0.038641
   104  H    0.028871
   105  H    0.038184
   106  H    0.016353
   107  H    0.021409
   108  H    0.017650
   109  H    0.017393
   110  H    0.019482
   111  H    0.016458
   112  H    0.023984
   113  H    0.005205
   114  H    0.010223
   115  H    0.022608
   116  H    0.021242
   117  H    0.018984
   118  H    0.021508
   119  H    0.022334
   120  H    0.032918
   121  H    0.012063
   122  H    0.026475
   123  H    0.016735
   124  H    0.019063
   125  H    0.015085
   126  H    0.018153
   127  H    0.019389
   128  H    0.015361
   129  H    0.023072
   130  H    0.026480
   131  H    0.020165
   132  H    0.005696
   133  H    0.009135
   134  H    0.015066
   135  H    0.004606
   136  H    0.012904
   137  H    0.018317
   138  H    0.020247
   139  H    0.019369
   140  H    0.016445
 Sum of Mulliken charges =  -0.00000

 Dipole moment (field-independent basis, Debye):
    X=              3.2695    Y=              0.0771    Z=             -0.4501  Tot=              3.3013
 N-N= 4.296584998537D+03 E-N= 0.000000000000D+00  KE=-9.267755587859D+03
 Leave Link  601 at Sat Apr 30 01:00:31 2022, MaxMem=  6710886400 cpu:               0.8 elap:               0.1
 (Enter /sw/apps/gaussian-16.0/g16/l9999.exe)
 1\1\GINC-BP1-COMPUTE082\SP\RZINDO CIS\STO-3G\C55H74Mg1N4O6\OF15641\30-
 Apr-2022\0\\#p ZINDO=(nstates=5)\\step_51_chromophore_13 ZINDO\\0,1\Mg
 ,0,46.779,24.64,28.859\C,0,47.406,27.014,31.462\C,0,45.949,22.306,31.2
 86\C,0,46.662,22.281,26.442\C,0,48.037,26.885,26.621\N,0,46.723,24.679
 ,31.148\C,0,46.974,25.754,32.024\C,0,46.568,25.44,33.421\C,0,46.189,23
 .918,33.356\C,0,46.192,23.585,31.796\C,0,47.04,22.968,34.19\C,0,45.473
 ,26.302,33.959\C,0,45.65,26.841,35.379\C,0,44.573,26.768,36.445\O,0,43

 Normal termination of Gaussian 16 at Sat Apr 30 01:00:31 2022.
