 Gaussian 16, Revision A.03,
 Gaussian 16:  ES64L-G16RevA.03 25-Dec-2016

 ------------------------------
 #p blyp/Def2SVP td=(nstates=5)
 ------------------------------

 --------------------------------------------------
 step_1551_chromophore_9 TDDFT with blyp functional
 --------------------------------------------------
 Symbolic Z-matrix:
 Charge =  0 Multiplicity = 1

                         Standard orientation:
 ---------------------------------------------------------------------
 Center     Atomic      Atomic             Coordinates (Angstroms)
 Number     Number       Type             X           Y           Z
 ---------------------------------------------------------------------
      1         12           0       -4.856478    0.943067   -0.037742
      2          6           0       -4.039554   -2.457035    0.270798
      3          6           0       -1.459507    1.563229   -0.371017
      4          6           0       -5.561592    4.201022   -0.141152
      5          6           0       -8.273340    0.211518    0.735187
      6          7           0       -2.958899   -0.376235   -0.038624
      7          6           0       -2.857165   -1.754635   -0.030467
      8          6           0       -1.451165   -2.217890   -0.464402
      9          6           0       -0.672495   -0.884344   -0.374220
     10          6           0       -1.780516    0.188307   -0.354032
     11          6           0        0.263062   -0.696857    0.839595
     12          6           0       -1.472880   -2.944637   -1.876265
     13          6           0       -0.589012   -4.099526   -2.036019
     14          6           0        0.537314   -4.205374   -1.073448
     15          8           0        0.543277   -4.524752    0.129428
     16          8           0        1.702997   -3.996057   -1.772657
     17          7           0       -3.654501    2.591305   -0.077763
     18          6           0       -2.282118    2.701625   -0.193219
     19          6           0       -1.839311    4.100953   -0.306819
     20          6           0       -2.961829    4.858015   -0.362375
     21          6           0       -4.184721    3.836620   -0.267533
     22          6           0       -0.460613    4.610926   -0.575600
     23          6           0       -3.070675    6.364204   -0.527797
     24          8           0       -4.137827    6.938555   -0.601134
     25          6           0       -1.868496    7.315156   -0.353525
     26          7           0       -6.716618    2.082582    0.124211
     27          6           0       -6.656477    3.472085    0.159957
     28          6           0       -8.137199    3.964979    0.439999
     29          6           0       -8.998319    2.681708    0.609048
     30          6           0       -7.933477    1.616131    0.543511
     31          6           0       -8.198602    5.025698    1.597408
     32          6           0      -10.256415    2.460094   -0.331452
     33          6           0       -9.925050    2.015630   -1.835258
     34          7           0       -5.967606   -0.719235    0.438800
     35          6           0       -7.293591   -0.881629    0.796824
     36          6           0       -7.621496   -2.310803    1.021662
     37          6           0       -6.366662   -2.917267    0.715139
     38          6           0       -5.362885   -1.943645    0.469250
     39          6           0       -8.890769   -2.951813    1.382595
     40          6           0       -5.755608   -4.228479    0.556530
     41          8           0       -6.286424   -5.355933    0.749706
     42          6           0       -4.281913   -3.950473    0.244196
     43          6           0       -3.597805   -4.655603    1.416709
     44          8           0       -3.253510   -4.093689    2.448144
     45          8           0       -2.992257   -5.839927    1.020793
     46          6           0       -1.909217   -6.316248    1.883537
     47          6           0        2.940333   -4.174904   -1.067950
     48          6           0        3.873128   -3.117376   -1.607947
     49          6           0        5.165379   -2.799564   -1.240675
     50          6           0        5.960963   -3.444530   -0.094288
     51          6           0        5.718537   -1.563969   -1.888013
     52          6           0        6.379591   -1.735935   -3.291546
     53          6           0        7.936486   -1.441463   -3.325901
     54          6           0        8.233035    0.066879   -3.580309
     55          6           0        8.188801    0.274812   -5.113514
     56          6           0        9.558686    0.575369   -2.926152
     57          6           0        9.330900    1.517700   -1.713291
     58          6           0       10.558722    2.420997   -1.465354
     59          6           0       10.631603    2.823056    0.006742
     60          6           0       11.532999    4.057473    0.208999
     61          6           0       11.232741    1.642703    0.856276
     62          6           0       10.513282    1.250478    2.280475
     63          6           0       11.404734    0.410726    3.258221
     64          6           0       11.197456    0.809951    4.739292
     65          6           0       11.967713    2.067250    5.055298
     66          6           0       11.376378   -0.296011    5.702572
     67          1           0       -0.388527    1.673265   -0.551627
     68          1           0       -5.543102    5.288186   -0.050424
     69          1           0       -9.281548    0.043745    1.120765
     70          1           0       -1.288742   -2.906794    0.363926
     71          1           0       -0.020569   -0.783596   -1.242201
     72          1           0        0.455316   -1.626044    1.375807
     73          1           0       -0.191430    0.059147    1.480173
     74          1           0        1.250914   -0.287162    0.627352
     75          1           0       -1.251689   -2.207324   -2.647826
     76          1           0       -2.473786   -3.366305   -1.970030
     77          1           0       -0.245919   -4.127583   -3.069653
     78          1           0       -1.067521   -5.067944   -1.890348
     79          1           0        0.066142    3.671446   -0.740053
     80          1           0       -0.025519    5.147007    0.268234
     81          1           0       -0.448903    5.186938   -1.500395
     82          1           0       -1.193497    7.139224    0.483023
     83          1           0       -2.232004    8.338005   -0.264444
     84          1           0       -1.236079    7.399717   -1.238069
     85          1           0       -8.380438    4.456238   -0.501890
     86          1           0       -9.390990    2.626811    1.624331
     87          1           0       -8.286573    6.027953    1.177519
     88          1           0       -7.245282    4.982113    2.124702
     89          1           0       -9.107807    4.939831    2.191982
     90          1           0      -10.682819    3.451510   -0.483030
     91          1           0      -10.973644    1.762386    0.100886
     92          1           0       -8.852978    1.900310   -1.997777
     93          1           0      -10.416057    2.664058   -2.560484
     94          1           0      -10.259683    1.002152   -2.054102
     95          1           0       -9.754626   -2.287215    1.412072
     96          1           0       -8.704727   -3.422933    2.348084
     97          1           0       -9.072745   -3.700728    0.612782
     98          1           0       -3.848258   -4.476635   -0.606247
     99          1           0       -1.587262   -7.313615    1.581406
    100          1           0       -2.100430   -6.324223    2.956907
    101          1           0       -1.033716   -5.676929    1.771446
    102          1           0        3.345494   -5.136337   -1.382396
    103          1           0        2.869862   -3.997239    0.005440
    104          1           0        3.431625   -2.572477   -2.441842
    105          1           0        5.385001   -4.297912    0.263181
    106          1           0        6.075878   -2.684255    0.678811
    107          1           0        6.894910   -3.877334   -0.451876
    108          1           0        6.319193   -1.081647   -1.116797
    109          1           0        4.881824   -0.882774   -2.039373
    110          1           0        5.911588   -0.928305   -3.854539
    111          1           0        6.056299   -2.711461   -3.656352
    112          1           0        8.550209   -2.034604   -4.003661
    113          1           0        8.288818   -1.567105   -2.302373
    114          1           0        7.463338    0.696068   -3.133033
    115          1           0        8.586041   -0.495988   -5.774589
    116          1           0        8.975181    1.017035   -5.246194
    117          1           0        7.176669    0.495408   -5.451170
    118          1           0       10.027202    1.216576   -3.671962
    119          1           0       10.169068   -0.257368   -2.576119
    120          1           0        9.118792    0.923643   -0.824674
    121          1           0        8.487238    2.142339   -2.007854
    122          1           0       10.477745    3.312557   -2.088076
    123          1           0       11.488198    1.900984   -1.694227
    124          1           0        9.648635    3.089545    0.396304
    125          1           0       12.122058    4.009692    1.124348
    126          1           0       10.949802    4.952695    0.422692
    127          1           0       12.197025    4.419999   -0.575458
    128          1           0       12.271783    1.900977    1.058892
    129          1           0       11.108443    0.728076    0.275929
    130          1           0        9.647577    0.624667    2.063417
    131          1           0       10.097271    2.142450    2.748157
    132          1           0       12.414344    0.688271    2.954190
    133          1           0       11.192352   -0.644946    3.090995
    134          1           0       10.155604    1.116288    4.833486
    135          1           0       12.244216    2.809481    4.306394
    136          1           0       12.853075    1.728886    5.595244
    137          1           0       11.472303    2.651975    5.830079
    138          1           0       12.179747   -0.091348    6.410624
    139          1           0       11.658102   -1.259669    5.279041
    140          1           0       10.424830   -0.314846    6.233210
 ---------------------------------------------------------------------

 SCF Done:  E(RB-LYP) =  -3007.37114760     A.U. after   22 cycles

 Excitation energies and oscillator strengths:

 Excited State   1:      Singlet-A      1.7492 eV  708.80 nm  f=0.2650  <S**2>=0.000
     245 -> 248        0.18773
     246 -> 247        0.68459
     246 <- 247       -0.14945
 This state for optimization and/or second-order correction.
 Total Energy, E(TD-HF/TD-DFT) =  -3007.30686515
 Copying the excited state density for this state as the 1-particle RhoCI density.

 Excited State   2:      Singlet-A      1.8738 eV  661.67 nm  f=0.0122  <S**2>=0.000
     244 -> 247        0.67044
     245 -> 247       -0.20457

 Excited State   3:      Singlet-A      2.0600 eV  601.87 nm  f=0.0769  <S**2>=0.000
     244 -> 247        0.20438
     245 -> 247        0.59465
     246 -> 248       -0.27052
     246 -> 249        0.11152

 Excited State   4:      Singlet-A      2.1812 eV  568.41 nm  f=0.0012  <S**2>=0.000
     243 -> 247        0.70161

 Excited State   5:      Singlet-A      2.3615 eV  525.02 nm  f=0.0000  <S**2>=0.000
     241 -> 247        0.11475
     242 -> 247        0.69772

 The electronic state is 1-A.
 Alpha  occ. eigenvalues --  -46.27476 -18.83117 -18.80960 -18.78234 -18.76084
 Alpha  occ. eigenvalues --  -18.75882 -18.74923 -14.03074 -14.02773 -14.02233
 Alpha  occ. eigenvalues --  -14.00889 -10.05295 -10.03204 -10.00520  -9.99021
 Alpha  occ. eigenvalues --   -9.98273  -9.97021  -9.96597  -9.96423  -9.96378
 Alpha  occ. eigenvalues --   -9.96226  -9.96202  -9.95979  -9.95941  -9.94727
 Alpha  occ. eigenvalues --   -9.94317  -9.94289  -9.94155  -9.94024  -9.93992
 Alpha  occ. eigenvalues --   -9.93990  -9.93829  -9.93761  -9.93613  -9.93519
 Alpha  occ. eigenvalues --   -9.93421  -9.93344  -9.93271  -9.93124  -9.93121
 Alpha  occ. eigenvalues --   -9.93103  -9.93094  -9.92285  -9.92218  -9.92151
 Alpha  occ. eigenvalues --   -9.92100  -9.92073  -9.92044  -9.91957  -9.91923
 Alpha  occ. eigenvalues --   -9.91913  -9.91707  -9.91704  -9.91667  -9.91651
 Alpha  occ. eigenvalues --   -9.91577  -9.91575  -9.91538  -9.91390  -9.91348
 Alpha  occ. eigenvalues --   -9.91191  -9.90895  -9.90705  -9.90696  -9.90692
 Alpha  occ. eigenvalues --   -9.90684  -2.92034  -1.72463  -1.71920  -1.71744
 Alpha  occ. eigenvalues --   -0.99094  -0.96424  -0.92623  -0.90536  -0.88799
 Alpha  occ. eigenvalues --   -0.88339  -0.86144  -0.85296  -0.84941  -0.84180
 Alpha  occ. eigenvalues --   -0.75248  -0.74571  -0.73599  -0.73044  -0.72537
 Alpha  occ. eigenvalues --   -0.72309  -0.71392  -0.71254  -0.70898  -0.70319
 Alpha  occ. eigenvalues --   -0.69780  -0.69574  -0.68081  -0.67032  -0.66481
 Alpha  occ. eigenvalues --   -0.66153  -0.65513  -0.65120  -0.64518  -0.64296
 Alpha  occ. eigenvalues --   -0.64017  -0.62694  -0.62564  -0.61421  -0.60898
 Alpha  occ. eigenvalues --   -0.60692  -0.60315  -0.59775  -0.59524  -0.58909
 Alpha  occ. eigenvalues --   -0.58569  -0.57459  -0.56402  -0.56099  -0.54902
 Alpha  occ. eigenvalues --   -0.53978  -0.53737  -0.52865  -0.52527  -0.51619
 Alpha  occ. eigenvalues --   -0.51351  -0.50951  -0.50423  -0.50211  -0.49912
 Alpha  occ. eigenvalues --   -0.49807  -0.49350  -0.48657  -0.47402  -0.47002
 Alpha  occ. eigenvalues --   -0.46196  -0.45712  -0.45562  -0.44675  -0.44398
 Alpha  occ. eigenvalues --   -0.43740  -0.43556  -0.43361  -0.42803  -0.42628
 Alpha  occ. eigenvalues --   -0.42464  -0.41895  -0.41785  -0.41312  -0.41162
 Alpha  occ. eigenvalues --   -0.41005  -0.40791  -0.40559  -0.40357  -0.40293
 Alpha  occ. eigenvalues --   -0.39964  -0.39866  -0.39658  -0.39433  -0.39345
 Alpha  occ. eigenvalues --   -0.39130  -0.38998  -0.38679  -0.38454  -0.38335
 Alpha  occ. eigenvalues --   -0.38047  -0.37786  -0.37645  -0.37477  -0.37402
 Alpha  occ. eigenvalues --   -0.37351  -0.37181  -0.36847  -0.36782  -0.36540
 Alpha  occ. eigenvalues --   -0.36207  -0.36028  -0.35954  -0.35827  -0.35463
 Alpha  occ. eigenvalues --   -0.35325  -0.35213  -0.34783  -0.34638  -0.34483
 Alpha  occ. eigenvalues --   -0.34405  -0.34209  -0.33985  -0.33840  -0.33788
 Alpha  occ. eigenvalues --   -0.33380  -0.33322  -0.33176  -0.33083  -0.32688
 Alpha  occ. eigenvalues --   -0.32663  -0.32445  -0.32275  -0.32132  -0.31966
 Alpha  occ. eigenvalues --   -0.31956  -0.31909  -0.31844  -0.31597  -0.31317
 Alpha  occ. eigenvalues --   -0.31076  -0.31009  -0.30993  -0.30731  -0.30688
 Alpha  occ. eigenvalues --   -0.30302  -0.30239  -0.30149  -0.29875  -0.29641
 Alpha  occ. eigenvalues --   -0.29607  -0.29383  -0.29259  -0.28984  -0.28928
 Alpha  occ. eigenvalues --   -0.28903  -0.28745  -0.28729  -0.28494  -0.28264
 Alpha  occ. eigenvalues --   -0.27853  -0.27670  -0.27122  -0.26809  -0.26547
 Alpha  occ. eigenvalues --   -0.26297  -0.26052  -0.25873  -0.25615  -0.25516
 Alpha  occ. eigenvalues --   -0.25251  -0.24960  -0.24905  -0.23765  -0.23335
 Alpha  occ. eigenvalues --   -0.23222  -0.23158  -0.22456  -0.21468  -0.20768
 Alpha  occ. eigenvalues --   -0.19932  -0.19909  -0.19150  -0.18029  -0.17200
 Alpha  occ. eigenvalues --   -0.15356
 Alpha virt. eigenvalues --   -0.11232  -0.07075  -0.06291  -0.04775  -0.04453
 Alpha virt. eigenvalues --   -0.02840  -0.02721  -0.02123  -0.01155   0.00209
 Alpha virt. eigenvalues --    0.01192   0.01518   0.02122   0.02391   0.02821

 Mulliken charges:
               1
     1  Mg   0.695291
     2  C    0.065115
     3  C   -0.065583
     4  C   -0.027227
     5  C   -0.044686
     6  N   -0.189642
     7  C   -0.126759
     8  C    0.054433
     9  C   -0.003928
    10  C   -0.011557
    11  C    0.114378
    12  C    0.154818
    13  C    0.170723
    14  C    0.062043
    15  O   -0.205226
    16  O   -0.265724
    17  N   -0.301821
    18  C    0.163780
    19  C   -0.160278
    20  C    0.033780
    21  C    0.042861
    22  C    0.203573
    23  C   -0.053773
    24  O   -0.153595
    25  C    0.113486
    26  N   -0.241506
    27  C    0.066154
    28  C    0.018594
    29  C    0.075498
    30  C   -0.029388
    31  C    0.123084
    32  C    0.084364
    33  C    0.034208
    34  N   -0.285424
    35  C    0.093396
    36  C   -0.170077
    37  C    0.067859
    38  C    0.098471
    39  C    0.190002
    40  C   -0.025679
    41  O   -0.177600
    42  C   -0.001537
    43  C    0.131469
    44  O   -0.189809
    45  O   -0.275432
    46  C    0.212524
    47  C    0.336969
    48  C   -0.157292
    49  C   -0.171860
    50  C    0.147661
    51  C    0.111498
    52  C    0.120639
    53  C    0.121516
    54  C   -0.103454
    55  C    0.114630
    56  C    0.106233
    57  C    0.035524
    58  C    0.114504
    59  C   -0.044261
    60  C    0.102616
    61  C    0.068948
    62  C    0.019923
    63  C    0.119502
    64  C   -0.087559
    65  C    0.097893
    66  C    0.130397
    67  H   -0.061878
    68  H   -0.038785
    69  H   -0.051352
    70  H    0.006743
    71  H   -0.036846
    72  H    0.008773
    73  H   -0.002449
    74  H   -0.016604
    75  H   -0.012031
    76  H   -0.019149
    77  H   -0.010372
    78  H    0.006306
    79  H   -0.027641
    80  H    0.008921
    81  H    0.006982
    82  H    0.003070
    83  H   -0.011495
    84  H   -0.009073
    85  H   -0.015870
    86  H   -0.033364
    87  H   -0.009804
    88  H    0.006899
    89  H   -0.007881
    90  H   -0.015448
    91  H   -0.007179
    92  H    0.005557
    93  H   -0.003078
    94  H   -0.014902
    95  H   -0.019382
    96  H    0.020270
    97  H    0.014616
    98  H   -0.003162
    99  H    0.002600
   100  H    0.009922
   101  H    0.012939
   102  H    0.005847
   103  H    0.022652
   104  H   -0.028333
   105  H   -0.021148
   106  H    0.014822
   107  H    0.005605
   108  H   -0.038529
   109  H   -0.035032
   110  H   -0.035554
   111  H   -0.026691
   112  H   -0.025394
   113  H   -0.043648
   114  H   -0.044007
   115  H   -0.023741
   116  H   -0.035779
   117  H   -0.003388
   118  H   -0.035068
   119  H   -0.025199
   120  H   -0.018157
   121  H   -0.030700
   122  H   -0.032571
   123  H   -0.029201
   124  H   -0.039811
   125  H   -0.028008
   126  H   -0.035195
   127  H   -0.017537
   128  H   -0.019521
   129  H   -0.025868
   130  H   -0.032908
   131  H   -0.023756
   132  H   -0.033712
   133  H   -0.033284
   134  H   -0.037180
   135  H   -0.006096
   136  H   -0.029088
   137  H   -0.031198
   138  H   -0.028670
   139  H   -0.016543
   140  H   -0.011941
 Sum of Mulliken charges =  -0.00000

 Dipole moment (field-independent basis, Debye):
    X=              4.6141    Y=              2.6543    Z=             -2.9238  Tot=              6.0732
 Quadrupole moment (field-independent basis, Debye-Ang):
   XX=           -388.5588   YY=           -433.7709   ZZ=           -407.4041
   XY=            -23.8840   XZ=              6.5115   YZ=             14.8074

 Normal termination of Gaussian 16 at Wed May  4 10:32:50 2022.
