 Gaussian 16, Revision A.03,
 Gaussian 16:  ES64L-G16RevA.03 25-Dec-2016

 -----------------------------------
 #p cam-b3lyp/Def2SVP td=(nstates=5)
 -----------------------------------

 -------------------------------------------------------
 step_1551_chromophore_9 TDDFT with cam-b3lyp functional
 -------------------------------------------------------
 Symbolic Z-matrix:
 Charge =  0 Multiplicity = 1

                         Standard orientation:
 ---------------------------------------------------------------------
 Center     Atomic      Atomic             Coordinates (Angstroms)
 Number     Number       Type             X           Y           Z
 ---------------------------------------------------------------------
      1         12           0       -4.856478    0.943067   -0.037742
      2          6           0       -4.039554   -2.457035    0.270798
      3          6           0       -1.459507    1.563229   -0.371017
      4          6           0       -5.561592    4.201022   -0.141152
      5          6           0       -8.273340    0.211518    0.735187
      6          7           0       -2.958899   -0.376235   -0.038624
      7          6           0       -2.857165   -1.754635   -0.030467
      8          6           0       -1.451165   -2.217890   -0.464402
      9          6           0       -0.672495   -0.884344   -0.374220
     10          6           0       -1.780516    0.188307   -0.354032
     11          6           0        0.263062   -0.696857    0.839595
     12          6           0       -1.472880   -2.944637   -1.876265
     13          6           0       -0.589012   -4.099526   -2.036019
     14          6           0        0.537314   -4.205374   -1.073448
     15          8           0        0.543277   -4.524752    0.129428
     16          8           0        1.702997   -3.996057   -1.772657
     17          7           0       -3.654501    2.591305   -0.077763
     18          6           0       -2.282118    2.701625   -0.193219
     19          6           0       -1.839311    4.100953   -0.306819
     20          6           0       -2.961829    4.858015   -0.362375
     21          6           0       -4.184721    3.836620   -0.267533
     22          6           0       -0.460613    4.610926   -0.575600
     23          6           0       -3.070675    6.364204   -0.527797
     24          8           0       -4.137827    6.938555   -0.601134
     25          6           0       -1.868496    7.315156   -0.353525
     26          7           0       -6.716618    2.082582    0.124211
     27          6           0       -6.656477    3.472085    0.159957
     28          6           0       -8.137199    3.964979    0.439999
     29          6           0       -8.998319    2.681708    0.609048
     30          6           0       -7.933477    1.616131    0.543511
     31          6           0       -8.198602    5.025698    1.597408
     32          6           0      -10.256415    2.460094   -0.331452
     33          6           0       -9.925050    2.015630   -1.835258
     34          7           0       -5.967606   -0.719235    0.438800
     35          6           0       -7.293591   -0.881629    0.796824
     36          6           0       -7.621496   -2.310803    1.021662
     37          6           0       -6.366662   -2.917267    0.715139
     38          6           0       -5.362885   -1.943645    0.469250
     39          6           0       -8.890769   -2.951813    1.382595
     40          6           0       -5.755608   -4.228479    0.556530
     41          8           0       -6.286424   -5.355933    0.749706
     42          6           0       -4.281913   -3.950473    0.244196
     43          6           0       -3.597805   -4.655603    1.416709
     44          8           0       -3.253510   -4.093689    2.448144
     45          8           0       -2.992257   -5.839927    1.020793
     46          6           0       -1.909217   -6.316248    1.883537
     47          6           0        2.940333   -4.174904   -1.067950
     48          6           0        3.873128   -3.117376   -1.607947
     49          6           0        5.165379   -2.799564   -1.240675
     50          6           0        5.960963   -3.444530   -0.094288
     51          6           0        5.718537   -1.563969   -1.888013
     52          6           0        6.379591   -1.735935   -3.291546
     53          6           0        7.936486   -1.441463   -3.325901
     54          6           0        8.233035    0.066879   -3.580309
     55          6           0        8.188801    0.274812   -5.113514
     56          6           0        9.558686    0.575369   -2.926152
     57          6           0        9.330900    1.517700   -1.713291
     58          6           0       10.558722    2.420997   -1.465354
     59          6           0       10.631603    2.823056    0.006742
     60          6           0       11.532999    4.057473    0.208999
     61          6           0       11.232741    1.642703    0.856276
     62          6           0       10.513282    1.250478    2.280475
     63          6           0       11.404734    0.410726    3.258221
     64          6           0       11.197456    0.809951    4.739292
     65          6           0       11.967713    2.067250    5.055298
     66          6           0       11.376378   -0.296011    5.702572
     67          1           0       -0.388527    1.673265   -0.551627
     68          1           0       -5.543102    5.288186   -0.050424
     69          1           0       -9.281548    0.043745    1.120765
     70          1           0       -1.288742   -2.906794    0.363926
     71          1           0       -0.020569   -0.783596   -1.242201
     72          1           0        0.455316   -1.626044    1.375807
     73          1           0       -0.191430    0.059147    1.480173
     74          1           0        1.250914   -0.287162    0.627352
     75          1           0       -1.251689   -2.207324   -2.647826
     76          1           0       -2.473786   -3.366305   -1.970030
     77          1           0       -0.245919   -4.127583   -3.069653
     78          1           0       -1.067521   -5.067944   -1.890348
     79          1           0        0.066142    3.671446   -0.740053
     80          1           0       -0.025519    5.147007    0.268234
     81          1           0       -0.448903    5.186938   -1.500395
     82          1           0       -1.193497    7.139224    0.483023
     83          1           0       -2.232004    8.338005   -0.264444
     84          1           0       -1.236079    7.399717   -1.238069
     85          1           0       -8.380438    4.456238   -0.501890
     86          1           0       -9.390990    2.626811    1.624331
     87          1           0       -8.286573    6.027953    1.177519
     88          1           0       -7.245282    4.982113    2.124702
     89          1           0       -9.107807    4.939831    2.191982
     90          1           0      -10.682819    3.451510   -0.483030
     91          1           0      -10.973644    1.762386    0.100886
     92          1           0       -8.852978    1.900310   -1.997777
     93          1           0      -10.416057    2.664058   -2.560484
     94          1           0      -10.259683    1.002152   -2.054102
     95          1           0       -9.754626   -2.287215    1.412072
     96          1           0       -8.704727   -3.422933    2.348084
     97          1           0       -9.072745   -3.700728    0.612782
     98          1           0       -3.848258   -4.476635   -0.606247
     99          1           0       -1.587262   -7.313615    1.581406
    100          1           0       -2.100430   -6.324223    2.956907
    101          1           0       -1.033716   -5.676929    1.771446
    102          1           0        3.345494   -5.136337   -1.382396
    103          1           0        2.869862   -3.997239    0.005440
    104          1           0        3.431625   -2.572477   -2.441842
    105          1           0        5.385001   -4.297912    0.263181
    106          1           0        6.075878   -2.684255    0.678811
    107          1           0        6.894910   -3.877334   -0.451876
    108          1           0        6.319193   -1.081647   -1.116797
    109          1           0        4.881824   -0.882774   -2.039373
    110          1           0        5.911588   -0.928305   -3.854539
    111          1           0        6.056299   -2.711461   -3.656352
    112          1           0        8.550209   -2.034604   -4.003661
    113          1           0        8.288818   -1.567105   -2.302373
    114          1           0        7.463338    0.696068   -3.133033
    115          1           0        8.586041   -0.495988   -5.774589
    116          1           0        8.975181    1.017035   -5.246194
    117          1           0        7.176669    0.495408   -5.451170
    118          1           0       10.027202    1.216576   -3.671962
    119          1           0       10.169068   -0.257368   -2.576119
    120          1           0        9.118792    0.923643   -0.824674
    121          1           0        8.487238    2.142339   -2.007854
    122          1           0       10.477745    3.312557   -2.088076
    123          1           0       11.488198    1.900984   -1.694227
    124          1           0        9.648635    3.089545    0.396304
    125          1           0       12.122058    4.009692    1.124348
    126          1           0       10.949802    4.952695    0.422692
    127          1           0       12.197025    4.419999   -0.575458
    128          1           0       12.271783    1.900977    1.058892
    129          1           0       11.108443    0.728076    0.275929
    130          1           0        9.647577    0.624667    2.063417
    131          1           0       10.097271    2.142450    2.748157
    132          1           0       12.414344    0.688271    2.954190
    133          1           0       11.192352   -0.644946    3.090995
    134          1           0       10.155604    1.116288    4.833486
    135          1           0       12.244216    2.809481    4.306394
    136          1           0       12.853075    1.728886    5.595244
    137          1           0       11.472303    2.651975    5.830079
    138          1           0       12.179747   -0.091348    6.410624
    139          1           0       11.658102   -1.259669    5.279041
    140          1           0       10.424830   -0.314846    6.233210
 ---------------------------------------------------------------------

 SCF Done:  E(RCAM-B3LYP) =  -3007.15438869     A.U. after   17 cycles

 Excitation energies and oscillator strengths:

 Excited State   1:      Singlet-A      1.6627 eV  745.66 nm  f=0.3636  <S**2>=0.000
     245 -> 248        0.18097
     246 -> 247        0.68509
     245 <- 248        0.10905
 This state for optimization and/or second-order correction.
 Total Energy, E(TD-HF/TD-DFT) =  -3007.09328427
 Copying the excited state density for this state as the 1-particle RhoCI density.

 Excited State   2:      Singlet-A      2.2734 eV  545.37 nm  f=0.0782  <S**2>=0.000
     245 -> 247        0.61036
     246 -> 248       -0.34422

 Excited State   3:      Singlet-A      3.3756 eV  367.29 nm  f=0.1854  <S**2>=0.000
     244 -> 247        0.53759
     245 -> 247        0.17295
     246 -> 248        0.36355

 Excited State   4:      Singlet-A      3.3938 eV  365.32 nm  f=0.4396  <S**2>=0.000
     242 -> 247       -0.29574
     242 -> 249        0.19316
     242 -> 250        0.15552
     244 -> 247       -0.24228
     245 -> 247        0.26429
     246 -> 248        0.44995

 Excited State   5:      Singlet-A      3.5087 eV  353.37 nm  f=0.1569  <S**2>=0.000
     242 -> 247        0.45266
     242 -> 249       -0.22436
     242 -> 250       -0.17292
     244 -> 247       -0.34463
     245 -> 247        0.14357
     246 -> 248        0.20616

 The electronic state is 1-A.
 Alpha  occ. eigenvalues --  -46.89027 -19.25940 -19.23739 -19.21169 -19.19618
 Alpha  occ. eigenvalues --  -19.18904 -19.18077 -14.42129 -14.41423 -14.40980
 Alpha  occ. eigenvalues --  -14.39189 -10.40651 -10.38579 -10.36006 -10.34355
 Alpha  occ. eigenvalues --  -10.32199 -10.31956 -10.31028 -10.30988 -10.30813
 Alpha  occ. eigenvalues --  -10.30809 -10.30705 -10.30074 -10.29782 -10.28824
 Alpha  occ. eigenvalues --  -10.28683 -10.28379 -10.28374 -10.28359 -10.28188
 Alpha  occ. eigenvalues --  -10.28177 -10.27904 -10.27866 -10.27781 -10.27695
 Alpha  occ. eigenvalues --  -10.27539 -10.27514 -10.27417 -10.27408 -10.27108
 Alpha  occ. eigenvalues --  -10.26954 -10.26792 -10.26401 -10.26050 -10.26016
 Alpha  occ. eigenvalues --  -10.25984 -10.25884 -10.25668 -10.25645 -10.25637
 Alpha  occ. eigenvalues --  -10.25629 -10.25611 -10.25469 -10.25447 -10.25429
 Alpha  occ. eigenvalues --  -10.25292 -10.25180 -10.25094 -10.25082 -10.25077
 Alpha  occ. eigenvalues --  -10.24890 -10.24640 -10.24529 -10.24328 -10.24298
 Alpha  occ. eigenvalues --  -10.24236  -3.17489  -1.92395  -1.91937  -1.91798
 Alpha  occ. eigenvalues --   -1.17500  -1.14850  -1.11354  -1.08351  -1.07055
 Alpha  occ. eigenvalues --   -1.06143  -1.03974  -1.03065  -1.02395  -1.01590
 Alpha  occ. eigenvalues --   -0.92348  -0.91415  -0.90473  -0.89861  -0.89381
 Alpha  occ. eigenvalues --   -0.89273  -0.88032  -0.87968  -0.87482  -0.86831
 Alpha  occ. eigenvalues --   -0.86155  -0.85928  -0.84289  -0.83171  -0.82536
 Alpha  occ. eigenvalues --   -0.82152  -0.81493  -0.81279  -0.80499  -0.80236
 Alpha  occ. eigenvalues --   -0.79704  -0.78599  -0.78266  -0.76798  -0.76280
 Alpha  occ. eigenvalues --   -0.76085  -0.75625  -0.75113  -0.74764  -0.74162
 Alpha  occ. eigenvalues --   -0.73635  -0.72417  -0.71283  -0.70914  -0.69474
 Alpha  occ. eigenvalues --   -0.68746  -0.68360  -0.67297  -0.66925  -0.65861
 Alpha  occ. eigenvalues --   -0.65617  -0.65036  -0.64274  -0.64109  -0.63971
 Alpha  occ. eigenvalues --   -0.63651  -0.63328  -0.62542  -0.60967  -0.60623
 Alpha  occ. eigenvalues --   -0.59908  -0.59155  -0.59041  -0.58080  -0.57757
 Alpha  occ. eigenvalues --   -0.57149  -0.56941  -0.56854  -0.55854  -0.55666
 Alpha  occ. eigenvalues --   -0.55496  -0.55071  -0.54789  -0.54077  -0.53890
 Alpha  occ. eigenvalues --   -0.53839  -0.53755  -0.53319  -0.53087  -0.52958
 Alpha  occ. eigenvalues --   -0.52919  -0.52792  -0.52557  -0.51962  -0.51859
 Alpha  occ. eigenvalues --   -0.51658  -0.51365  -0.51271  -0.50984  -0.50606
 Alpha  occ. eigenvalues --   -0.50477  -0.50060  -0.49991  -0.49821  -0.49743
 Alpha  occ. eigenvalues --   -0.49667  -0.49449  -0.49357  -0.49043  -0.48829
 Alpha  occ. eigenvalues --   -0.48688  -0.48597  -0.48330  -0.47981  -0.47872
 Alpha  occ. eigenvalues --   -0.47591  -0.47420  -0.46778  -0.46509  -0.46385
 Alpha  occ. eigenvalues --   -0.46256  -0.46007  -0.45932  -0.45637  -0.45544
 Alpha  occ. eigenvalues --   -0.45085  -0.44977  -0.44815  -0.44759  -0.44470
 Alpha  occ. eigenvalues --   -0.44317  -0.44177  -0.43985  -0.43823  -0.43658
 Alpha  occ. eigenvalues --   -0.43546  -0.43458  -0.43408  -0.43320  -0.42938
 Alpha  occ. eigenvalues --   -0.42692  -0.42618  -0.42364  -0.42153  -0.41983
 Alpha  occ. eigenvalues --   -0.41904  -0.41582  -0.41500  -0.41064  -0.40947
 Alpha  occ. eigenvalues --   -0.40679  -0.40520  -0.40405  -0.40338  -0.40077
 Alpha  occ. eigenvalues --   -0.40024  -0.39926  -0.39839  -0.39639  -0.39530
 Alpha  occ. eigenvalues --   -0.38753  -0.38623  -0.37927  -0.37792  -0.37547
 Alpha  occ. eigenvalues --   -0.37326  -0.37011  -0.36562  -0.36387  -0.36248
 Alpha  occ. eigenvalues --   -0.36096  -0.35567  -0.35355  -0.35294  -0.34913
 Alpha  occ. eigenvalues --   -0.34157  -0.33202  -0.32566  -0.32047  -0.31652
 Alpha  occ. eigenvalues --   -0.30741  -0.30261  -0.29438  -0.28924  -0.23989
 Alpha  occ. eigenvalues --   -0.20525
 Alpha virt. eigenvalues --   -0.08253  -0.01866   0.00072   0.02063   0.02742
 Alpha virt. eigenvalues --    0.03398   0.04501   0.05269   0.06029   0.06500
 Alpha virt. eigenvalues --    0.07807   0.08152   0.08238   0.09057   0.09208

 Mulliken charges:
               1
     1  Mg   0.826602
     2  C    0.043743
     3  C   -0.083273
     4  C   -0.054132
     5  C   -0.053775
     6  N   -0.252523
     7  C   -0.080038
     8  C   -0.004108
     9  C   -0.057294
    10  C    0.007442
    11  C    0.056919
    12  C    0.099651
    13  C    0.100253
    14  C    0.143965
    15  O   -0.249670
    16  O   -0.330846
    17  N   -0.388148
    18  C    0.172822
    19  C   -0.159964
    20  C   -0.036443
    21  C    0.078605
    22  C    0.143998
    23  C    0.021408
    24  O   -0.192076
    25  C    0.031871
    26  N   -0.314401
    27  C    0.088045
    28  C   -0.034989
    29  C    0.016888
    30  C   -0.007570
    31  C    0.064240
    32  C    0.031924
    33  C   -0.024942
    34  N   -0.374101
    35  C    0.103450
    36  C   -0.173050
    37  C   -0.004364
    38  C    0.126364
    39  C    0.137470
    40  C    0.064701
    41  O   -0.216085
    42  C   -0.077539
    43  C    0.220878
    44  O   -0.224858
    45  O   -0.340118
    46  C    0.173798
    47  C    0.303570
    48  C   -0.176325
    49  C   -0.193358
    50  C    0.090659
    51  C    0.052486
    52  C    0.063342
    53  C    0.068135
    54  C   -0.158845
    55  C    0.058665
    56  C    0.052705
    57  C   -0.012288
    58  C    0.058104
    59  C   -0.102503
    60  C    0.042740
    61  C    0.018991
    62  C   -0.025831
    63  C    0.064600
    64  C   -0.146705
    65  C    0.037412
    66  C    0.065767
    67  H   -0.025979
    68  H   -0.000595
    69  H   -0.020454
    70  H    0.042638
    71  H   -0.001710
    72  H    0.034328
    73  H    0.024178
    74  H    0.007775
    75  H    0.018148
    76  H    0.011557
    77  H    0.027955
    78  H    0.037773
    79  H    0.000876
    80  H    0.037233
    81  H    0.034001
    82  H    0.031397
    83  H    0.025325
    84  H    0.020733
    85  H    0.018479
    86  H    0.003507
    87  H    0.014647
    88  H    0.031289
    89  H    0.016933
    90  H    0.011704
    91  H    0.019451
    92  H    0.026736
    93  H    0.019712
    94  H    0.009344
    95  H    0.005375
    96  H    0.045368
    97  H    0.039604
    98  H    0.039343
    99  H    0.025932
   100  H    0.034572
   101  H    0.034687
   102  H    0.032448
   103  H    0.051539
   104  H    0.004897
   105  H    0.002911
   106  H    0.037047
   107  H    0.029202
   108  H   -0.011195
   109  H   -0.003242
   110  H   -0.007937
   111  H    0.004284
   112  H    0.003735
   113  H   -0.016841
   114  H   -0.012895
   115  H    0.001226
   116  H   -0.011360
   117  H    0.019447
   118  H   -0.006290
   119  H    0.002118
   120  H    0.004419
   121  H   -0.002413
   122  H   -0.002962
   123  H   -0.000124
   124  H   -0.006715
   125  H   -0.004152
   126  H   -0.009297
   127  H    0.007926
   128  H    0.006528
   129  H    0.000007
   130  H   -0.006530
   131  H    0.000989
   132  H   -0.006087
   133  H   -0.004055
   134  H   -0.005293
   135  H    0.016552
   136  H   -0.005000
   137  H   -0.005075
   138  H   -0.003274
   139  H    0.009185
   140  H    0.012356
 Sum of Mulliken charges =  -0.00000

 Dipole moment (field-independent basis, Debye):
    X=              5.3272    Y=              3.6100    Z=             -3.1805  Tot=              7.1782
 Quadrupole moment (field-independent basis, Debye-Ang):
   XX=           -392.0030   YY=           -428.9254   ZZ=           -407.5490
   XY=            -25.1885   XZ=              7.3894   YZ=             15.1889

 Normal termination of Gaussian 16 at Wed May  4 09:36:11 2022.
