 Gaussian 16, Revision A.03,
 Gaussian 16:  ES64L-G16RevA.03 25-Dec-2016

 ---------------------------------
 #p PBE1PBE/Def2SVP td=(nstates=5)
 ---------------------------------

 -----------------------------------------------------
 step_1551_chromophore_9 TDDFT with PBE1PBE functional
 -----------------------------------------------------
 Symbolic Z-matrix:
 Charge =  0 Multiplicity = 1

                         Standard orientation:
 ---------------------------------------------------------------------
 Center     Atomic      Atomic             Coordinates (Angstroms)
 Number     Number       Type             X           Y           Z
 ---------------------------------------------------------------------
      1         12           0       -4.856478    0.943067   -0.037742
      2          6           0       -4.039554   -2.457035    0.270798
      3          6           0       -1.459507    1.563229   -0.371017
      4          6           0       -5.561592    4.201022   -0.141152
      5          6           0       -8.273340    0.211518    0.735187
      6          7           0       -2.958899   -0.376235   -0.038624
      7          6           0       -2.857165   -1.754635   -0.030467
      8          6           0       -1.451165   -2.217890   -0.464402
      9          6           0       -0.672495   -0.884344   -0.374220
     10          6           0       -1.780516    0.188307   -0.354032
     11          6           0        0.263062   -0.696857    0.839595
     12          6           0       -1.472880   -2.944637   -1.876265
     13          6           0       -0.589012   -4.099526   -2.036019
     14          6           0        0.537314   -4.205374   -1.073448
     15          8           0        0.543277   -4.524752    0.129428
     16          8           0        1.702997   -3.996057   -1.772657
     17          7           0       -3.654501    2.591305   -0.077763
     18          6           0       -2.282118    2.701625   -0.193219
     19          6           0       -1.839311    4.100953   -0.306819
     20          6           0       -2.961829    4.858015   -0.362375
     21          6           0       -4.184721    3.836620   -0.267533
     22          6           0       -0.460613    4.610926   -0.575600
     23          6           0       -3.070675    6.364204   -0.527797
     24          8           0       -4.137827    6.938555   -0.601134
     25          6           0       -1.868496    7.315156   -0.353525
     26          7           0       -6.716618    2.082582    0.124211
     27          6           0       -6.656477    3.472085    0.159957
     28          6           0       -8.137199    3.964979    0.439999
     29          6           0       -8.998319    2.681708    0.609048
     30          6           0       -7.933477    1.616131    0.543511
     31          6           0       -8.198602    5.025698    1.597408
     32          6           0      -10.256415    2.460094   -0.331452
     33          6           0       -9.925050    2.015630   -1.835258
     34          7           0       -5.967606   -0.719235    0.438800
     35          6           0       -7.293591   -0.881629    0.796824
     36          6           0       -7.621496   -2.310803    1.021662
     37          6           0       -6.366662   -2.917267    0.715139
     38          6           0       -5.362885   -1.943645    0.469250
     39          6           0       -8.890769   -2.951813    1.382595
     40          6           0       -5.755608   -4.228479    0.556530
     41          8           0       -6.286424   -5.355933    0.749706
     42          6           0       -4.281913   -3.950473    0.244196
     43          6           0       -3.597805   -4.655603    1.416709
     44          8           0       -3.253510   -4.093689    2.448144
     45          8           0       -2.992257   -5.839927    1.020793
     46          6           0       -1.909217   -6.316248    1.883537
     47          6           0        2.940333   -4.174904   -1.067950
     48          6           0        3.873128   -3.117376   -1.607947
     49          6           0        5.165379   -2.799564   -1.240675
     50          6           0        5.960963   -3.444530   -0.094288
     51          6           0        5.718537   -1.563969   -1.888013
     52          6           0        6.379591   -1.735935   -3.291546
     53          6           0        7.936486   -1.441463   -3.325901
     54          6           0        8.233035    0.066879   -3.580309
     55          6           0        8.188801    0.274812   -5.113514
     56          6           0        9.558686    0.575369   -2.926152
     57          6           0        9.330900    1.517700   -1.713291
     58          6           0       10.558722    2.420997   -1.465354
     59          6           0       10.631603    2.823056    0.006742
     60          6           0       11.532999    4.057473    0.208999
     61          6           0       11.232741    1.642703    0.856276
     62          6           0       10.513282    1.250478    2.280475
     63          6           0       11.404734    0.410726    3.258221
     64          6           0       11.197456    0.809951    4.739292
     65          6           0       11.967713    2.067250    5.055298
     66          6           0       11.376378   -0.296011    5.702572
     67          1           0       -0.388527    1.673265   -0.551627
     68          1           0       -5.543102    5.288186   -0.050424
     69          1           0       -9.281548    0.043745    1.120765
     70          1           0       -1.288742   -2.906794    0.363926
     71          1           0       -0.020569   -0.783596   -1.242201
     72          1           0        0.455316   -1.626044    1.375807
     73          1           0       -0.191430    0.059147    1.480173
     74          1           0        1.250914   -0.287162    0.627352
     75          1           0       -1.251689   -2.207324   -2.647826
     76          1           0       -2.473786   -3.366305   -1.970030
     77          1           0       -0.245919   -4.127583   -3.069653
     78          1           0       -1.067521   -5.067944   -1.890348
     79          1           0        0.066142    3.671446   -0.740053
     80          1           0       -0.025519    5.147007    0.268234
     81          1           0       -0.448903    5.186938   -1.500395
     82          1           0       -1.193497    7.139224    0.483023
     83          1           0       -2.232004    8.338005   -0.264444
     84          1           0       -1.236079    7.399717   -1.238069
     85          1           0       -8.380438    4.456238   -0.501890
     86          1           0       -9.390990    2.626811    1.624331
     87          1           0       -8.286573    6.027953    1.177519
     88          1           0       -7.245282    4.982113    2.124702
     89          1           0       -9.107807    4.939831    2.191982
     90          1           0      -10.682819    3.451510   -0.483030
     91          1           0      -10.973644    1.762386    0.100886
     92          1           0       -8.852978    1.900310   -1.997777
     93          1           0      -10.416057    2.664058   -2.560484
     94          1           0      -10.259683    1.002152   -2.054102
     95          1           0       -9.754626   -2.287215    1.412072
     96          1           0       -8.704727   -3.422933    2.348084
     97          1           0       -9.072745   -3.700728    0.612782
     98          1           0       -3.848258   -4.476635   -0.606247
     99          1           0       -1.587262   -7.313615    1.581406
    100          1           0       -2.100430   -6.324223    2.956907
    101          1           0       -1.033716   -5.676929    1.771446
    102          1           0        3.345494   -5.136337   -1.382396
    103          1           0        2.869862   -3.997239    0.005440
    104          1           0        3.431625   -2.572477   -2.441842
    105          1           0        5.385001   -4.297912    0.263181
    106          1           0        6.075878   -2.684255    0.678811
    107          1           0        6.894910   -3.877334   -0.451876
    108          1           0        6.319193   -1.081647   -1.116797
    109          1           0        4.881824   -0.882774   -2.039373
    110          1           0        5.911588   -0.928305   -3.854539
    111          1           0        6.056299   -2.711461   -3.656352
    112          1           0        8.550209   -2.034604   -4.003661
    113          1           0        8.288818   -1.567105   -2.302373
    114          1           0        7.463338    0.696068   -3.133033
    115          1           0        8.586041   -0.495988   -5.774589
    116          1           0        8.975181    1.017035   -5.246194
    117          1           0        7.176669    0.495408   -5.451170
    118          1           0       10.027202    1.216576   -3.671962
    119          1           0       10.169068   -0.257368   -2.576119
    120          1           0        9.118792    0.923643   -0.824674
    121          1           0        8.487238    2.142339   -2.007854
    122          1           0       10.477745    3.312557   -2.088076
    123          1           0       11.488198    1.900984   -1.694227
    124          1           0        9.648635    3.089545    0.396304
    125          1           0       12.122058    4.009692    1.124348
    126          1           0       10.949802    4.952695    0.422692
    127          1           0       12.197025    4.419999   -0.575458
    128          1           0       12.271783    1.900977    1.058892
    129          1           0       11.108443    0.728076    0.275929
    130          1           0        9.647577    0.624667    2.063417
    131          1           0       10.097271    2.142450    2.748157
    132          1           0       12.414344    0.688271    2.954190
    133          1           0       11.192352   -0.644946    3.090995
    134          1           0       10.155604    1.116288    4.833486
    135          1           0       12.244216    2.809481    4.306394
    136          1           0       12.853075    1.728886    5.595244
    137          1           0       11.472303    2.651975    5.830079
    138          1           0       12.179747   -0.091348    6.410624
    139          1           0       11.658102   -1.259669    5.279041
    140          1           0       10.424830   -0.314846    6.233210
 ---------------------------------------------------------------------

 SCF Done:  E(RPBE1PBE) =  -3005.34348821     A.U. after   15 cycles

 Excitation energies and oscillator strengths:

 Excited State   1:      Singlet-A      1.8105 eV  684.81 nm  f=0.3477  <S**2>=0.000
     245 -> 248        0.17413
     246 -> 247        0.69267
     246 <- 247       -0.10890
 This state for optimization and/or second-order correction.
 Total Energy, E(TD-HF/TD-DFT) =  -3005.27695376
 Copying the excited state density for this state as the 1-particle RhoCI density.

 Excited State   2:      Singlet-A      2.2778 eV  544.31 nm  f=0.0889  <S**2>=0.000
     245 -> 247        0.62712
     246 -> 248       -0.31176

 Excited State   3:      Singlet-A      2.9293 eV  423.25 nm  f=0.0026  <S**2>=0.000
     242 -> 247        0.37667
     242 -> 249       -0.14471
     242 -> 250       -0.10002
     244 -> 247        0.55747

 Excited State   4:      Singlet-A      3.0853 eV  401.85 nm  f=0.0158  <S**2>=0.000
     242 -> 247        0.51846
     244 -> 247       -0.39412
     246 -> 248       -0.22155

 Excited State   5:      Singlet-A      3.1797 eV  389.92 nm  f=0.3041  <S**2>=0.000
     242 -> 247        0.17732
     244 -> 247       -0.10678
     245 -> 247        0.24490
     246 -> 248        0.53121
     246 -> 249        0.29423
     246 -> 250       -0.12296

 The electronic state is 1-A.
 Alpha  occ. eigenvalues --  -46.92436 -19.26640 -19.24453 -19.21460 -19.19671
 Alpha  occ. eigenvalues --  -19.19174 -19.18403 -14.41530 -14.41090 -14.40517
 Alpha  occ. eigenvalues --  -14.38948 -10.37680 -10.35685 -10.32999 -10.31584
 Alpha  occ. eigenvalues --  -10.29595 -10.29484 -10.28864 -10.28586 -10.28555
 Alpha  occ. eigenvalues --  -10.28445 -10.28431 -10.28010 -10.27074 -10.26726
 Alpha  occ. eigenvalues --  -10.26232 -10.26142 -10.26081 -10.26021 -10.25930
 Alpha  occ. eigenvalues --  -10.25793 -10.25611 -10.25597 -10.25419 -10.25363
 Alpha  occ. eigenvalues --  -10.25303 -10.25100 -10.25002 -10.24850 -10.24832
 Alpha  occ. eigenvalues --  -10.24786 -10.24160 -10.23672 -10.23624 -10.23591
 Alpha  occ. eigenvalues --  -10.23579 -10.23576 -10.23349 -10.23191 -10.23174
 Alpha  occ. eigenvalues --  -10.23098 -10.23063 -10.23061 -10.23003 -10.22994
 Alpha  occ. eigenvalues --  -10.22833 -10.22811 -10.22654 -10.22627 -10.22582
 Alpha  occ. eigenvalues --  -10.22524 -10.22438 -10.21938 -10.21728 -10.21672
 Alpha  occ. eigenvalues --  -10.21603  -3.14481  -1.87328  -1.86848  -1.86713
 Alpha  occ. eigenvalues --   -1.12309  -1.09654  -1.05948  -1.03190  -1.01831
 Alpha  occ. eigenvalues --   -1.01015  -0.98515  -0.97609  -0.97134  -0.96301
 Alpha  occ. eigenvalues --   -0.86752  -0.85638  -0.84575  -0.83969  -0.83515
 Alpha  occ. eigenvalues --   -0.83386  -0.82240  -0.82149  -0.81779  -0.81131
 Alpha  occ. eigenvalues --   -0.80526  -0.80307  -0.78472  -0.77408  -0.76810
 Alpha  occ. eigenvalues --   -0.76471  -0.75653  -0.75402  -0.74633  -0.74417
 Alpha  occ. eigenvalues --   -0.74100  -0.72751  -0.72541  -0.71151  -0.70457
 Alpha  occ. eigenvalues --   -0.70180  -0.69989  -0.69244  -0.69118  -0.68323
 Alpha  occ. eigenvalues --   -0.67943  -0.66918  -0.65698  -0.65208  -0.63825
 Alpha  occ. eigenvalues --   -0.63073  -0.62622  -0.61835  -0.61163  -0.60288
 Alpha  occ. eigenvalues --   -0.59818  -0.59592  -0.58727  -0.58672  -0.58217
 Alpha  occ. eigenvalues --   -0.58074  -0.57472  -0.56750  -0.55584  -0.55055
 Alpha  occ. eigenvalues --   -0.54396  -0.53716  -0.53585  -0.52643  -0.52246
 Alpha  occ. eigenvalues --   -0.51729  -0.51421  -0.51320  -0.50351  -0.50313
 Alpha  occ. eigenvalues --   -0.49883  -0.49573  -0.49324  -0.48574  -0.48428
 Alpha  occ. eigenvalues --   -0.48328  -0.48202  -0.47822  -0.47598  -0.47482
 Alpha  occ. eigenvalues --   -0.47397  -0.47158  -0.47062  -0.46557  -0.46433
 Alpha  occ. eigenvalues --   -0.46183  -0.45888  -0.45831  -0.45522  -0.45138
 Alpha  occ. eigenvalues --   -0.45052  -0.44612  -0.44484  -0.44393  -0.44347
 Alpha  occ. eigenvalues --   -0.44266  -0.44027  -0.43932  -0.43649  -0.43397
 Alpha  occ. eigenvalues --   -0.43237  -0.43191  -0.42985  -0.42582  -0.42531
 Alpha  occ. eigenvalues --   -0.42218  -0.42097  -0.41484  -0.41184  -0.41122
 Alpha  occ. eigenvalues --   -0.40925  -0.40708  -0.40631  -0.40465  -0.40216
 Alpha  occ. eigenvalues --   -0.39908  -0.39639  -0.39557  -0.39397  -0.39268
 Alpha  occ. eigenvalues --   -0.39130  -0.38929  -0.38761  -0.38597  -0.38499
 Alpha  occ. eigenvalues --   -0.38382  -0.38234  -0.38135  -0.38068  -0.37696
 Alpha  occ. eigenvalues --   -0.37447  -0.37345  -0.37036  -0.36988  -0.36733
 Alpha  occ. eigenvalues --   -0.36676  -0.36483  -0.36212  -0.35974  -0.35824
 Alpha  occ. eigenvalues --   -0.35464  -0.35435  -0.35189  -0.35170  -0.34931
 Alpha  occ. eigenvalues --   -0.34802  -0.34716  -0.34671  -0.34585  -0.34360
 Alpha  occ. eigenvalues --   -0.33608  -0.33552  -0.32813  -0.32688  -0.32348
 Alpha  occ. eigenvalues --   -0.32293  -0.31805  -0.31613  -0.31412  -0.31112
 Alpha  occ. eigenvalues --   -0.30969  -0.30423  -0.30357  -0.30212  -0.29826
 Alpha  occ. eigenvalues --   -0.29408  -0.28431  -0.27711  -0.27605  -0.26402
 Alpha  occ. eigenvalues --   -0.26253  -0.25231  -0.24749  -0.24616  -0.20909
 Alpha  occ. eigenvalues --   -0.18220
 Alpha virt. eigenvalues --   -0.10772  -0.05383  -0.04105  -0.02275  -0.01272
 Alpha virt. eigenvalues --   -0.00050   0.00231   0.00635   0.01599   0.03177
 Alpha virt. eigenvalues --    0.03705   0.04484   0.04984   0.05373   0.05792

 Mulliken charges:
               1
     1  Mg   0.976018
     2  C    0.031636
     3  C   -0.084194
     4  C   -0.049679
     5  C   -0.040516
     6  N   -0.352460
     7  C    0.001337
     8  C   -0.083513
     9  C   -0.134216
    10  C    0.049659
    11  C    0.003744
    12  C    0.045694
    13  C    0.027738
    14  C    0.211327
    15  O   -0.285687
    16  O   -0.363467
    17  N   -0.501497
    18  C    0.193485
    19  C   -0.182733
    20  C   -0.085035
    21  C    0.112402
    22  C    0.078214
    23  C    0.070159
    24  O   -0.229162
    25  C   -0.042397
    26  N   -0.409018
    27  C    0.111371
    28  C   -0.107953
    29  C   -0.054054
    30  C    0.027757
    31  C    0.004084
    32  C   -0.034572
    33  C   -0.095384
    34  N   -0.499757
    35  C    0.128469
    36  C   -0.192552
    37  C   -0.046991
    38  C    0.171927
    39  C    0.080464
    40  C    0.147514
    41  O   -0.259761
    42  C   -0.188271
    43  C    0.314196
    44  O   -0.255940
    45  O   -0.372560
    46  C    0.116177
    47  C    0.264763
    48  C   -0.186260
    49  C   -0.233484
    50  C    0.025110
    51  C   -0.009747
    52  C    0.000341
    53  C    0.007359
    54  C   -0.242201
    55  C    0.003085
    56  C   -0.003875
    57  C   -0.076415
    58  C    0.001283
    59  C   -0.190387
    60  C   -0.013819
    61  C   -0.036686
    62  C   -0.083511
    63  C    0.005200
    64  C   -0.241917
    65  C   -0.022694
    66  C    0.007856
    67  H    0.005575
    68  H    0.033052
    69  H    0.011362
    70  H    0.085263
    71  H    0.034838
    72  H    0.060713
    73  H    0.053017
    74  H    0.034560
    75  H    0.049652
    76  H    0.047324
    77  H    0.059934
    78  H    0.069383
    79  H    0.031894
    80  H    0.063960
    81  H    0.061321
    82  H    0.057299
    83  H    0.052492
    84  H    0.047164
    85  H    0.056709
    86  H    0.042306
    87  H    0.042283
    88  H    0.059386
    89  H    0.043828
    90  H    0.046173
    91  H    0.049913
    92  H    0.056357
    93  H    0.047277
    94  H    0.037327
    95  H    0.033043
    96  H    0.073752
    97  H    0.067767
    98  H    0.076703
    99  H    0.048690
   100  H    0.056903
   101  H    0.060677
   102  H    0.060111
   103  H    0.076746
   104  H    0.034297
   105  H    0.031169
   106  H    0.063597
   107  H    0.057154
   108  H    0.020587
   109  H    0.029406
   110  H    0.025642
   111  H    0.036588
   112  H    0.035315
   113  H    0.019045
   114  H    0.025369
   115  H    0.028135
   116  H    0.016445
   117  H    0.045851
   118  H    0.027308
   119  H    0.034257
   120  H    0.038085
   121  H    0.031321
   122  H    0.030269
   123  H    0.032580
   124  H    0.030599
   125  H    0.023641
   126  H    0.019294
   127  H    0.034344
   128  H    0.037434
   129  H    0.033994
   130  H    0.026857
   131  H    0.032448
   132  H    0.027993
   133  H    0.028010
   134  H    0.033567
   135  H    0.043227
   136  H    0.023087
   137  H    0.023682
   138  H    0.023551
   139  H    0.035768
   140  H    0.039319
 Sum of Mulliken charges =  -0.00000

 Dipole moment (field-independent basis, Debye):
    X=              5.0092    Y=              3.3336    Z=             -3.0945  Tot=              6.7661
 Quadrupole moment (field-independent basis, Debye-Ang):
   XX=           -383.6203   YY=           -426.7355   ZZ=           -404.9317
   XY=            -24.6628   XZ=              7.0308   YZ=             15.1039

 Normal termination of Gaussian 16 at Wed May  4 09:57:01 2022.
