 Gaussian 16, Revision A.03,
 Gaussian 16:  ES64L-G16RevA.03 25-Dec-2016

 --------------------------------
 #p wB97XD/Def2SVP td=(nstates=5)
 --------------------------------

 ----------------------------------------------------
 step_1551_chromophore_9 TDDFT with wB97XD functional
 ----------------------------------------------------
 Symbolic Z-matrix:
 Charge =  0 Multiplicity = 1

                         Standard orientation:
 ---------------------------------------------------------------------
 Center     Atomic      Atomic             Coordinates (Angstroms)
 Number     Number       Type             X           Y           Z
 ---------------------------------------------------------------------
      1         12           0       -4.856478    0.943067   -0.037742
      2          6           0       -4.039554   -2.457035    0.270798
      3          6           0       -1.459507    1.563229   -0.371017
      4          6           0       -5.561592    4.201022   -0.141152
      5          6           0       -8.273340    0.211518    0.735187
      6          7           0       -2.958899   -0.376235   -0.038624
      7          6           0       -2.857165   -1.754635   -0.030467
      8          6           0       -1.451165   -2.217890   -0.464402
      9          6           0       -0.672495   -0.884344   -0.374220
     10          6           0       -1.780516    0.188307   -0.354032
     11          6           0        0.263062   -0.696857    0.839595
     12          6           0       -1.472880   -2.944637   -1.876265
     13          6           0       -0.589012   -4.099526   -2.036019
     14          6           0        0.537314   -4.205374   -1.073448
     15          8           0        0.543277   -4.524752    0.129428
     16          8           0        1.702997   -3.996057   -1.772657
     17          7           0       -3.654501    2.591305   -0.077763
     18          6           0       -2.282118    2.701625   -0.193219
     19          6           0       -1.839311    4.100953   -0.306819
     20          6           0       -2.961829    4.858015   -0.362375
     21          6           0       -4.184721    3.836620   -0.267533
     22          6           0       -0.460613    4.610926   -0.575600
     23          6           0       -3.070675    6.364204   -0.527797
     24          8           0       -4.137827    6.938555   -0.601134
     25          6           0       -1.868496    7.315156   -0.353525
     26          7           0       -6.716618    2.082582    0.124211
     27          6           0       -6.656477    3.472085    0.159957
     28          6           0       -8.137199    3.964979    0.439999
     29          6           0       -8.998319    2.681708    0.609048
     30          6           0       -7.933477    1.616131    0.543511
     31          6           0       -8.198602    5.025698    1.597408
     32          6           0      -10.256415    2.460094   -0.331452
     33          6           0       -9.925050    2.015630   -1.835258
     34          7           0       -5.967606   -0.719235    0.438800
     35          6           0       -7.293591   -0.881629    0.796824
     36          6           0       -7.621496   -2.310803    1.021662
     37          6           0       -6.366662   -2.917267    0.715139
     38          6           0       -5.362885   -1.943645    0.469250
     39          6           0       -8.890769   -2.951813    1.382595
     40          6           0       -5.755608   -4.228479    0.556530
     41          8           0       -6.286424   -5.355933    0.749706
     42          6           0       -4.281913   -3.950473    0.244196
     43          6           0       -3.597805   -4.655603    1.416709
     44          8           0       -3.253510   -4.093689    2.448144
     45          8           0       -2.992257   -5.839927    1.020793
     46          6           0       -1.909217   -6.316248    1.883537
     47          6           0        2.940333   -4.174904   -1.067950
     48          6           0        3.873128   -3.117376   -1.607947
     49          6           0        5.165379   -2.799564   -1.240675
     50          6           0        5.960963   -3.444530   -0.094288
     51          6           0        5.718537   -1.563969   -1.888013
     52          6           0        6.379591   -1.735935   -3.291546
     53          6           0        7.936486   -1.441463   -3.325901
     54          6           0        8.233035    0.066879   -3.580309
     55          6           0        8.188801    0.274812   -5.113514
     56          6           0        9.558686    0.575369   -2.926152
     57          6           0        9.330900    1.517700   -1.713291
     58          6           0       10.558722    2.420997   -1.465354
     59          6           0       10.631603    2.823056    0.006742
     60          6           0       11.532999    4.057473    0.208999
     61          6           0       11.232741    1.642703    0.856276
     62          6           0       10.513282    1.250478    2.280475
     63          6           0       11.404734    0.410726    3.258221
     64          6           0       11.197456    0.809951    4.739292
     65          6           0       11.967713    2.067250    5.055298
     66          6           0       11.376378   -0.296011    5.702572
     67          1           0       -0.388527    1.673265   -0.551627
     68          1           0       -5.543102    5.288186   -0.050424
     69          1           0       -9.281548    0.043745    1.120765
     70          1           0       -1.288742   -2.906794    0.363926
     71          1           0       -0.020569   -0.783596   -1.242201
     72          1           0        0.455316   -1.626044    1.375807
     73          1           0       -0.191430    0.059147    1.480173
     74          1           0        1.250914   -0.287162    0.627352
     75          1           0       -1.251689   -2.207324   -2.647826
     76          1           0       -2.473786   -3.366305   -1.970030
     77          1           0       -0.245919   -4.127583   -3.069653
     78          1           0       -1.067521   -5.067944   -1.890348
     79          1           0        0.066142    3.671446   -0.740053
     80          1           0       -0.025519    5.147007    0.268234
     81          1           0       -0.448903    5.186938   -1.500395
     82          1           0       -1.193497    7.139224    0.483023
     83          1           0       -2.232004    8.338005   -0.264444
     84          1           0       -1.236079    7.399717   -1.238069
     85          1           0       -8.380438    4.456238   -0.501890
     86          1           0       -9.390990    2.626811    1.624331
     87          1           0       -8.286573    6.027953    1.177519
     88          1           0       -7.245282    4.982113    2.124702
     89          1           0       -9.107807    4.939831    2.191982
     90          1           0      -10.682819    3.451510   -0.483030
     91          1           0      -10.973644    1.762386    0.100886
     92          1           0       -8.852978    1.900310   -1.997777
     93          1           0      -10.416057    2.664058   -2.560484
     94          1           0      -10.259683    1.002152   -2.054102
     95          1           0       -9.754626   -2.287215    1.412072
     96          1           0       -8.704727   -3.422933    2.348084
     97          1           0       -9.072745   -3.700728    0.612782
     98          1           0       -3.848258   -4.476635   -0.606247
     99          1           0       -1.587262   -7.313615    1.581406
    100          1           0       -2.100430   -6.324223    2.956907
    101          1           0       -1.033716   -5.676929    1.771446
    102          1           0        3.345494   -5.136337   -1.382396
    103          1           0        2.869862   -3.997239    0.005440
    104          1           0        3.431625   -2.572477   -2.441842
    105          1           0        5.385001   -4.297912    0.263181
    106          1           0        6.075878   -2.684255    0.678811
    107          1           0        6.894910   -3.877334   -0.451876
    108          1           0        6.319193   -1.081647   -1.116797
    109          1           0        4.881824   -0.882774   -2.039373
    110          1           0        5.911588   -0.928305   -3.854539
    111          1           0        6.056299   -2.711461   -3.656352
    112          1           0        8.550209   -2.034604   -4.003661
    113          1           0        8.288818   -1.567105   -2.302373
    114          1           0        7.463338    0.696068   -3.133033
    115          1           0        8.586041   -0.495988   -5.774589
    116          1           0        8.975181    1.017035   -5.246194
    117          1           0        7.176669    0.495408   -5.451170
    118          1           0       10.027202    1.216576   -3.671962
    119          1           0       10.169068   -0.257368   -2.576119
    120          1           0        9.118792    0.923643   -0.824674
    121          1           0        8.487238    2.142339   -2.007854
    122          1           0       10.477745    3.312557   -2.088076
    123          1           0       11.488198    1.900984   -1.694227
    124          1           0        9.648635    3.089545    0.396304
    125          1           0       12.122058    4.009692    1.124348
    126          1           0       10.949802    4.952695    0.422692
    127          1           0       12.197025    4.419999   -0.575458
    128          1           0       12.271783    1.900977    1.058892
    129          1           0       11.108443    0.728076    0.275929
    130          1           0        9.647577    0.624667    2.063417
    131          1           0       10.097271    2.142450    2.748157
    132          1           0       12.414344    0.688271    2.954190
    133          1           0       11.192352   -0.644946    3.090995
    134          1           0       10.155604    1.116288    4.833486
    135          1           0       12.244216    2.809481    4.306394
    136          1           0       12.853075    1.728886    5.595244
    137          1           0       11.472303    2.651975    5.830079
    138          1           0       12.179747   -0.091348    6.410624
    139          1           0       11.658102   -1.259669    5.279041
    140          1           0       10.424830   -0.314846    6.233210
 ---------------------------------------------------------------------

 SCF Done:  E(RwB97XD) =  -3007.85177099     A.U. after   18 cycles

 Excitation energies and oscillator strengths:

 Excited State   1:      Singlet-A      1.6057 eV  772.13 nm  f=0.3618  <S**2>=0.000
     245 -> 248        0.18677
     246 -> 247        0.68277
     245 <- 248        0.11871
 This state for optimization and/or second-order correction.
 Total Energy, E(TD-HF/TD-DFT) =  -3007.79276094
 Copying the excited state density for this state as the 1-particle RhoCI density.

 Excited State   2:      Singlet-A      2.2199 eV  558.52 nm  f=0.0756  <S**2>=0.000
     245 -> 247        0.60891
     246 -> 248       -0.34593

 Excited State   3:      Singlet-A      3.3980 eV  364.88 nm  f=0.3338  <S**2>=0.000
     244 -> 247        0.46945
     245 -> 247        0.22398
     246 -> 248        0.45063

 Excited State   4:      Singlet-A      3.4221 eV  362.31 nm  f=0.3189  <S**2>=0.000
     242 -> 247       -0.31358
     242 -> 249        0.22676
     242 -> 250        0.19201
     244 -> 247       -0.32652
     245 -> 247        0.22106
     246 -> 248        0.35638

 Excited State   5:      Singlet-A      3.5435 eV  349.89 nm  f=0.1931  <S**2>=0.000
     242 -> 247        0.43251
     242 -> 249       -0.22569
     242 -> 250       -0.17370
     244 -> 247       -0.35365
     245 -> 247        0.15578
     246 -> 248        0.21695

 The electronic state is 1-A.
 Alpha  occ. eigenvalues --  -46.95356 -19.31165 -19.28982 -19.26092 -19.24664
 Alpha  occ. eigenvalues --  -19.23844 -19.23134 -14.46752 -14.45995 -14.45595
 Alpha  occ. eigenvalues --  -14.43768 -10.44444 -10.42450 -10.40009 -10.38370
 Alpha  occ. eigenvalues --  -10.36081 -10.36061 -10.35127 -10.35008 -10.34876
 Alpha  occ. eigenvalues --  -10.34852 -10.34690 -10.34085 -10.33549 -10.32840
 Alpha  occ. eigenvalues --  -10.32803 -10.32519 -10.32461 -10.32425 -10.32234
 Alpha  occ. eigenvalues --  -10.32133 -10.31998 -10.31819 -10.31773 -10.31765
 Alpha  occ. eigenvalues --  -10.31624 -10.31510 -10.31429 -10.31429 -10.31044
 Alpha  occ. eigenvalues --  -10.30986 -10.30614 -10.30306 -10.29997 -10.29977
 Alpha  occ. eigenvalues --  -10.29966 -10.29883 -10.29697 -10.29578 -10.29499
 Alpha  occ. eigenvalues --  -10.29481 -10.29440 -10.29437 -10.29387 -10.29379
 Alpha  occ. eigenvalues --  -10.29228 -10.29106 -10.29029 -10.29017 -10.28903
 Alpha  occ. eigenvalues --  -10.28812 -10.28675 -10.28383 -10.28166 -10.28115
 Alpha  occ. eigenvalues --  -10.28033  -3.21269  -1.94863  -1.94381  -1.94248
 Alpha  occ. eigenvalues --   -1.19662  -1.17018  -1.13597  -1.10516  -1.09266
 Alpha  occ. eigenvalues --   -1.08351  -1.05988  -1.05114  -1.04386  -1.03597
 Alpha  occ. eigenvalues --   -0.94328  -0.93268  -0.92260  -0.91647  -0.91359
 Alpha  occ. eigenvalues --   -0.91048  -0.89907  -0.89825  -0.89370  -0.88726
 Alpha  occ. eigenvalues --   -0.88066  -0.87839  -0.86142  -0.85057  -0.84436
 Alpha  occ. eigenvalues --   -0.84039  -0.83363  -0.83161  -0.82397  -0.82100
 Alpha  occ. eigenvalues --   -0.81661  -0.80585  -0.80167  -0.78693  -0.78131
 Alpha  occ. eigenvalues --   -0.77872  -0.77566  -0.76939  -0.76699  -0.76007
 Alpha  occ. eigenvalues --   -0.75554  -0.74404  -0.73248  -0.72829  -0.71367
 Alpha  occ. eigenvalues --   -0.70742  -0.70262  -0.69311  -0.68806  -0.67823
 Alpha  occ. eigenvalues --   -0.67482  -0.67047  -0.66208  -0.66081  -0.65788
 Alpha  occ. eigenvalues --   -0.65617  -0.65146  -0.64389  -0.62959  -0.62546
 Alpha  occ. eigenvalues --   -0.61933  -0.61096  -0.61031  -0.60044  -0.59705
 Alpha  occ. eigenvalues --   -0.59143  -0.58903  -0.58764  -0.57773  -0.57633
 Alpha  occ. eigenvalues --   -0.57384  -0.57021  -0.56712  -0.55992  -0.55811
 Alpha  occ. eigenvalues --   -0.55732  -0.55661  -0.55219  -0.54972  -0.54877
 Alpha  occ. eigenvalues --   -0.54849  -0.54750  -0.54451  -0.53839  -0.53805
 Alpha  occ. eigenvalues --   -0.53546  -0.53240  -0.53160  -0.52872  -0.52500
 Alpha  occ. eigenvalues --   -0.52396  -0.51978  -0.51953  -0.51724  -0.51647
 Alpha  occ. eigenvalues --   -0.51568  -0.51375  -0.51272  -0.50982  -0.50712
 Alpha  occ. eigenvalues --   -0.50627  -0.50500  -0.50314  -0.49898  -0.49797
 Alpha  occ. eigenvalues --   -0.49533  -0.49352  -0.48683  -0.48394  -0.48284
 Alpha  occ. eigenvalues --   -0.48132  -0.47913  -0.47853  -0.47545  -0.47426
 Alpha  occ. eigenvalues --   -0.47001  -0.46853  -0.46699  -0.46654  -0.46402
 Alpha  occ. eigenvalues --   -0.46267  -0.46104  -0.45910  -0.45729  -0.45551
 Alpha  occ. eigenvalues --   -0.45471  -0.45334  -0.45299  -0.45227  -0.44832
 Alpha  occ. eigenvalues --   -0.44697  -0.44494  -0.44223  -0.44101  -0.43892
 Alpha  occ. eigenvalues --   -0.43826  -0.43502  -0.43349  -0.42990  -0.42857
 Alpha  occ. eigenvalues --   -0.42556  -0.42440  -0.42310  -0.42268  -0.42000
 Alpha  occ. eigenvalues --   -0.41887  -0.41776  -0.41739  -0.41503  -0.41405
 Alpha  occ. eigenvalues --   -0.40617  -0.40498  -0.39764  -0.39698  -0.39396
 Alpha  occ. eigenvalues --   -0.39304  -0.38854  -0.38644  -0.38397  -0.38078
 Alpha  occ. eigenvalues --   -0.37945  -0.37431  -0.37262  -0.37199  -0.36858
 Alpha  occ. eigenvalues --   -0.36128  -0.35254  -0.34679  -0.34287  -0.33621
 Alpha  occ. eigenvalues --   -0.32959  -0.32217  -0.31476  -0.31064  -0.25908
 Alpha  occ. eigenvalues --   -0.22325
 Alpha virt. eigenvalues --   -0.06602   0.00043   0.02111   0.04181   0.05513
 Alpha virt. eigenvalues --    0.06066   0.06869   0.07458   0.08331   0.09466
 Alpha virt. eigenvalues --    0.10199   0.11280   0.11654   0.12156   0.12640

 Mulliken charges:
               1
     1  Mg   0.965142
     2  C    0.034790
     3  C   -0.096510
     4  C   -0.066295
     5  C   -0.060754
     6  N   -0.317341
     7  C   -0.035620
     8  C   -0.050224
     9  C   -0.110013
    10  C    0.033993
    11  C    0.011983
    12  C    0.056122
    13  C    0.041044
    14  C    0.198428
    15  O   -0.281088
    16  O   -0.361579
    17  N   -0.471317
    18  C    0.187801
    19  C   -0.172795
    20  C   -0.078475
    21  C    0.104192
    22  C    0.093916
    23  C    0.066089
    24  O   -0.222916
    25  C   -0.030769
    26  N   -0.382542
    27  C    0.106426
    28  C   -0.086136
    29  C   -0.031070
    30  C    0.015786
    31  C    0.016015
    32  C   -0.018947
    33  C   -0.077830
    34  N   -0.462975
    35  C    0.120320
    36  C   -0.189135
    37  C   -0.044006
    38  C    0.153333
    39  C    0.092793
    40  C    0.131533
    41  O   -0.250336
    42  C   -0.147325
    43  C    0.288561
    44  O   -0.251104
    45  O   -0.371635
    46  C    0.134531
    47  C    0.275263
    48  C   -0.193582
    49  C   -0.222536
    50  C    0.040850
    51  C    0.008366
    52  C    0.016841
    53  C    0.026530
    54  C   -0.212961
    55  C    0.014023
    56  C    0.013844
    57  C   -0.057778
    58  C    0.017272
    59  C   -0.161306
    60  C   -0.004039
    61  C   -0.019027
    62  C   -0.068539
    63  C    0.022464
    64  C   -0.208118
    65  C   -0.012270
    66  C    0.016823
    67  H   -0.001225
    68  H    0.026176
    69  H    0.003970
    70  H    0.065853
    71  H    0.025556
    72  H    0.057381
    73  H    0.045066
    74  H    0.029510
    75  H    0.043517
    76  H    0.035930
    77  H    0.056170
    78  H    0.064692
    79  H    0.025693
    80  H    0.060533
    81  H    0.055943
    82  H    0.052540
    83  H    0.051673
    84  H    0.042918
    85  H    0.045794
    86  H    0.031868
    87  H    0.036709
    88  H    0.052601
    89  H    0.038913
    90  H    0.036950
    91  H    0.043890
    92  H    0.045764
    93  H    0.042239
    94  H    0.031356
    95  H    0.027586
    96  H    0.068173
    97  H    0.062206
    98  H    0.068723
    99  H    0.045291
   100  H    0.052821
   101  H    0.052919
   102  H    0.055495
   103  H    0.071920
   104  H    0.029740
   105  H    0.025293
   106  H    0.058281
   107  H    0.051626
   108  H    0.011026
   109  H    0.021652
   110  H    0.015106
   111  H    0.029589
   112  H    0.028535
   113  H    0.004814
   114  H    0.009988
   115  H    0.022359
   116  H    0.008777
   117  H    0.040927
   118  H    0.015315
   119  H    0.025753
   120  H    0.025650
   121  H    0.022092
   122  H    0.022856
   123  H    0.022267
   124  H    0.019673
   125  H    0.016268
   126  H    0.013471
   127  H    0.029565
   128  H    0.026559
   129  H    0.022398
   130  H    0.018187
   131  H    0.022028
   132  H    0.016308
   133  H    0.020980
   134  H    0.020612
   135  H    0.037584
   136  H    0.014911
   137  H    0.018027
   138  H    0.017332
   139  H    0.030690
   140  H    0.034469
 Sum of Mulliken charges =  -0.00000

 Dipole moment (field-independent basis, Debye):
    X=              5.4589    Y=              3.7370    Z=             -3.2209  Tot=              7.3579
 Quadrupole moment (field-independent basis, Debye-Ang):
   XX=           -387.9839   YY=           -424.2854   ZZ=           -404.5741
   XY=            -25.2728   XZ=              7.5453   YZ=             15.0989

 Normal termination of Gaussian 16 at Wed May  4 10:20:53 2022.
