 Gaussian 16, Revision A.03,
 Gaussian 16:  ES64L-G16RevA.03 25-Dec-2016

 --------------------
 #p ZINDO=(nstates=5)
 --------------------

 -----------------------------
 step_1551_chromophore_9 ZINDO
 -----------------------------
 Symbolic Z-matrix:
 Charge =  0 Multiplicity = 1

                         Standard orientation:
 ---------------------------------------------------------------------
 Center     Atomic      Atomic             Coordinates (Angstroms)
 Number     Number       Type             X           Y           Z
 ---------------------------------------------------------------------
      1         12           0       -4.856478    0.943067   -0.037742
      2          6           0       -4.039554   -2.457035    0.270798
      3          6           0       -1.459507    1.563229   -0.371017
      4          6           0       -5.561592    4.201022   -0.141152
      5          6           0       -8.273340    0.211518    0.735187
      6          7           0       -2.958899   -0.376235   -0.038624
      7          6           0       -2.857165   -1.754635   -0.030467
      8          6           0       -1.451165   -2.217890   -0.464402
      9          6           0       -0.672495   -0.884344   -0.374220
     10          6           0       -1.780516    0.188307   -0.354032
     11          6           0        0.263062   -0.696857    0.839595
     12          6           0       -1.472880   -2.944637   -1.876265
     13          6           0       -0.589012   -4.099526   -2.036019
     14          6           0        0.537314   -4.205374   -1.073448
     15          8           0        0.543277   -4.524752    0.129428
     16          8           0        1.702997   -3.996057   -1.772657
     17          7           0       -3.654501    2.591305   -0.077763
     18          6           0       -2.282118    2.701625   -0.193219
     19          6           0       -1.839311    4.100953   -0.306819
     20          6           0       -2.961829    4.858015   -0.362375
     21          6           0       -4.184721    3.836620   -0.267533
     22          6           0       -0.460613    4.610926   -0.575600
     23          6           0       -3.070675    6.364204   -0.527797
     24          8           0       -4.137827    6.938555   -0.601134
     25          6           0       -1.868496    7.315156   -0.353525
     26          7           0       -6.716618    2.082582    0.124211
     27          6           0       -6.656477    3.472085    0.159957
     28          6           0       -8.137199    3.964979    0.439999
     29          6           0       -8.998319    2.681708    0.609048
     30          6           0       -7.933477    1.616131    0.543511
     31          6           0       -8.198602    5.025698    1.597408
     32          6           0      -10.256415    2.460094   -0.331452
     33          6           0       -9.925050    2.015630   -1.835258
     34          7           0       -5.967606   -0.719235    0.438800
     35          6           0       -7.293591   -0.881629    0.796824
     36          6           0       -7.621496   -2.310803    1.021662
     37          6           0       -6.366662   -2.917267    0.715139
     38          6           0       -5.362885   -1.943645    0.469250
     39          6           0       -8.890769   -2.951813    1.382595
     40          6           0       -5.755608   -4.228479    0.556530
     41          8           0       -6.286424   -5.355933    0.749706
     42          6           0       -4.281913   -3.950473    0.244196
     43          6           0       -3.597805   -4.655603    1.416709
     44          8           0       -3.253510   -4.093689    2.448144
     45          8           0       -2.992257   -5.839927    1.020793
     46          6           0       -1.909217   -6.316248    1.883537
     47          6           0        2.940333   -4.174904   -1.067950
     48          6           0        3.873128   -3.117376   -1.607947
     49          6           0        5.165379   -2.799564   -1.240675
     50          6           0        5.960963   -3.444530   -0.094288
     51          6           0        5.718537   -1.563969   -1.888013
     52          6           0        6.379591   -1.735935   -3.291546
     53          6           0        7.936486   -1.441463   -3.325901
     54          6           0        8.233035    0.066879   -3.580309
     55          6           0        8.188801    0.274812   -5.113514
     56          6           0        9.558686    0.575369   -2.926152
     57          6           0        9.330900    1.517700   -1.713291
     58          6           0       10.558722    2.420997   -1.465354
     59          6           0       10.631603    2.823056    0.006742
     60          6           0       11.532999    4.057473    0.208999
     61          6           0       11.232741    1.642703    0.856276
     62          6           0       10.513282    1.250478    2.280475
     63          6           0       11.404734    0.410726    3.258221
     64          6           0       11.197456    0.809951    4.739292
     65          6           0       11.967713    2.067250    5.055298
     66          6           0       11.376378   -0.296011    5.702572
     67          1           0       -0.388527    1.673265   -0.551627
     68          1           0       -5.543102    5.288186   -0.050424
     69          1           0       -9.281548    0.043745    1.120765
     70          1           0       -1.288742   -2.906794    0.363926
     71          1           0       -0.020569   -0.783596   -1.242201
     72          1           0        0.455316   -1.626044    1.375807
     73          1           0       -0.191430    0.059147    1.480173
     74          1           0        1.250914   -0.287162    0.627352
     75          1           0       -1.251689   -2.207324   -2.647826
     76          1           0       -2.473786   -3.366305   -1.970030
     77          1           0       -0.245919   -4.127583   -3.069653
     78          1           0       -1.067521   -5.067944   -1.890348
     79          1           0        0.066142    3.671446   -0.740053
     80          1           0       -0.025519    5.147007    0.268234
     81          1           0       -0.448903    5.186938   -1.500395
     82          1           0       -1.193497    7.139224    0.483023
     83          1           0       -2.232004    8.338005   -0.264444
     84          1           0       -1.236079    7.399717   -1.238069
     85          1           0       -8.380438    4.456238   -0.501890
     86          1           0       -9.390990    2.626811    1.624331
     87          1           0       -8.286573    6.027953    1.177519
     88          1           0       -7.245282    4.982113    2.124702
     89          1           0       -9.107807    4.939831    2.191982
     90          1           0      -10.682819    3.451510   -0.483030
     91          1           0      -10.973644    1.762386    0.100886
     92          1           0       -8.852978    1.900310   -1.997777
     93          1           0      -10.416057    2.664058   -2.560484
     94          1           0      -10.259683    1.002152   -2.054102
     95          1           0       -9.754626   -2.287215    1.412072
     96          1           0       -8.704727   -3.422933    2.348084
     97          1           0       -9.072745   -3.700728    0.612782
     98          1           0       -3.848258   -4.476635   -0.606247
     99          1           0       -1.587262   -7.313615    1.581406
    100          1           0       -2.100430   -6.324223    2.956907
    101          1           0       -1.033716   -5.676929    1.771446
    102          1           0        3.345494   -5.136337   -1.382396
    103          1           0        2.869862   -3.997239    0.005440
    104          1           0        3.431625   -2.572477   -2.441842
    105          1           0        5.385001   -4.297912    0.263181
    106          1           0        6.075878   -2.684255    0.678811
    107          1           0        6.894910   -3.877334   -0.451876
    108          1           0        6.319193   -1.081647   -1.116797
    109          1           0        4.881824   -0.882774   -2.039373
    110          1           0        5.911588   -0.928305   -3.854539
    111          1           0        6.056299   -2.711461   -3.656352
    112          1           0        8.550209   -2.034604   -4.003661
    113          1           0        8.288818   -1.567105   -2.302373
    114          1           0        7.463338    0.696068   -3.133033
    115          1           0        8.586041   -0.495988   -5.774589
    116          1           0        8.975181    1.017035   -5.246194
    117          1           0        7.176669    0.495408   -5.451170
    118          1           0       10.027202    1.216576   -3.671962
    119          1           0       10.169068   -0.257368   -2.576119
    120          1           0        9.118792    0.923643   -0.824674
    121          1           0        8.487238    2.142339   -2.007854
    122          1           0       10.477745    3.312557   -2.088076
    123          1           0       11.488198    1.900984   -1.694227
    124          1           0        9.648635    3.089545    0.396304
    125          1           0       12.122058    4.009692    1.124348
    126          1           0       10.949802    4.952695    0.422692
    127          1           0       12.197025    4.419999   -0.575458
    128          1           0       12.271783    1.900977    1.058892
    129          1           0       11.108443    0.728076    0.275929
    130          1           0        9.647577    0.624667    2.063417
    131          1           0       10.097271    2.142450    2.748157
    132          1           0       12.414344    0.688271    2.954190
    133          1           0       11.192352   -0.644946    3.090995
    134          1           0       10.155604    1.116288    4.833486
    135          1           0       12.244216    2.809481    4.306394
    136          1           0       12.853075    1.728886    5.595244
    137          1           0       11.472303    2.651975    5.830079
    138          1           0       12.179747   -0.091348    6.410624
    139          1           0       11.658102   -1.259669    5.279041
    140          1           0       10.424830   -0.314846    6.233210
 ---------------------------------------------------------------------

 SCF Done:  E(RZINDO/S) =  -474.037729022     A.U. after   19 cycles

 Excitation energies and oscillator strengths:

 Excited State   1:      Singlet-A      1.2281 eV 1009.58 nm  f=0.5747  <S**2>=0.000
     175 ->178        -0.18372
     176 ->177         0.66399
 This state for optimization and/or second-order correction.
 Total Energy, E(CIS/TDA) =  -473.992597942
 Copying the excited state density for this state as the 1-particle RhoCI density.

 Excited State   2:      Singlet-A      1.9027 eV  651.62 nm  f=0.0067  <S**2>=0.000
     175 ->177         0.49077
     176 ->178         0.48346

 Excited State   3:      Singlet-A      2.8325 eV  437.72 nm  f=0.1049  <S**2>=0.000
     175 ->177         0.13586
     176 ->178        -0.17844
     176 ->179         0.60705
     176 ->180         0.19447

 Excited State   4:      Singlet-A      2.9045 eV  426.88 nm  f=0.0089  <S**2>=0.000
     168 ->177        -0.27632
     168 ->179         0.45848
     168 ->180        -0.29554
     168 ->186         0.19748
     168 ->187        -0.10668

 Excited State   5:      Singlet-A      2.9244 eV  423.96 nm  f=0.8596  <S**2>=0.000
     170 ->179         0.11247
     170 ->180         0.10027
     175 ->177        -0.40491
     176 ->178         0.42485
     176 ->179         0.23874
     176 ->180        -0.10071

 The electronic state is 1-A.
 Alpha  occ. eigenvalues --   -1.82035  -1.79459  -1.78163  -1.74808  -1.71253
 Alpha  occ. eigenvalues --   -1.69281  -1.65024  -1.60975  -1.60077  -1.56941
 Alpha  occ. eigenvalues --   -1.56285  -1.52870  -1.49410  -1.46531  -1.44883
 Alpha  occ. eigenvalues --   -1.43009  -1.41553  -1.40188  -1.37972  -1.37505
 Alpha  occ. eigenvalues --   -1.36030  -1.33530  -1.32766  -1.32142  -1.28502
 Alpha  occ. eigenvalues --   -1.27628  -1.23116  -1.21892  -1.20739  -1.17514
 Alpha  occ. eigenvalues --   -1.16717  -1.15878  -1.15475  -1.14254  -1.13710
 Alpha  occ. eigenvalues --   -1.12680  -1.10913  -1.10487  -1.04034  -1.03122
 Alpha  occ. eigenvalues --   -1.02512  -1.00588  -0.99161  -0.97814  -0.97162
 Alpha  occ. eigenvalues --   -0.95834  -0.94983  -0.93432  -0.92563  -0.92392
 Alpha  occ. eigenvalues --   -0.90984  -0.89502  -0.89051  -0.88079  -0.86405
 Alpha  occ. eigenvalues --   -0.85918  -0.85001  -0.83234  -0.82310  -0.80109
 Alpha  occ. eigenvalues --   -0.79449  -0.78694  -0.77559  -0.76134  -0.75248
 Alpha  occ. eigenvalues --   -0.75201  -0.74941  -0.74655  -0.73979  -0.73243
 Alpha  occ. eigenvalues --   -0.72858  -0.72464  -0.72168  -0.71536  -0.71325
 Alpha  occ. eigenvalues --   -0.70754  -0.69740  -0.69658  -0.68940  -0.68921
 Alpha  occ. eigenvalues --   -0.67785  -0.67215  -0.67104  -0.66298  -0.65903
 Alpha  occ. eigenvalues --   -0.65572  -0.65322  -0.64354  -0.64139  -0.63510
 Alpha  occ. eigenvalues --   -0.62833  -0.62522  -0.62349  -0.62155  -0.61631
 Alpha  occ. eigenvalues --   -0.61050  -0.60836  -0.60680  -0.60234  -0.60078
 Alpha  occ. eigenvalues --   -0.59713  -0.59516  -0.59151  -0.58384  -0.58220
 Alpha  occ. eigenvalues --   -0.57386  -0.57093  -0.56808  -0.56553  -0.56260
 Alpha  occ. eigenvalues --   -0.55709  -0.55183  -0.55033  -0.55021  -0.54501
 Alpha  occ. eigenvalues --   -0.54279  -0.54046  -0.52732  -0.52315  -0.51904
 Alpha  occ. eigenvalues --   -0.51802  -0.51723  -0.51588  -0.51361  -0.51117
 Alpha  occ. eigenvalues --   -0.50953  -0.50750  -0.50661  -0.50412  -0.50080
 Alpha  occ. eigenvalues --   -0.49549  -0.49507  -0.49225  -0.49130  -0.48986
 Alpha  occ. eigenvalues --   -0.48818  -0.48553  -0.48350  -0.47865  -0.47586
 Alpha  occ. eigenvalues --   -0.47404  -0.47229  -0.46728  -0.46638  -0.46363
 Alpha  occ. eigenvalues --   -0.46328  -0.46266  -0.46099  -0.45907  -0.45642
 Alpha  occ. eigenvalues --   -0.45559  -0.45153  -0.44583  -0.44534  -0.43734
 Alpha  occ. eigenvalues --   -0.43477  -0.43341  -0.43294  -0.43148  -0.42956
 Alpha  occ. eigenvalues --   -0.42121  -0.41637  -0.40364  -0.39011  -0.38205
 Alpha  occ. eigenvalues --   -0.37357  -0.36877  -0.35944  -0.35058  -0.34321
 Alpha  occ. eigenvalues --   -0.33683  -0.32385  -0.31550  -0.31353  -0.26551
 Alpha  occ. eigenvalues --   -0.21085
 Alpha virt. eigenvalues --   -0.08002  -0.02180  -0.00774   0.00823   0.01225
 Alpha virt. eigenvalues --    0.02700   0.02775   0.02919   0.04209   0.04860
 Alpha virt. eigenvalues --    0.06203   0.06240   0.07161   0.07913   0.08096

 Mulliken charges:
               1
     1  Mg   0.428299
     2  C   -0.021298
     3  C   -0.076604
     4  C   -0.076644
     5  C   -0.104529
     6  N   -0.276190
     7  C    0.094378
     8  C    0.002543
     9  C    0.015478
    10  C    0.140047
    11  C   -0.049743
    12  C   -0.009944
    13  C    0.019240
    14  C    0.473978
    15  O   -0.535143
    16  O   -0.274098
    17  N   -0.301452
    18  C    0.112465
    19  C    0.031025
    20  C   -0.045130
    21  C    0.142819
    22  C   -0.043355
    23  C    0.327821
    24  O   -0.503085
    25  C   -0.033062
    26  N   -0.296135
    27  C    0.151835
    28  C    0.007690
    29  C    0.009595
    30  C    0.121849
    31  C   -0.054146
    32  C   -0.028836
    33  C   -0.065028
    34  N   -0.310808
    35  C    0.082657
    36  C    0.023168
    37  C   -0.059915
    38  C    0.092643
    39  C   -0.027421
    40  C    0.327007
    41  O   -0.547193
    42  C    0.063148
    43  C    0.478280
    44  O   -0.515202
    45  O   -0.270649
    46  C    0.075361
    47  C    0.105458
    48  C   -0.097493
    49  C   -0.024311
    50  C   -0.041096
    51  C   -0.022514
    52  C   -0.032276
    53  C   -0.035995
    54  C   -0.019177
    55  C   -0.068201
    56  C   -0.043992
    57  C   -0.041410
    58  C   -0.028219
    59  C   -0.005047
    60  C   -0.065294
    61  C   -0.047548
    62  C   -0.051161
    63  C   -0.034379
    64  C    0.003859
    65  C   -0.057126
    66  C   -0.051340
    67  H    0.023478
    68  H    0.044071
    69  H    0.030289
    70  H    0.058192
    71  H    0.019898
    72  H    0.032216
    73  H    0.023434
    74  H    0.015662
    75  H    0.030471
    76  H    0.026466
    77  H    0.030888
    78  H    0.043884
    79  H    0.021212
    80  H    0.041187
    81  H    0.036169
    82  H    0.033639
    83  H    0.032718
    84  H    0.031748
    85  H    0.030560
    86  H    0.024416
    87  H    0.017437
    88  H    0.032615
    89  H    0.025624
    90  H    0.017285
    91  H    0.032557
    92  H    0.027108
    93  H    0.022928
    94  H    0.014877
    95  H    0.022878
    96  H    0.042850
    97  H    0.037199
    98  H    0.057132
    99  H    0.027550
   100  H    0.048384
   101  H    0.041497
   102  H    0.050155
   103  H    0.065863
   104  H    0.029133
   105  H    0.018565
   106  H    0.036631
   107  H    0.032123
   108  H    0.019550
   109  H    0.013691
   110  H    0.018893
   111  H    0.029582
   112  H    0.030468
   113  H    0.009610
   114  H    0.021610
   115  H    0.017922
   116  H    0.016968
   117  H    0.024568
   118  H    0.022286
   119  H    0.024587
   120  H    0.024365
   121  H    0.020096
   122  H    0.017202
   123  H    0.022196
   124  H    0.024039
   125  H    0.012863
   126  H    0.003806
   127  H    0.023702
   128  H    0.027871
   129  H    0.017434
   130  H    0.011307
   131  H    0.021876
   132  H    0.020608
   133  H    0.021857
   134  H    0.011317
   135  H    0.026311
   136  H    0.011749
   137  H    0.006117
   138  H    0.015098
   139  H    0.021075
   140  H    0.019934
 Sum of Mulliken charges =  -0.00000

 Dipole moment (field-independent basis, Debye):
    X=              7.9832    Y=              5.8477    Z=             -5.1815  Tot=             11.1703
 N-N= 4.352952701648D+03 E-N= 0.000000000000D+00  KE=-9.380278229523D+03
 Leave Link  601 at Wed May  4 10:32:59 2022, MaxMem=  6710886400 cpu:               0.8 elap:               0.1
 (Enter /sw/apps/gaussian-16.0/g16/l9999.exe)
 1\1\GINC-BP1-COMPUTE031\SP\RZINDO CIS\STO-3G\C55H74Mg1N4O6\OF15641\04-
 May-2022\0\\#p ZINDO=(nstates=5)\\step_1551_chromophore_9 ZINDO\\0,1\M
 g,0,35.791,0.69,29.92\C,0,33.458,1.839,32.278\C,0,38.13,0.672,32.482\C
 ,0,38.091,-0.215,27.681\C,0,33.399,1.155,27.299\N,0,35.739,1.224,32.16
 8\C,0,34.654,1.547,32.961\C,0,34.992,1.411,34.46\C,0,36.534,1.307,34.3
 95\C,0,36.817,0.948,32.922\C,0,37.341,2.561,34.795\C,0,34.217,0.202,35
 .138\C,0,33.727,0.415,36.5\C,0,34.367,1.515,37.266\O,0,34.243,2.749,37

 Normal termination of Gaussian 16 at Wed May  4 10:32:59 2022.
