 Gaussian 16, Revision A.03,
 Gaussian 16:  ES64L-G16RevA.03 25-Dec-2016

 ------------------------------
 #p blyp/Def2SVP td=(nstates=5)
 ------------------------------

 --------------------------------------------------
 step_201_chromophore_10 TDDFT with blyp functional
 --------------------------------------------------
 Symbolic Z-matrix:
 Charge =  0 Multiplicity = 1

                         Standard orientation:
 ---------------------------------------------------------------------
 Center     Atomic      Atomic             Coordinates (Angstroms)
 Number     Number       Type             X           Y           Z
 ---------------------------------------------------------------------
      1         12           0        5.955444    0.466685    0.080718
      2          6           0        3.902198   -2.258424    0.027009
      3          6           0        3.408320    2.407222   -1.238422
      4          6           0        8.105154    3.048714   -0.062631
      5          6           0        8.568036   -1.556804    0.906960
      6          7           0        3.960953    0.006705   -0.595701
      7          6           0        3.241310   -1.133242   -0.384085
      8          6           0        1.668584   -0.875912   -0.768014
      9          6           0        1.667613    0.602791   -1.222848
     10          6           0        3.111990    1.080166   -0.996062
     11          6           0        1.226648    0.888741   -2.763174
     12          6           0        0.818400   -1.194874    0.519235
     13          6           0       -0.534503   -0.471023    0.640388
     14          6           0       -1.810831   -1.423825    0.880558
     15          8           0       -2.178963   -1.850915    2.006890
     16          8           0       -2.408650   -1.750531   -0.322452
     17          7           0        5.759157    2.492937   -0.568028
     18          6           0        4.653117    3.116835   -1.054050
     19          6           0        4.943827    4.460532   -1.292228
     20          6           0        6.264724    4.718638   -0.737473
     21          6           0        6.821965    3.353973   -0.383556
     22          6           0        3.968750    5.414787   -2.001127
     23          6           0        7.021015    6.113125   -0.547249
     24          8           0        8.115764    6.220075   -0.033232
     25          6           0        6.297009    7.356204   -0.787719
     26          7           0        8.050539    0.753598    0.431460
     27          6           0        8.754050    1.880551    0.335278
     28          6           0       10.192854    1.671047    0.588257
     29          6           0       10.331742    0.170631    1.144593
     30          6           0        8.894022   -0.261713    0.816152
     31          6           0       10.963171    1.976959   -0.718276
     32          6           0       10.550811    0.124410    2.703002
     33          6           0        9.417063    0.680829    3.626140
     34          7           0        6.255277   -1.490348    0.344107
     35          6           0        7.364877   -2.235867    0.613415
     36          6           0        7.060967   -3.667746    0.547412
     37          6           0        5.651397   -3.724367    0.399450
     38          6           0        5.258155   -2.397105    0.272293
     39          6           0        8.104262   -4.828361    0.705327
     40          6           0        4.509316   -4.566933    0.397525
     41          8           0        4.361486   -5.776857    0.543541
     42          6           0        3.278651   -3.684757    0.074997
     43          6           0        2.411593   -4.187101   -1.082816
     44          8           0        2.506898   -3.900686   -2.270866
     45          8           0        1.275047   -4.727594   -0.491989
     46          6           0        0.249167   -5.146012   -1.365194
     47          6           0       -3.172749   -2.983463   -0.335056
     48          6           0       -4.598053   -2.449195   -0.107673
     49          6           0       -5.753827   -3.147867   -0.197762
     50          6           0       -5.910579   -4.606010   -0.220227
     51          6           0       -7.157227   -2.496095   -0.012323
     52          6           0       -7.527982   -1.513065   -1.123062
     53          6           0       -7.829380   -0.049823   -0.552445
     54          6           0       -9.258213    0.518160   -0.913217
     55          6           0       -9.334048    0.719781   -2.489142
     56          6           0       -9.527771    1.943433   -0.187417
     57          6           0      -11.002265    2.149347    0.327705
     58          6           0      -11.060698    1.927967    1.888879
     59          6           0      -12.208551    2.873171    2.428994
     60          6           0      -11.888395    3.405076    3.855622
     61          6           0      -13.496079    2.125586    2.485924
     62          6           0      -14.210174    2.173414    1.104888
     63          6           0      -14.469059    0.733462    0.609377
     64          6           0      -15.239187    0.753998   -0.759145
     65          6           0      -16.323020   -0.347481   -0.912704
     66          6           0      -14.280503    0.704067   -1.932849
     67          1           0        2.586962    3.085286   -1.474174
     68          1           0        8.736035    3.931068    0.058714
     69          1           0        9.401825   -2.173070    1.249255
     70          1           0        1.471084   -1.644781   -1.515155
     71          1           0        0.979058    1.246987   -0.675505
     72          1           0        2.146587    0.845850   -3.344603
     73          1           0        0.769495    1.873109   -2.865890
     74          1           0        0.555234    0.110300   -3.125641
     75          1           0        1.283784   -0.982211    1.482493
     76          1           0        0.531560   -2.245739    0.480315
     77          1           0       -0.865548    0.036325   -0.266489
     78          1           0       -0.540250    0.210352    1.490603
     79          1           0        3.044555    4.999347   -2.402917
     80          1           0        4.461966    5.895374   -2.846257
     81          1           0        3.747687    6.120410   -1.200054
     82          1           0        7.000542    8.143755   -0.517611
     83          1           0        5.467824    7.248419   -0.087536
     84          1           0        5.930713    7.443853   -1.810510
     85          1           0       10.516408    2.358277    1.368635
     86          1           0       10.990453   -0.537194    0.641066
     87          1           0       10.249797    2.266705   -1.490769
     88          1           0       11.530350    1.220554   -1.260050
     89          1           0       11.719096    2.704585   -0.421223
     90          1           0       11.442292    0.706477    2.939800
     91          1           0       10.707017   -0.926379    2.946179
     92          1           0        9.888038    1.469455    4.213487
     93          1           0        8.946059   -0.154664    4.142384
     94          1           0        8.613817    1.237088    3.143972
     95          1           0        8.728305   -4.578780    1.562665
     96          1           0        8.662522   -4.675629   -0.218124
     97          1           0        7.709270   -5.837161    0.824090
     98          1           0        2.754204   -3.627178    1.027888
     99          1           0       -0.664796   -4.583839   -1.173209
    100          1           0        0.009480   -6.188646   -1.155592
    101          1           0        0.447994   -4.986488   -2.425419
    102          1           0       -3.002042   -3.695108    0.472515
    103          1           0       -3.149258   -3.509731   -1.289211
    104          1           0       -4.618298   -1.359592   -0.081736
    105          1           0       -4.920294   -4.994677   -0.458985
    106          1           0       -6.606048   -5.013661   -0.953141
    107          1           0       -6.096044   -4.849972    0.826192
    108          1           0       -7.229481   -2.011144    0.960384
    109          1           0       -7.909395   -3.285502    0.013595
    110          1           0       -8.508400   -1.818174   -1.488739
    111          1           0       -6.773045   -1.393303   -1.900633
    112          1           0       -7.100242    0.625507   -0.999583
    113          1           0       -7.617853    0.022968    0.514432
    114          1           0       -9.979825   -0.246869   -0.626337
    115          1           0       -9.966190    1.588905   -2.669232
    116          1           0       -9.830770   -0.195243   -2.813428
    117          1           0       -8.304942    0.723836   -2.847359
    118          1           0       -9.394405    2.773044   -0.882200
    119          1           0       -8.774792    2.054473    0.592204
    120          1           0      -11.752990    1.503295   -0.127293
    121          1           0      -11.285653    3.159701    0.032436
    122          1           0      -10.115393    2.036171    2.420442
    123          1           0      -11.439026    0.907703    1.954163
    124          1           0      -12.268467    3.775670    1.820537
    125          1           0      -11.886690    4.494833    3.817401
    126          1           0      -10.896603    3.059386    4.145782
    127          1           0      -12.669182    3.211494    4.591391
    128          1           0      -14.134806    2.612064    3.223353
    129          1           0      -13.469670    1.084631    2.808504
    130          1           0      -13.614839    2.675824    0.342681
    131          1           0      -15.151229    2.699263    1.266318
    132          1           0      -15.022902    0.104853    1.307076
    133          1           0      -13.470174    0.316649    0.487995
    134          1           0      -15.759523    1.711470   -0.723234
    135          1           0      -17.187935    0.008964   -1.471723
    136          1           0      -16.728427   -0.625217    0.060547
    137          1           0      -15.889816   -1.277173   -1.283471
    138          1           0      -13.413184    0.089749   -1.689822
    139          1           0      -13.877608    1.715632   -1.985977
    140          1           0      -14.689420    0.339783   -2.875890
 ---------------------------------------------------------------------

 SCF Done:  E(RB-LYP) =  -3007.33886088     A.U. after   21 cycles

 Excitation energies and oscillator strengths:

 Excited State   1:      Singlet-A      1.8396 eV  673.96 nm  f=0.2924  <S**2>=0.000
     244 -> 247       -0.24412
     245 -> 247       -0.10402
     245 -> 248       -0.16118
     246 -> 247        0.64501
     246 <- 247       -0.14758
 This state for optimization and/or second-order correction.
 Total Energy, E(TD-HF/TD-DFT) =  -3007.27125535
 Copying the excited state density for this state as the 1-particle RhoCI density.

 Excited State   2:      Singlet-A      1.8842 eV  658.03 nm  f=0.0632  <S**2>=0.000
     244 -> 247        0.63818
     245 -> 247        0.14878
     246 -> 247        0.25840

 Excited State   3:      Singlet-A      1.9670 eV  630.33 nm  f=0.0045  <S**2>=0.000
     243 -> 247        0.69575

 Excited State   4:      Singlet-A      2.0554 eV  603.22 nm  f=0.0784  <S**2>=0.000
     243 -> 247       -0.11303
     244 -> 247       -0.17273
     245 -> 247        0.62353
     246 -> 248        0.21521

 Excited State   5:      Singlet-A      2.1777 eV  569.33 nm  f=0.0000  <S**2>=0.000
     242 -> 247        0.70706

 The electronic state is 1-A.
 Alpha  occ. eigenvalues --  -46.26393 -18.83096 -18.82742 -18.78065 -18.77270
 Alpha  occ. eigenvalues --  -18.75846 -18.75260 -14.03302 -14.02992 -14.00971
 Alpha  occ. eigenvalues --  -14.00596 -10.05209 -10.04922 -10.00003  -9.99266
 Alpha  occ. eigenvalues --   -9.98674  -9.97411  -9.96739  -9.96607  -9.96173
 Alpha  occ. eigenvalues --   -9.95843  -9.95593  -9.95502  -9.95268  -9.95138
 Alpha  occ. eigenvalues --   -9.94483  -9.94411  -9.94391  -9.94335  -9.94249
 Alpha  occ. eigenvalues --   -9.94036  -9.93912  -9.93856  -9.93791  -9.93544
 Alpha  occ. eigenvalues --   -9.93415  -9.93350  -9.93018  -9.92993  -9.92979
 Alpha  occ. eigenvalues --   -9.92723  -9.92304  -9.92262  -9.92247  -9.92140
 Alpha  occ. eigenvalues --   -9.92128  -9.92027  -9.91936  -9.91741  -9.91588
 Alpha  occ. eigenvalues --   -9.91506  -9.91483  -9.91350  -9.91270  -9.91252
 Alpha  occ. eigenvalues --   -9.91234  -9.91147  -9.91107  -9.90993  -9.90933
 Alpha  occ. eigenvalues --   -9.90858  -9.90816  -9.90644  -9.90613  -9.90371
 Alpha  occ. eigenvalues --   -9.90132  -2.91168  -1.71596  -1.71021  -1.70906
 Alpha  occ. eigenvalues --   -0.98578  -0.97774  -0.92369  -0.91010  -0.90823
 Alpha  occ. eigenvalues --   -0.89003  -0.87317  -0.86550  -0.84995  -0.83971
 Alpha  occ. eigenvalues --   -0.75944  -0.73256  -0.73136  -0.72815  -0.72311
 Alpha  occ. eigenvalues --   -0.71774  -0.71286  -0.71164  -0.70439  -0.70108
 Alpha  occ. eigenvalues --   -0.69351  -0.68654  -0.67867  -0.67704  -0.66983
 Alpha  occ. eigenvalues --   -0.66454  -0.66200  -0.65758  -0.65178  -0.64510
 Alpha  occ. eigenvalues --   -0.64083  -0.62519  -0.62028  -0.61577  -0.60843
 Alpha  occ. eigenvalues --   -0.60114  -0.60058  -0.59373  -0.58874  -0.58502
 Alpha  occ. eigenvalues --   -0.58226  -0.57980  -0.57106  -0.55854  -0.55324
 Alpha  occ. eigenvalues --   -0.54404  -0.53541  -0.52345  -0.51907  -0.51440
 Alpha  occ. eigenvalues --   -0.51325  -0.50869  -0.50684  -0.50378  -0.49906
 Alpha  occ. eigenvalues --   -0.49722  -0.48994  -0.48766  -0.48629  -0.46287
 Alpha  occ. eigenvalues --   -0.46254  -0.46030  -0.45399  -0.45206  -0.45008
 Alpha  occ. eigenvalues --   -0.44315  -0.43593  -0.42904  -0.42576  -0.42210
 Alpha  occ. eigenvalues --   -0.42097  -0.41922  -0.41816  -0.41547  -0.41238
 Alpha  occ. eigenvalues --   -0.41138  -0.40591  -0.40397  -0.40327  -0.40287
 Alpha  occ. eigenvalues --   -0.40129  -0.39969  -0.39413  -0.39268  -0.39052
 Alpha  occ. eigenvalues --   -0.38823  -0.38759  -0.38625  -0.38507  -0.38336
 Alpha  occ. eigenvalues --   -0.38288  -0.38157  -0.37593  -0.37510  -0.37248
 Alpha  occ. eigenvalues --   -0.37178  -0.36838  -0.36768  -0.36329  -0.36265
 Alpha  occ. eigenvalues --   -0.36150  -0.36012  -0.35838  -0.35791  -0.35638
 Alpha  occ. eigenvalues --   -0.35549  -0.35307  -0.35098  -0.34952  -0.34863
 Alpha  occ. eigenvalues --   -0.34707  -0.34532  -0.34361  -0.34229  -0.33757
 Alpha  occ. eigenvalues --   -0.33665  -0.33660  -0.33492  -0.33383  -0.33208
 Alpha  occ. eigenvalues --   -0.33013  -0.32996  -0.32762  -0.32501  -0.32339
 Alpha  occ. eigenvalues --   -0.32131  -0.31972  -0.31762  -0.31629  -0.31497
 Alpha  occ. eigenvalues --   -0.31104  -0.30954  -0.30894  -0.30783  -0.30489
 Alpha  occ. eigenvalues --   -0.30340  -0.30265  -0.30248  -0.30098  -0.29873
 Alpha  occ. eigenvalues --   -0.29820  -0.29616  -0.29482  -0.29351  -0.29261
 Alpha  occ. eigenvalues --   -0.29024  -0.28758  -0.28516  -0.28088  -0.27540
 Alpha  occ. eigenvalues --   -0.27464  -0.27163  -0.26899  -0.26569  -0.26384
 Alpha  occ. eigenvalues --   -0.26247  -0.26144  -0.25977  -0.25521  -0.25313
 Alpha  occ. eigenvalues --   -0.25065  -0.24327  -0.24074  -0.23882  -0.23568
 Alpha  occ. eigenvalues --   -0.23273  -0.22819  -0.22246  -0.21495  -0.21087
 Alpha  occ. eigenvalues --   -0.20049  -0.19713  -0.18851  -0.18533  -0.17476
 Alpha  occ. eigenvalues --   -0.15953
 Alpha virt. eigenvalues --   -0.11710  -0.06569  -0.05965  -0.04498  -0.04349
 Alpha virt. eigenvalues --   -0.04175  -0.02198  -0.01668  -0.01074   0.00171
 Alpha virt. eigenvalues --    0.01256   0.01816   0.02034   0.02388   0.02496

 Mulliken charges:
               1
     1  Mg   0.687359
     2  C   -0.031113
     3  C   -0.067013
     4  C   -0.050476
     5  C   -0.089094
     6  N   -0.259390
     7  C   -0.127166
     8  C    0.086141
     9  C   -0.019883
    10  C    0.092243
    11  C    0.093537
    12  C    0.100288
    13  C    0.105158
    14  C    0.074416
    15  O   -0.213059
    16  O   -0.270712
    17  N   -0.281934
    18  C    0.114328
    19  C   -0.152805
    20  C   -0.025248
    21  C    0.121531
    22  C    0.159530
    23  C   -0.065036
    24  O   -0.156724
    25  C    0.142923
    26  N   -0.201208
    27  C   -0.024815
    28  C    0.080999
    29  C    0.046108
    30  C    0.009956
    31  C    0.122315
    32  C    0.057044
    33  C    0.061407
    34  N   -0.267738
    35  C    0.132327
    36  C   -0.197025
    37  C    0.114722
    38  C    0.119745
    39  C    0.170172
    40  C   -0.112427
    41  O   -0.134282
    42  C    0.080704
    43  C    0.183190
    44  O   -0.172928
    45  O   -0.259919
    46  C    0.199098
    47  C    0.288072
    48  C   -0.123457
    49  C   -0.157098
    50  C    0.160462
    51  C    0.139985
    52  C    0.088779
    53  C    0.034365
    54  C   -0.109630
    55  C    0.116345
    56  C    0.124891
    57  C    0.018867
    58  C    0.115431
    59  C   -0.096377
    60  C    0.118237
    61  C    0.139114
    62  C    0.043351
    63  C    0.057504
    64  C   -0.068469
    65  C    0.100318
    66  C    0.116363
    67  H   -0.065479
    68  H   -0.046941
    69  H   -0.080302
    70  H   -0.010158
    71  H   -0.010811
    72  H    0.003099
    73  H   -0.002599
    74  H    0.000569
    75  H   -0.007826
    76  H    0.003067
    77  H   -0.004477
    78  H   -0.004148
    79  H   -0.007336
    80  H    0.012594
    81  H    0.004271
    82  H   -0.000243
    83  H    0.015854
    84  H    0.005210
    85  H   -0.026274
    86  H   -0.025524
    87  H    0.002405
    88  H   -0.014840
    89  H    0.001834
    90  H   -0.014062
    91  H   -0.016778
    92  H   -0.006095
    93  H    0.005724
    94  H    0.000072
    95  H    0.002742
    96  H    0.007558
    97  H    0.016191
    98  H    0.012102
    99  H   -0.007238
   100  H    0.015800
   101  H    0.018471
   102  H    0.019919
   103  H    0.022189
   104  H   -0.024949
   105  H   -0.044762
   106  H    0.006299
   107  H    0.018066
   108  H   -0.011308
   109  H   -0.049192
   110  H   -0.031389
   111  H   -0.012092
   112  H   -0.037184
   113  H   -0.028105
   114  H   -0.030107
   115  H   -0.004017
   116  H   -0.016499
   117  H   -0.007294
   118  H   -0.039863
   119  H   -0.033976
   120  H   -0.020706
   121  H   -0.025167
   122  H   -0.020774
   123  H   -0.029529
   124  H   -0.031502
   125  H   -0.029685
   126  H   -0.021161
   127  H   -0.021199
   128  H   -0.049273
   129  H   -0.033523
   130  H   -0.021463
   131  H   -0.031017
   132  H   -0.034647
   133  H   -0.035500
   134  H   -0.038349
   135  H   -0.010793
   136  H   -0.035147
   137  H   -0.016670
   138  H   -0.017356
   139  H   -0.019631
   140  H   -0.011372
 Sum of Mulliken charges =  -0.00000

 Dipole moment (field-independent basis, Debye):
    X=             -0.9218    Y=              2.5610    Z=             -0.9117  Tot=              2.8705
 Quadrupole moment (field-independent basis, Debye-Ang):
   XX=           -372.2968   YY=           -423.2625   ZZ=           -413.9167
   XY=              1.6844   XZ=             14.0751   YZ=             -1.0952

 Normal termination of Gaussian 16 at Wed May  4 17:45:00 2022.
