 Gaussian 16, Revision A.03,
 Gaussian 16:  ES64L-G16RevA.03 25-Dec-2016

 -----------------------------------
 #p cam-b3lyp/Def2SVP td=(nstates=5)
 -----------------------------------

 -------------------------------------------------------
 step_201_chromophore_10 TDDFT with cam-b3lyp functional
 -------------------------------------------------------
 Symbolic Z-matrix:
 Charge =  0 Multiplicity = 1

                         Standard orientation:
 ---------------------------------------------------------------------
 Center     Atomic      Atomic             Coordinates (Angstroms)
 Number     Number       Type             X           Y           Z
 ---------------------------------------------------------------------
      1         12           0        5.955444    0.466685    0.080718
      2          6           0        3.902198   -2.258424    0.027009
      3          6           0        3.408320    2.407222   -1.238422
      4          6           0        8.105154    3.048714   -0.062631
      5          6           0        8.568036   -1.556804    0.906960
      6          7           0        3.960953    0.006705   -0.595701
      7          6           0        3.241310   -1.133242   -0.384085
      8          6           0        1.668584   -0.875912   -0.768014
      9          6           0        1.667613    0.602791   -1.222848
     10          6           0        3.111990    1.080166   -0.996062
     11          6           0        1.226648    0.888741   -2.763174
     12          6           0        0.818400   -1.194874    0.519235
     13          6           0       -0.534503   -0.471023    0.640388
     14          6           0       -1.810831   -1.423825    0.880558
     15          8           0       -2.178963   -1.850915    2.006890
     16          8           0       -2.408650   -1.750531   -0.322452
     17          7           0        5.759157    2.492937   -0.568028
     18          6           0        4.653117    3.116835   -1.054050
     19          6           0        4.943827    4.460532   -1.292228
     20          6           0        6.264724    4.718638   -0.737473
     21          6           0        6.821965    3.353973   -0.383556
     22          6           0        3.968750    5.414787   -2.001127
     23          6           0        7.021015    6.113125   -0.547249
     24          8           0        8.115764    6.220075   -0.033232
     25          6           0        6.297009    7.356204   -0.787719
     26          7           0        8.050539    0.753598    0.431460
     27          6           0        8.754050    1.880551    0.335278
     28          6           0       10.192854    1.671047    0.588257
     29          6           0       10.331742    0.170631    1.144593
     30          6           0        8.894022   -0.261713    0.816152
     31          6           0       10.963171    1.976959   -0.718276
     32          6           0       10.550811    0.124410    2.703002
     33          6           0        9.417063    0.680829    3.626140
     34          7           0        6.255277   -1.490348    0.344107
     35          6           0        7.364877   -2.235867    0.613415
     36          6           0        7.060967   -3.667746    0.547412
     37          6           0        5.651397   -3.724367    0.399450
     38          6           0        5.258155   -2.397105    0.272293
     39          6           0        8.104262   -4.828361    0.705327
     40          6           0        4.509316   -4.566933    0.397525
     41          8           0        4.361486   -5.776857    0.543541
     42          6           0        3.278651   -3.684757    0.074997
     43          6           0        2.411593   -4.187101   -1.082816
     44          8           0        2.506898   -3.900686   -2.270866
     45          8           0        1.275047   -4.727594   -0.491989
     46          6           0        0.249167   -5.146012   -1.365194
     47          6           0       -3.172749   -2.983463   -0.335056
     48          6           0       -4.598053   -2.449195   -0.107673
     49          6           0       -5.753827   -3.147867   -0.197762
     50          6           0       -5.910579   -4.606010   -0.220227
     51          6           0       -7.157227   -2.496095   -0.012323
     52          6           0       -7.527982   -1.513065   -1.123062
     53          6           0       -7.829380   -0.049823   -0.552445
     54          6           0       -9.258213    0.518160   -0.913217
     55          6           0       -9.334048    0.719781   -2.489142
     56          6           0       -9.527771    1.943433   -0.187417
     57          6           0      -11.002265    2.149347    0.327705
     58          6           0      -11.060698    1.927967    1.888879
     59          6           0      -12.208551    2.873171    2.428994
     60          6           0      -11.888395    3.405076    3.855622
     61          6           0      -13.496079    2.125586    2.485924
     62          6           0      -14.210174    2.173414    1.104888
     63          6           0      -14.469059    0.733462    0.609377
     64          6           0      -15.239187    0.753998   -0.759145
     65          6           0      -16.323020   -0.347481   -0.912704
     66          6           0      -14.280503    0.704067   -1.932849
     67          1           0        2.586962    3.085286   -1.474174
     68          1           0        8.736035    3.931068    0.058714
     69          1           0        9.401825   -2.173070    1.249255
     70          1           0        1.471084   -1.644781   -1.515155
     71          1           0        0.979058    1.246987   -0.675505
     72          1           0        2.146587    0.845850   -3.344603
     73          1           0        0.769495    1.873109   -2.865890
     74          1           0        0.555234    0.110300   -3.125641
     75          1           0        1.283784   -0.982211    1.482493
     76          1           0        0.531560   -2.245739    0.480315
     77          1           0       -0.865548    0.036325   -0.266489
     78          1           0       -0.540250    0.210352    1.490603
     79          1           0        3.044555    4.999347   -2.402917
     80          1           0        4.461966    5.895374   -2.846257
     81          1           0        3.747687    6.120410   -1.200054
     82          1           0        7.000542    8.143755   -0.517611
     83          1           0        5.467824    7.248419   -0.087536
     84          1           0        5.930713    7.443853   -1.810510
     85          1           0       10.516408    2.358277    1.368635
     86          1           0       10.990453   -0.537194    0.641066
     87          1           0       10.249797    2.266705   -1.490769
     88          1           0       11.530350    1.220554   -1.260050
     89          1           0       11.719096    2.704585   -0.421223
     90          1           0       11.442292    0.706477    2.939800
     91          1           0       10.707017   -0.926379    2.946179
     92          1           0        9.888038    1.469455    4.213487
     93          1           0        8.946059   -0.154664    4.142384
     94          1           0        8.613817    1.237088    3.143972
     95          1           0        8.728305   -4.578780    1.562665
     96          1           0        8.662522   -4.675629   -0.218124
     97          1           0        7.709270   -5.837161    0.824090
     98          1           0        2.754204   -3.627178    1.027888
     99          1           0       -0.664796   -4.583839   -1.173209
    100          1           0        0.009480   -6.188646   -1.155592
    101          1           0        0.447994   -4.986488   -2.425419
    102          1           0       -3.002042   -3.695108    0.472515
    103          1           0       -3.149258   -3.509731   -1.289211
    104          1           0       -4.618298   -1.359592   -0.081736
    105          1           0       -4.920294   -4.994677   -0.458985
    106          1           0       -6.606048   -5.013661   -0.953141
    107          1           0       -6.096044   -4.849972    0.826192
    108          1           0       -7.229481   -2.011144    0.960384
    109          1           0       -7.909395   -3.285502    0.013595
    110          1           0       -8.508400   -1.818174   -1.488739
    111          1           0       -6.773045   -1.393303   -1.900633
    112          1           0       -7.100242    0.625507   -0.999583
    113          1           0       -7.617853    0.022968    0.514432
    114          1           0       -9.979825   -0.246869   -0.626337
    115          1           0       -9.966190    1.588905   -2.669232
    116          1           0       -9.830770   -0.195243   -2.813428
    117          1           0       -8.304942    0.723836   -2.847359
    118          1           0       -9.394405    2.773044   -0.882200
    119          1           0       -8.774792    2.054473    0.592204
    120          1           0      -11.752990    1.503295   -0.127293
    121          1           0      -11.285653    3.159701    0.032436
    122          1           0      -10.115393    2.036171    2.420442
    123          1           0      -11.439026    0.907703    1.954163
    124          1           0      -12.268467    3.775670    1.820537
    125          1           0      -11.886690    4.494833    3.817401
    126          1           0      -10.896603    3.059386    4.145782
    127          1           0      -12.669182    3.211494    4.591391
    128          1           0      -14.134806    2.612064    3.223353
    129          1           0      -13.469670    1.084631    2.808504
    130          1           0      -13.614839    2.675824    0.342681
    131          1           0      -15.151229    2.699263    1.266318
    132          1           0      -15.022902    0.104853    1.307076
    133          1           0      -13.470174    0.316649    0.487995
    134          1           0      -15.759523    1.711470   -0.723234
    135          1           0      -17.187935    0.008964   -1.471723
    136          1           0      -16.728427   -0.625217    0.060547
    137          1           0      -15.889816   -1.277173   -1.283471
    138          1           0      -13.413184    0.089749   -1.689822
    139          1           0      -13.877608    1.715632   -1.985977
    140          1           0      -14.689420    0.339783   -2.875890
 ---------------------------------------------------------------------

 SCF Done:  E(RCAM-B3LYP) =  -3007.12849655     A.U. after   18 cycles

 Excitation energies and oscillator strengths:

 Excited State   1:      Singlet-A      1.7275 eV  717.70 nm  f=0.4291  <S**2>=0.000
     245 -> 248       -0.16267
     246 -> 247        0.68820
     245 <- 248       -0.10242
 This state for optimization and/or second-order correction.
 Total Energy, E(TD-HF/TD-DFT) =  -3007.06501097
 Copying the excited state density for this state as the 1-particle RhoCI density.

 Excited State   2:      Singlet-A      2.2580 eV  549.09 nm  f=0.1320  <S**2>=0.000
     245 -> 247        0.64756
     246 -> 248        0.26199

 Excited State   3:      Singlet-A      3.2395 eV  382.73 nm  f=0.0117  <S**2>=0.000
     243 -> 247        0.68962

 Excited State   4:      Singlet-A      3.4942 eV  354.83 nm  f=0.0054  <S**2>=0.000
     241 -> 247        0.49384
     241 -> 249       -0.31047
     241 -> 250       -0.16518
     242 -> 247        0.29713
     242 -> 249       -0.10483

 Excited State   5:      Singlet-A      3.6156 eV  342.91 nm  f=0.0316  <S**2>=0.000
     240 -> 247       -0.17260
     241 -> 247       -0.29184
     241 -> 249        0.10506
     242 -> 247        0.54847
     246 -> 248       -0.20720

 The electronic state is 1-A.
 Alpha  occ. eigenvalues --  -46.87890 -19.25944 -19.25567 -19.21151 -19.20257
 Alpha  occ. eigenvalues --  -19.19322 -19.18243 -14.42053 -14.42038 -14.39257
 Alpha  occ. eigenvalues --  -14.39221 -10.40739 -10.40336 -10.35482 -10.34372
 Alpha  occ. eigenvalues --  -10.32698 -10.31410 -10.31235 -10.30992 -10.30829
 Alpha  occ. eigenvalues --  -10.30529 -10.29911 -10.29649 -10.29498 -10.29264
 Alpha  occ. eigenvalues --  -10.28810 -10.28718 -10.28552 -10.28459 -10.28352
 Alpha  occ. eigenvalues --  -10.28289 -10.28238 -10.28141 -10.28022 -10.27762
 Alpha  occ. eigenvalues --  -10.27681 -10.27084 -10.27052 -10.27003 -10.26597
 Alpha  occ. eigenvalues --  -10.26516 -10.26338 -10.26126 -10.26096 -10.26077
 Alpha  occ. eigenvalues --  -10.26074 -10.26017 -10.25714 -10.25702 -10.25295
 Alpha  occ. eigenvalues --  -10.25205 -10.25195 -10.25182 -10.25085 -10.24994
 Alpha  occ. eigenvalues --  -10.24952 -10.24946 -10.24812 -10.24736 -10.24637
 Alpha  occ. eigenvalues --  -10.24496 -10.24481 -10.24219 -10.24210 -10.24000
 Alpha  occ. eigenvalues --  -10.23719  -3.16576  -1.91479  -1.91006  -1.90911
 Alpha  occ. eigenvalues --   -1.17031  -1.16121  -1.11079  -1.09120  -1.08848
 Alpha  occ. eigenvalues --   -1.06858  -1.05057  -1.04110  -1.02798  -1.01457
 Alpha  occ. eigenvalues --   -0.92933  -0.90098  -0.89964  -0.89628  -0.89035
 Alpha  occ. eigenvalues --   -0.88408  -0.87923  -0.87812  -0.87024  -0.86839
 Alpha  occ. eigenvalues --   -0.85841  -0.85013  -0.83996  -0.83891  -0.83093
 Alpha  occ. eigenvalues --   -0.82807  -0.82182  -0.81707  -0.81062  -0.80315
 Alpha  occ. eigenvalues --   -0.79881  -0.78087  -0.77562  -0.77398  -0.76215
 Alpha  occ. eigenvalues --   -0.75434  -0.75416  -0.74625  -0.74135  -0.73716
 Alpha  occ. eigenvalues --   -0.73245  -0.72979  -0.72070  -0.70699  -0.69945
 Alpha  occ. eigenvalues --   -0.68921  -0.68114  -0.66935  -0.66297  -0.65523
 Alpha  occ. eigenvalues --   -0.65359  -0.64985  -0.64622  -0.64513  -0.63988
 Alpha  occ. eigenvalues --   -0.63580  -0.62713  -0.62692  -0.62529  -0.60037
 Alpha  occ. eigenvalues --   -0.59806  -0.59571  -0.58971  -0.58663  -0.58390
 Alpha  occ. eigenvalues --   -0.57785  -0.56899  -0.56103  -0.55870  -0.55558
 Alpha  occ. eigenvalues --   -0.55196  -0.55017  -0.54687  -0.54628  -0.54148
 Alpha  occ. eigenvalues --   -0.53692  -0.53635  -0.53352  -0.53256  -0.53018
 Alpha  occ. eigenvalues --   -0.52863  -0.52507  -0.52038  -0.51817  -0.51560
 Alpha  occ. eigenvalues --   -0.51502  -0.51266  -0.51084  -0.50864  -0.50776
 Alpha  occ. eigenvalues --   -0.50645  -0.50566  -0.49965  -0.49829  -0.49651
 Alpha  occ. eigenvalues --   -0.49448  -0.49233  -0.49202  -0.49011  -0.48561
 Alpha  occ. eigenvalues --   -0.48410  -0.48222  -0.48116  -0.47864  -0.47758
 Alpha  occ. eigenvalues --   -0.47702  -0.47382  -0.47219  -0.47036  -0.46711
 Alpha  occ. eigenvalues --   -0.46602  -0.46383  -0.46256  -0.46135  -0.45663
 Alpha  occ. eigenvalues --   -0.45616  -0.45420  -0.45280  -0.44970  -0.44940
 Alpha  occ. eigenvalues --   -0.44688  -0.44658  -0.44463  -0.44065  -0.44013
 Alpha  occ. eigenvalues --   -0.43772  -0.43582  -0.43371  -0.43091  -0.42988
 Alpha  occ. eigenvalues --   -0.42759  -0.42655  -0.42352  -0.42249  -0.42193
 Alpha  occ. eigenvalues --   -0.42092  -0.41721  -0.41497  -0.41325  -0.41071
 Alpha  occ. eigenvalues --   -0.40987  -0.40884  -0.40652  -0.40517  -0.40327
 Alpha  occ. eigenvalues --   -0.40236  -0.39928  -0.39540  -0.39102  -0.38433
 Alpha  occ. eigenvalues --   -0.38307  -0.38230  -0.37733  -0.37601  -0.37271
 Alpha  occ. eigenvalues --   -0.37169  -0.36884  -0.36773  -0.36617  -0.36279
 Alpha  occ. eigenvalues --   -0.36065  -0.35543  -0.34952  -0.34735  -0.34328
 Alpha  occ. eigenvalues --   -0.33485  -0.33287  -0.33070  -0.31616  -0.31243
 Alpha  occ. eigenvalues --   -0.30568  -0.30212  -0.29586  -0.29335  -0.24356
 Alpha  occ. eigenvalues --   -0.21285
 Alpha virt. eigenvalues --   -0.08924  -0.01281   0.00626   0.02586   0.02662
 Alpha virt. eigenvalues --    0.03370   0.03789   0.05703   0.05864   0.06764
 Alpha virt. eigenvalues --    0.07698   0.08338   0.08477   0.08562   0.08667

 Mulliken charges:
               1
     1  Mg   0.822273
     2  C   -0.056895
     3  C   -0.082809
     4  C   -0.067109
     5  C   -0.088133
     6  N   -0.332995
     7  C   -0.079848
     8  C    0.041307
     9  C   -0.079352
    10  C    0.112028
    11  C    0.041759
    12  C    0.050590
    13  C    0.038938
    14  C    0.156688
    15  O   -0.253276
    16  O   -0.335515
    17  N   -0.369830
    18  C    0.129331
    19  C   -0.164850
    20  C   -0.084326
    21  C    0.146580
    22  C    0.104584
    23  C    0.018921
    24  O   -0.196384
    25  C    0.057349
    26  N   -0.268241
    27  C   -0.007582
    28  C    0.020298
    29  C   -0.002421
    30  C    0.016442
    31  C    0.061177
    32  C    0.009693
    33  C   -0.002558
    34  N   -0.358126
    35  C    0.125381
    36  C   -0.184752
    37  C    0.026215
    38  C    0.152382
    39  C    0.122748
    40  C   -0.006808
    41  O   -0.175911
    42  C    0.002347
    43  C    0.261913
    44  O   -0.210489
    45  O   -0.322341
    46  C    0.166284
    47  C    0.247413
    48  C   -0.128197
    49  C   -0.181973
    50  C    0.092287
    51  C    0.082942
    52  C    0.029519
    53  C   -0.011738
    54  C   -0.156307
    55  C    0.058897
    56  C    0.069722
    57  C   -0.023336
    58  C    0.063439
    59  C   -0.156398
    60  C    0.061372
    61  C    0.081096
    62  C   -0.007591
    63  C    0.008783
    64  C   -0.129605
    65  C    0.041477
    66  C    0.056850
    67  H   -0.031952
    68  H   -0.005215
    69  H   -0.044134
    70  H    0.024522
    71  H    0.022957
    72  H    0.028957
    73  H    0.019305
    74  H    0.025033
    75  H    0.023915
    76  H    0.029751
    77  H    0.026679
    78  H    0.028986
    79  H    0.022158
    80  H    0.038218
    81  H    0.029465
    82  H    0.036062
    83  H    0.041096
    84  H    0.032911
    85  H    0.009975
    86  H    0.010703
    87  H    0.028576
    88  H    0.012138
    89  H    0.025558
    90  H    0.013476
    91  H    0.010468
    92  H    0.017467
    93  H    0.030032
    94  H    0.020294
    95  H    0.024550
    96  H    0.031894
    97  H    0.043209
    98  H    0.055165
    99  H    0.006436
   100  H    0.037338
   101  H    0.045062
   102  H    0.049757
   103  H    0.046817
   104  H    0.005835
   105  H   -0.020482
   106  H    0.031376
   107  H    0.042682
   108  H    0.018407
   109  H   -0.015985
   110  H   -0.003017
   111  H    0.016906
   112  H   -0.009864
   113  H   -0.001669
   114  H   -0.002877
   115  H    0.018496
   116  H    0.006143
   117  H    0.015518
   118  H   -0.010281
   119  H   -0.005716
   120  H   -0.002729
   121  H    0.001402
   122  H    0.006539
   123  H   -0.003022
   124  H    0.001530
   125  H   -0.004897
   126  H    0.002482
   127  H    0.003348
   128  H   -0.016952
   129  H   -0.002921
   130  H    0.002138
   131  H   -0.001376
   132  H   -0.005116
   133  H   -0.012418
   134  H   -0.006198
   135  H    0.013763
   136  H   -0.010310
   137  H    0.006867
   138  H    0.003621
   139  H    0.002822
   140  H    0.014995
 Sum of Mulliken charges =  -0.00000

 Dipole moment (field-independent basis, Debye):
    X=             -0.8408    Y=              3.6094    Z=             -1.0978  Tot=              3.8652
 Quadrupole moment (field-independent basis, Debye-Ang):
   XX=           -369.7047   YY=           -418.6575   ZZ=           -414.4554
   XY=              7.0548   XZ=             13.6204   YZ=             -1.8053

 Normal termination of Gaussian 16 at Wed May  4 16:11:39 2022.
