 Gaussian 16, Revision A.03,
 Gaussian 16:  ES64L-G16RevA.03 25-Dec-2016

 ---------------------------------
 #p PBE1PBE/Def2SVP td=(nstates=5)
 ---------------------------------

 -----------------------------------------------------
 step_201_chromophore_10 TDDFT with PBE1PBE functional
 -----------------------------------------------------
 Symbolic Z-matrix:
 Charge =  0 Multiplicity = 1

                         Standard orientation:
 ---------------------------------------------------------------------
 Center     Atomic      Atomic             Coordinates (Angstroms)
 Number     Number       Type             X           Y           Z
 ---------------------------------------------------------------------
      1         12           0        5.955444    0.466685    0.080718
      2          6           0        3.902198   -2.258424    0.027009
      3          6           0        3.408320    2.407222   -1.238422
      4          6           0        8.105154    3.048714   -0.062631
      5          6           0        8.568036   -1.556804    0.906960
      6          7           0        3.960953    0.006705   -0.595701
      7          6           0        3.241310   -1.133242   -0.384085
      8          6           0        1.668584   -0.875912   -0.768014
      9          6           0        1.667613    0.602791   -1.222848
     10          6           0        3.111990    1.080166   -0.996062
     11          6           0        1.226648    0.888741   -2.763174
     12          6           0        0.818400   -1.194874    0.519235
     13          6           0       -0.534503   -0.471023    0.640388
     14          6           0       -1.810831   -1.423825    0.880558
     15          8           0       -2.178963   -1.850915    2.006890
     16          8           0       -2.408650   -1.750531   -0.322452
     17          7           0        5.759157    2.492937   -0.568028
     18          6           0        4.653117    3.116835   -1.054050
     19          6           0        4.943827    4.460532   -1.292228
     20          6           0        6.264724    4.718638   -0.737473
     21          6           0        6.821965    3.353973   -0.383556
     22          6           0        3.968750    5.414787   -2.001127
     23          6           0        7.021015    6.113125   -0.547249
     24          8           0        8.115764    6.220075   -0.033232
     25          6           0        6.297009    7.356204   -0.787719
     26          7           0        8.050539    0.753598    0.431460
     27          6           0        8.754050    1.880551    0.335278
     28          6           0       10.192854    1.671047    0.588257
     29          6           0       10.331742    0.170631    1.144593
     30          6           0        8.894022   -0.261713    0.816152
     31          6           0       10.963171    1.976959   -0.718276
     32          6           0       10.550811    0.124410    2.703002
     33          6           0        9.417063    0.680829    3.626140
     34          7           0        6.255277   -1.490348    0.344107
     35          6           0        7.364877   -2.235867    0.613415
     36          6           0        7.060967   -3.667746    0.547412
     37          6           0        5.651397   -3.724367    0.399450
     38          6           0        5.258155   -2.397105    0.272293
     39          6           0        8.104262   -4.828361    0.705327
     40          6           0        4.509316   -4.566933    0.397525
     41          8           0        4.361486   -5.776857    0.543541
     42          6           0        3.278651   -3.684757    0.074997
     43          6           0        2.411593   -4.187101   -1.082816
     44          8           0        2.506898   -3.900686   -2.270866
     45          8           0        1.275047   -4.727594   -0.491989
     46          6           0        0.249167   -5.146012   -1.365194
     47          6           0       -3.172749   -2.983463   -0.335056
     48          6           0       -4.598053   -2.449195   -0.107673
     49          6           0       -5.753827   -3.147867   -0.197762
     50          6           0       -5.910579   -4.606010   -0.220227
     51          6           0       -7.157227   -2.496095   -0.012323
     52          6           0       -7.527982   -1.513065   -1.123062
     53          6           0       -7.829380   -0.049823   -0.552445
     54          6           0       -9.258213    0.518160   -0.913217
     55          6           0       -9.334048    0.719781   -2.489142
     56          6           0       -9.527771    1.943433   -0.187417
     57          6           0      -11.002265    2.149347    0.327705
     58          6           0      -11.060698    1.927967    1.888879
     59          6           0      -12.208551    2.873171    2.428994
     60          6           0      -11.888395    3.405076    3.855622
     61          6           0      -13.496079    2.125586    2.485924
     62          6           0      -14.210174    2.173414    1.104888
     63          6           0      -14.469059    0.733462    0.609377
     64          6           0      -15.239187    0.753998   -0.759145
     65          6           0      -16.323020   -0.347481   -0.912704
     66          6           0      -14.280503    0.704067   -1.932849
     67          1           0        2.586962    3.085286   -1.474174
     68          1           0        8.736035    3.931068    0.058714
     69          1           0        9.401825   -2.173070    1.249255
     70          1           0        1.471084   -1.644781   -1.515155
     71          1           0        0.979058    1.246987   -0.675505
     72          1           0        2.146587    0.845850   -3.344603
     73          1           0        0.769495    1.873109   -2.865890
     74          1           0        0.555234    0.110300   -3.125641
     75          1           0        1.283784   -0.982211    1.482493
     76          1           0        0.531560   -2.245739    0.480315
     77          1           0       -0.865548    0.036325   -0.266489
     78          1           0       -0.540250    0.210352    1.490603
     79          1           0        3.044555    4.999347   -2.402917
     80          1           0        4.461966    5.895374   -2.846257
     81          1           0        3.747687    6.120410   -1.200054
     82          1           0        7.000542    8.143755   -0.517611
     83          1           0        5.467824    7.248419   -0.087536
     84          1           0        5.930713    7.443853   -1.810510
     85          1           0       10.516408    2.358277    1.368635
     86          1           0       10.990453   -0.537194    0.641066
     87          1           0       10.249797    2.266705   -1.490769
     88          1           0       11.530350    1.220554   -1.260050
     89          1           0       11.719096    2.704585   -0.421223
     90          1           0       11.442292    0.706477    2.939800
     91          1           0       10.707017   -0.926379    2.946179
     92          1           0        9.888038    1.469455    4.213487
     93          1           0        8.946059   -0.154664    4.142384
     94          1           0        8.613817    1.237088    3.143972
     95          1           0        8.728305   -4.578780    1.562665
     96          1           0        8.662522   -4.675629   -0.218124
     97          1           0        7.709270   -5.837161    0.824090
     98          1           0        2.754204   -3.627178    1.027888
     99          1           0       -0.664796   -4.583839   -1.173209
    100          1           0        0.009480   -6.188646   -1.155592
    101          1           0        0.447994   -4.986488   -2.425419
    102          1           0       -3.002042   -3.695108    0.472515
    103          1           0       -3.149258   -3.509731   -1.289211
    104          1           0       -4.618298   -1.359592   -0.081736
    105          1           0       -4.920294   -4.994677   -0.458985
    106          1           0       -6.606048   -5.013661   -0.953141
    107          1           0       -6.096044   -4.849972    0.826192
    108          1           0       -7.229481   -2.011144    0.960384
    109          1           0       -7.909395   -3.285502    0.013595
    110          1           0       -8.508400   -1.818174   -1.488739
    111          1           0       -6.773045   -1.393303   -1.900633
    112          1           0       -7.100242    0.625507   -0.999583
    113          1           0       -7.617853    0.022968    0.514432
    114          1           0       -9.979825   -0.246869   -0.626337
    115          1           0       -9.966190    1.588905   -2.669232
    116          1           0       -9.830770   -0.195243   -2.813428
    117          1           0       -8.304942    0.723836   -2.847359
    118          1           0       -9.394405    2.773044   -0.882200
    119          1           0       -8.774792    2.054473    0.592204
    120          1           0      -11.752990    1.503295   -0.127293
    121          1           0      -11.285653    3.159701    0.032436
    122          1           0      -10.115393    2.036171    2.420442
    123          1           0      -11.439026    0.907703    1.954163
    124          1           0      -12.268467    3.775670    1.820537
    125          1           0      -11.886690    4.494833    3.817401
    126          1           0      -10.896603    3.059386    4.145782
    127          1           0      -12.669182    3.211494    4.591391
    128          1           0      -14.134806    2.612064    3.223353
    129          1           0      -13.469670    1.084631    2.808504
    130          1           0      -13.614839    2.675824    0.342681
    131          1           0      -15.151229    2.699263    1.266318
    132          1           0      -15.022902    0.104853    1.307076
    133          1           0      -13.470174    0.316649    0.487995
    134          1           0      -15.759523    1.711470   -0.723234
    135          1           0      -17.187935    0.008964   -1.471723
    136          1           0      -16.728427   -0.625217    0.060547
    137          1           0      -15.889816   -1.277173   -1.283471
    138          1           0      -13.413184    0.089749   -1.689822
    139          1           0      -13.877608    1.715632   -1.985977
    140          1           0      -14.689420    0.339783   -2.875890
 ---------------------------------------------------------------------

 SCF Done:  E(RPBE1PBE) =  -3005.31605050     A.U. after   15 cycles

 Excitation energies and oscillator strengths:

 Excited State   1:      Singlet-A      1.8808 eV  659.21 nm  f=0.4141  <S**2>=0.000
     245 -> 248       -0.15874
     246 -> 247        0.69598
     246 <- 247       -0.11690
 This state for optimization and/or second-order correction.
 Total Energy, E(TD-HF/TD-DFT) =  -3005.24693234
 Copying the excited state density for this state as the 1-particle RhoCI density.

 Excited State   2:      Singlet-A      2.2591 eV  548.81 nm  f=0.1234  <S**2>=0.000
     245 -> 247        0.65728
     246 -> 248        0.23701

 Excited State   3:      Singlet-A      2.9126 eV  425.68 nm  f=0.0125  <S**2>=0.000
     242 -> 247       -0.13204
     243 -> 247        0.67926

 Excited State   4:      Singlet-A      2.9596 eV  418.93 nm  f=0.0005  <S**2>=0.000
     242 -> 247        0.66022
     242 -> 249       -0.17207
     243 -> 247        0.12987

 Excited State   5:      Singlet-A      3.0977 eV  400.25 nm  f=0.0001  <S**2>=0.000
     241 -> 247        0.67984

 The electronic state is 1-A.
 Alpha  occ. eigenvalues --  -46.91292 -19.26716 -19.26309 -19.21450 -19.20620
 Alpha  occ. eigenvalues --  -19.19350 -19.18652 -14.41708 -14.41429 -14.39028
 Alpha  occ. eigenvalues --  -14.38757 -10.37820 -10.37508 -10.32433 -10.31646
 Alpha  occ. eigenvalues --  -10.30168 -10.29052 -10.28885 -10.28518 -10.28353
 Alpha  occ. eigenvalues --  -10.28021 -10.27511 -10.27477 -10.27334 -10.27117
 Alpha  occ. eigenvalues --  -10.26628 -10.26358 -10.26287 -10.26265 -10.26159
 Alpha  occ. eigenvalues --  -10.25988 -10.25888 -10.25780 -10.25681 -10.25407
 Alpha  occ. eigenvalues --  -10.24971 -10.24952 -10.24753 -10.24743 -10.24157
 Alpha  occ. eigenvalues --  -10.24013 -10.24003 -10.23848 -10.23666 -10.23499
 Alpha  occ. eigenvalues --  -10.23457 -10.23269 -10.23138 -10.23116 -10.22962
 Alpha  occ. eigenvalues --  -10.22872 -10.22807 -10.22780 -10.22763 -10.22683
 Alpha  occ. eigenvalues --  -10.22670 -10.22616 -10.22416 -10.22355 -10.22219
 Alpha  occ. eigenvalues --  -10.22058 -10.21896 -10.21599 -10.21595 -10.21575
 Alpha  occ. eigenvalues --  -10.21144  -3.13554  -1.86400  -1.85903  -1.85813
 Alpha  occ. eigenvalues --   -1.11883  -1.11008  -1.05644  -1.04011  -1.03743
 Alpha  occ. eigenvalues --   -1.01763  -0.99695  -0.98857  -0.97300  -0.96091
 Alpha  occ. eigenvalues --   -0.87446  -0.84237  -0.84077  -0.83919  -0.83262
 Alpha  occ. eigenvalues --   -0.82669  -0.82242  -0.81921  -0.81139  -0.81017
 Alpha  occ. eigenvalues --   -0.80177  -0.79285  -0.78285  -0.78112  -0.77322
 Alpha  occ. eigenvalues --   -0.76868  -0.76468  -0.75984  -0.75272  -0.74693
 Alpha  occ. eigenvalues --   -0.74057  -0.72432  -0.71871  -0.71565  -0.70587
 Alpha  occ. eigenvalues --   -0.69754  -0.69495  -0.68834  -0.68289  -0.67892
 Alpha  occ. eigenvalues --   -0.67700  -0.67337  -0.66443  -0.64972  -0.64343
 Alpha  occ. eigenvalues --   -0.63483  -0.62325  -0.61265  -0.60531  -0.60095
 Alpha  occ. eigenvalues --   -0.59806  -0.59433  -0.59183  -0.58772  -0.58106
 Alpha  occ. eigenvalues --   -0.58073  -0.57324  -0.56877  -0.56733  -0.54458
 Alpha  occ. eigenvalues --   -0.54218  -0.54178  -0.53518  -0.53224  -0.53008
 Alpha  occ. eigenvalues --   -0.52349  -0.51320  -0.50664  -0.50429  -0.50084
 Alpha  occ. eigenvalues --   -0.49806  -0.49564  -0.49235  -0.48959  -0.48676
 Alpha  occ. eigenvalues --   -0.48303  -0.48151  -0.47878  -0.47767  -0.47375
 Alpha  occ. eigenvalues --   -0.47334  -0.46945  -0.46654  -0.46443  -0.46185
 Alpha  occ. eigenvalues --   -0.46061  -0.45888  -0.45599  -0.45320  -0.45273
 Alpha  occ. eigenvalues --   -0.45184  -0.45114  -0.44597  -0.44461  -0.44274
 Alpha  occ. eigenvalues --   -0.44034  -0.43831  -0.43740  -0.43607  -0.43145
 Alpha  occ. eigenvalues --   -0.43055  -0.42810  -0.42701  -0.42490  -0.42368
 Alpha  occ. eigenvalues --   -0.42344  -0.42042  -0.41971  -0.41681  -0.41329
 Alpha  occ. eigenvalues --   -0.41240  -0.41061  -0.40994  -0.40934  -0.40385
 Alpha  occ. eigenvalues --   -0.40329  -0.40052  -0.39914  -0.39727  -0.39649
 Alpha  occ. eigenvalues --   -0.39463  -0.39418  -0.39189  -0.38877  -0.38822
 Alpha  occ. eigenvalues --   -0.38423  -0.38277  -0.38105  -0.37921  -0.37850
 Alpha  occ. eigenvalues --   -0.37550  -0.37473  -0.37161  -0.37089  -0.36932
 Alpha  occ. eigenvalues --   -0.36840  -0.36656  -0.36234  -0.36218  -0.35822
 Alpha  occ. eigenvalues --   -0.35760  -0.35747  -0.35586  -0.35397  -0.35246
 Alpha  occ. eigenvalues --   -0.35149  -0.34884  -0.34318  -0.33975  -0.33293
 Alpha  occ. eigenvalues --   -0.33188  -0.33096  -0.32577  -0.32472  -0.32339
 Alpha  occ. eigenvalues --   -0.31967  -0.31863  -0.31759  -0.31631  -0.31185
 Alpha  occ. eigenvalues --   -0.30958  -0.30428  -0.29934  -0.29883  -0.29314
 Alpha  occ. eigenvalues --   -0.28997  -0.28332  -0.28112  -0.27224  -0.26044
 Alpha  occ. eigenvalues --   -0.25923  -0.25497  -0.24992  -0.24634  -0.21228
 Alpha  occ. eigenvalues --   -0.18913
 Alpha virt. eigenvalues --   -0.11360  -0.04849  -0.03654  -0.01803  -0.01447
 Alpha virt. eigenvalues --   -0.00967   0.00035   0.01313   0.01693   0.03082
 Alpha virt. eigenvalues --    0.04001   0.04713   0.04980   0.05235   0.05307

 Mulliken charges:
               1
     1  Mg   0.974620
     2  C   -0.067500
     3  C   -0.068816
     4  C   -0.062006
     5  C   -0.079778
     6  N   -0.432208
     7  C    0.004210
     8  C   -0.033627
     9  C   -0.149332
    10  C    0.134618
    11  C   -0.016354
    12  C   -0.000763
    13  C   -0.035813
    14  C    0.218732
    15  O   -0.282244
    16  O   -0.363582
    17  N   -0.485217
    18  C    0.158886
    19  C   -0.199864
    20  C   -0.126594
    21  C    0.175515
    22  C    0.046123
    23  C    0.069541
    24  O   -0.234156
    25  C   -0.019209
    26  N   -0.373891
    27  C    0.025541
    28  C   -0.058057
    29  C   -0.077948
    30  C    0.051198
    31  C    0.008792
    32  C   -0.046385
    33  C   -0.076778
    34  N   -0.487160
    35  C    0.145967
    36  C   -0.189102
    37  C   -0.024505
    38  C    0.190292
    39  C    0.069398
    40  C    0.093304
    41  O   -0.222027
    42  C   -0.098491
    43  C    0.336210
    44  O   -0.245431
    45  O   -0.353495
    46  C    0.109081
    47  C    0.198602
    48  C   -0.124573
    49  C   -0.231099
    50  C    0.019801
    51  C    0.026377
    52  C   -0.035880
    53  C   -0.062252
    54  C   -0.238659
    55  C   -0.002250
    56  C    0.016129
    57  C   -0.091956
    58  C    0.012728
    59  C   -0.248375
    60  C    0.004233
    61  C    0.028007
    62  C   -0.070209
    63  C   -0.046974
    64  C   -0.223782
    65  C   -0.020176
    66  C   -0.005573
    67  H    0.000918
    68  H    0.026495
    69  H   -0.012431
    70  H    0.062895
    71  H    0.059758
    72  H    0.057544
    73  H    0.045678
    74  H    0.052223
    75  H    0.054956
    76  H    0.067929
    77  H    0.059279
    78  H    0.060967
    79  H    0.046852
    80  H    0.064856
    81  H    0.057276
    82  H    0.062578
    83  H    0.068256
    84  H    0.059166
    85  H    0.046322
    86  H    0.045335
    87  H    0.057091
    88  H    0.038568
    89  H    0.051942
    90  H    0.047264
    91  H    0.042871
    92  H    0.044975
    93  H    0.057319
    94  H    0.051850
    95  H    0.051891
    96  H    0.060862
    97  H    0.070038
    98  H    0.093245
    99  H    0.034715
   100  H    0.059876
   101  H    0.065885
   102  H    0.075952
   103  H    0.071961
   104  H    0.035851
   105  H    0.009650
   106  H    0.058713
   107  H    0.071715
   108  H    0.050120
   109  H    0.016184
   110  H    0.031380
   111  H    0.047949
   112  H    0.023477
   113  H    0.029431
   114  H    0.034209
   115  H    0.046127
   116  H    0.033731
   117  H    0.042907
   118  H    0.022302
   119  H    0.026045
   120  H    0.036661
   121  H    0.032626
   122  H    0.035954
   123  H    0.031279
   124  H    0.038850
   125  H    0.023356
   126  H    0.029680
   127  H    0.029754
   128  H    0.017249
   129  H    0.029004
   130  H    0.035013
   131  H    0.032235
   132  H    0.026963
   133  H    0.021324
   134  H    0.032497
   135  H    0.041566
   136  H    0.017753
   137  H    0.034402
   138  H    0.030976
   139  H    0.031347
   140  H    0.042745
 Sum of Mulliken charges =  -0.00000

 Dipole moment (field-independent basis, Debye):
    X=             -0.8977    Y=              3.1656    Z=             -0.9824  Tot=              3.4339
 Quadrupole moment (field-independent basis, Debye-Ang):
   XX=           -364.3415   YY=           -416.4526   ZZ=           -411.9103
   XY=              4.2068   XZ=             14.6847   YZ=             -1.7002

 Normal termination of Gaussian 16 at Wed May  4 16:37:33 2022.
