 Gaussian 16, Revision A.03,
 Gaussian 16:  ES64L-G16RevA.03 25-Dec-2016

 --------------------------------
 #p wB97XD/Def2SVP td=(nstates=5)
 --------------------------------

 ----------------------------------------------------
 step_201_chromophore_10 TDDFT with wB97XD functional
 ----------------------------------------------------
 Symbolic Z-matrix:
 Charge =  0 Multiplicity = 1

                         Standard orientation:
 ---------------------------------------------------------------------
 Center     Atomic      Atomic             Coordinates (Angstroms)
 Number     Number       Type             X           Y           Z
 ---------------------------------------------------------------------
      1         12           0        5.955444    0.466685    0.080718
      2          6           0        3.902198   -2.258424    0.027009
      3          6           0        3.408320    2.407222   -1.238422
      4          6           0        8.105154    3.048714   -0.062631
      5          6           0        8.568036   -1.556804    0.906960
      6          7           0        3.960953    0.006705   -0.595701
      7          6           0        3.241310   -1.133242   -0.384085
      8          6           0        1.668584   -0.875912   -0.768014
      9          6           0        1.667613    0.602791   -1.222848
     10          6           0        3.111990    1.080166   -0.996062
     11          6           0        1.226648    0.888741   -2.763174
     12          6           0        0.818400   -1.194874    0.519235
     13          6           0       -0.534503   -0.471023    0.640388
     14          6           0       -1.810831   -1.423825    0.880558
     15          8           0       -2.178963   -1.850915    2.006890
     16          8           0       -2.408650   -1.750531   -0.322452
     17          7           0        5.759157    2.492937   -0.568028
     18          6           0        4.653117    3.116835   -1.054050
     19          6           0        4.943827    4.460532   -1.292228
     20          6           0        6.264724    4.718638   -0.737473
     21          6           0        6.821965    3.353973   -0.383556
     22          6           0        3.968750    5.414787   -2.001127
     23          6           0        7.021015    6.113125   -0.547249
     24          8           0        8.115764    6.220075   -0.033232
     25          6           0        6.297009    7.356204   -0.787719
     26          7           0        8.050539    0.753598    0.431460
     27          6           0        8.754050    1.880551    0.335278
     28          6           0       10.192854    1.671047    0.588257
     29          6           0       10.331742    0.170631    1.144593
     30          6           0        8.894022   -0.261713    0.816152
     31          6           0       10.963171    1.976959   -0.718276
     32          6           0       10.550811    0.124410    2.703002
     33          6           0        9.417063    0.680829    3.626140
     34          7           0        6.255277   -1.490348    0.344107
     35          6           0        7.364877   -2.235867    0.613415
     36          6           0        7.060967   -3.667746    0.547412
     37          6           0        5.651397   -3.724367    0.399450
     38          6           0        5.258155   -2.397105    0.272293
     39          6           0        8.104262   -4.828361    0.705327
     40          6           0        4.509316   -4.566933    0.397525
     41          8           0        4.361486   -5.776857    0.543541
     42          6           0        3.278651   -3.684757    0.074997
     43          6           0        2.411593   -4.187101   -1.082816
     44          8           0        2.506898   -3.900686   -2.270866
     45          8           0        1.275047   -4.727594   -0.491989
     46          6           0        0.249167   -5.146012   -1.365194
     47          6           0       -3.172749   -2.983463   -0.335056
     48          6           0       -4.598053   -2.449195   -0.107673
     49          6           0       -5.753827   -3.147867   -0.197762
     50          6           0       -5.910579   -4.606010   -0.220227
     51          6           0       -7.157227   -2.496095   -0.012323
     52          6           0       -7.527982   -1.513065   -1.123062
     53          6           0       -7.829380   -0.049823   -0.552445
     54          6           0       -9.258213    0.518160   -0.913217
     55          6           0       -9.334048    0.719781   -2.489142
     56          6           0       -9.527771    1.943433   -0.187417
     57          6           0      -11.002265    2.149347    0.327705
     58          6           0      -11.060698    1.927967    1.888879
     59          6           0      -12.208551    2.873171    2.428994
     60          6           0      -11.888395    3.405076    3.855622
     61          6           0      -13.496079    2.125586    2.485924
     62          6           0      -14.210174    2.173414    1.104888
     63          6           0      -14.469059    0.733462    0.609377
     64          6           0      -15.239187    0.753998   -0.759145
     65          6           0      -16.323020   -0.347481   -0.912704
     66          6           0      -14.280503    0.704067   -1.932849
     67          1           0        2.586962    3.085286   -1.474174
     68          1           0        8.736035    3.931068    0.058714
     69          1           0        9.401825   -2.173070    1.249255
     70          1           0        1.471084   -1.644781   -1.515155
     71          1           0        0.979058    1.246987   -0.675505
     72          1           0        2.146587    0.845850   -3.344603
     73          1           0        0.769495    1.873109   -2.865890
     74          1           0        0.555234    0.110300   -3.125641
     75          1           0        1.283784   -0.982211    1.482493
     76          1           0        0.531560   -2.245739    0.480315
     77          1           0       -0.865548    0.036325   -0.266489
     78          1           0       -0.540250    0.210352    1.490603
     79          1           0        3.044555    4.999347   -2.402917
     80          1           0        4.461966    5.895374   -2.846257
     81          1           0        3.747687    6.120410   -1.200054
     82          1           0        7.000542    8.143755   -0.517611
     83          1           0        5.467824    7.248419   -0.087536
     84          1           0        5.930713    7.443853   -1.810510
     85          1           0       10.516408    2.358277    1.368635
     86          1           0       10.990453   -0.537194    0.641066
     87          1           0       10.249797    2.266705   -1.490769
     88          1           0       11.530350    1.220554   -1.260050
     89          1           0       11.719096    2.704585   -0.421223
     90          1           0       11.442292    0.706477    2.939800
     91          1           0       10.707017   -0.926379    2.946179
     92          1           0        9.888038    1.469455    4.213487
     93          1           0        8.946059   -0.154664    4.142384
     94          1           0        8.613817    1.237088    3.143972
     95          1           0        8.728305   -4.578780    1.562665
     96          1           0        8.662522   -4.675629   -0.218124
     97          1           0        7.709270   -5.837161    0.824090
     98          1           0        2.754204   -3.627178    1.027888
     99          1           0       -0.664796   -4.583839   -1.173209
    100          1           0        0.009480   -6.188646   -1.155592
    101          1           0        0.447994   -4.986488   -2.425419
    102          1           0       -3.002042   -3.695108    0.472515
    103          1           0       -3.149258   -3.509731   -1.289211
    104          1           0       -4.618298   -1.359592   -0.081736
    105          1           0       -4.920294   -4.994677   -0.458985
    106          1           0       -6.606048   -5.013661   -0.953141
    107          1           0       -6.096044   -4.849972    0.826192
    108          1           0       -7.229481   -2.011144    0.960384
    109          1           0       -7.909395   -3.285502    0.013595
    110          1           0       -8.508400   -1.818174   -1.488739
    111          1           0       -6.773045   -1.393303   -1.900633
    112          1           0       -7.100242    0.625507   -0.999583
    113          1           0       -7.617853    0.022968    0.514432
    114          1           0       -9.979825   -0.246869   -0.626337
    115          1           0       -9.966190    1.588905   -2.669232
    116          1           0       -9.830770   -0.195243   -2.813428
    117          1           0       -8.304942    0.723836   -2.847359
    118          1           0       -9.394405    2.773044   -0.882200
    119          1           0       -8.774792    2.054473    0.592204
    120          1           0      -11.752990    1.503295   -0.127293
    121          1           0      -11.285653    3.159701    0.032436
    122          1           0      -10.115393    2.036171    2.420442
    123          1           0      -11.439026    0.907703    1.954163
    124          1           0      -12.268467    3.775670    1.820537
    125          1           0      -11.886690    4.494833    3.817401
    126          1           0      -10.896603    3.059386    4.145782
    127          1           0      -12.669182    3.211494    4.591391
    128          1           0      -14.134806    2.612064    3.223353
    129          1           0      -13.469670    1.084631    2.808504
    130          1           0      -13.614839    2.675824    0.342681
    131          1           0      -15.151229    2.699263    1.266318
    132          1           0      -15.022902    0.104853    1.307076
    133          1           0      -13.470174    0.316649    0.487995
    134          1           0      -15.759523    1.711470   -0.723234
    135          1           0      -17.187935    0.008964   -1.471723
    136          1           0      -16.728427   -0.625217    0.060547
    137          1           0      -15.889816   -1.277173   -1.283471
    138          1           0      -13.413184    0.089749   -1.689822
    139          1           0      -13.877608    1.715632   -1.985977
    140          1           0      -14.689420    0.339783   -2.875890
 ---------------------------------------------------------------------

 SCF Done:  E(RwB97XD) =  -3007.83009663     A.U. after   19 cycles

 Excitation energies and oscillator strengths:

 Excited State   1:      Singlet-A      1.6747 eV  740.33 nm  f=0.4271  <S**2>=0.000
     245 -> 248        0.16709
     246 -> 247        0.68609
     245 <- 248        0.11062
 This state for optimization and/or second-order correction.
 Total Energy, E(TD-HF/TD-DFT) =  -3007.76855234
 Copying the excited state density for this state as the 1-particle RhoCI density.

 Excited State   2:      Singlet-A      2.2048 eV  562.33 nm  f=0.1282  <S**2>=0.000
     245 -> 247        0.64527
     246 -> 248       -0.26494

 Excited State   3:      Singlet-A      3.2560 eV  380.79 nm  f=0.0118  <S**2>=0.000
     243 -> 247        0.68291
     246 -> 248        0.10936

 Excited State   4:      Singlet-A      3.5452 eV  349.73 nm  f=0.0125  <S**2>=0.000
     241 -> 247        0.35336
     241 -> 249        0.27985
     241 -> 250        0.16278
     242 -> 247        0.42339
     242 -> 249        0.20475
     242 -> 250        0.10297
     246 -> 248        0.12240

 Excited State   5:      Singlet-A      3.6470 eV  339.96 nm  f=0.0728  <S**2>=0.000
     240 -> 247        0.23591
     241 -> 247        0.41294
     241 -> 249        0.13167
     242 -> 247       -0.36167
     246 -> 248       -0.27058

 The electronic state is 1-A.
 Alpha  occ. eigenvalues --  -46.94246 -19.31210 -19.30780 -19.26075 -19.25251
 Alpha  occ. eigenvalues --  -19.24383 -19.23261 -14.46671 -14.46640 -14.43859
 Alpha  occ. eigenvalues --  -14.43834 -10.44583 -10.44227 -10.39485 -10.38337
 Alpha  occ. eigenvalues --  -10.36613 -10.35502 -10.34997 -10.34943 -10.34848
 Alpha  occ. eigenvalues --  -10.34628 -10.33997 -10.33608 -10.33453 -10.33327
 Alpha  occ. eigenvalues --  -10.33011 -10.32826 -10.32620 -10.32558 -10.32401
 Alpha  occ. eigenvalues --  -10.32350 -10.32277 -10.32079 -10.32049 -10.31729
 Alpha  occ. eigenvalues --  -10.31666 -10.31136 -10.31048 -10.30999 -10.30444
 Alpha  occ. eigenvalues --  -10.30406 -10.30327 -10.30158 -10.30097 -10.30074
 Alpha  occ. eigenvalues --  -10.30023 -10.29886 -10.29534 -10.29533 -10.29239
 Alpha  occ. eigenvalues --  -10.29156 -10.29133 -10.29116 -10.29044 -10.28961
 Alpha  occ. eigenvalues --  -10.28933 -10.28922 -10.28754 -10.28685 -10.28575
 Alpha  occ. eigenvalues --  -10.28422 -10.28317 -10.28029 -10.28024 -10.27922
 Alpha  occ. eigenvalues --  -10.27544  -3.20345  -1.93944  -1.93449  -1.93354
 Alpha  occ. eigenvalues --   -1.19190  -1.18344  -1.13336  -1.11311  -1.11026
 Alpha  occ. eigenvalues --   -1.09081  -1.07053  -1.06120  -1.04873  -1.03461
 Alpha  occ. eigenvalues --   -0.94889  -0.91891  -0.91737  -0.91563  -0.90878
 Alpha  occ. eigenvalues --   -0.90294  -0.89848  -0.89584  -0.88836  -0.88766
 Alpha  occ. eigenvalues --   -0.87781  -0.86931  -0.85883  -0.85759  -0.84969
 Alpha  occ. eigenvalues --   -0.84760  -0.84077  -0.83603  -0.82923  -0.82255
 Alpha  occ. eigenvalues --   -0.81712  -0.80021  -0.79473  -0.79370  -0.78147
 Alpha  occ. eigenvalues --   -0.77378  -0.77193  -0.76482  -0.75958  -0.75555
 Alpha  occ. eigenvalues --   -0.75194  -0.74914  -0.74028  -0.72617  -0.71874
 Alpha  occ. eigenvalues --   -0.70907  -0.69979  -0.68950  -0.68163  -0.67505
 Alpha  occ. eigenvalues --   -0.67296  -0.66982  -0.66600  -0.66397  -0.65790
 Alpha  occ. eigenvalues --   -0.65546  -0.64680  -0.64531  -0.64362  -0.62037
 Alpha  occ. eigenvalues --   -0.61708  -0.61531  -0.60928  -0.60615  -0.60368
 Alpha  occ. eigenvalues --   -0.59795  -0.58784  -0.58119  -0.57804  -0.57553
 Alpha  occ. eigenvalues --   -0.57153  -0.56941  -0.56619  -0.56471  -0.56070
 Alpha  occ. eigenvalues --   -0.55593  -0.55558  -0.55302  -0.55170  -0.54964
 Alpha  occ. eigenvalues --   -0.54752  -0.54353  -0.53975  -0.53745  -0.53472
 Alpha  occ. eigenvalues --   -0.53402  -0.53162  -0.52972  -0.52840  -0.52646
 Alpha  occ. eigenvalues --   -0.52530  -0.52449  -0.51880  -0.51761  -0.51569
 Alpha  occ. eigenvalues --   -0.51348  -0.51173  -0.51135  -0.50932  -0.50494
 Alpha  occ. eigenvalues --   -0.50339  -0.50113  -0.50018  -0.49804  -0.49650
 Alpha  occ. eigenvalues --   -0.49614  -0.49310  -0.49181  -0.48980  -0.48591
 Alpha  occ. eigenvalues --   -0.48488  -0.48249  -0.48138  -0.48038  -0.47595
 Alpha  occ. eigenvalues --   -0.47528  -0.47266  -0.47144  -0.46888  -0.46823
 Alpha  occ. eigenvalues --   -0.46614  -0.46580  -0.46340  -0.45996  -0.45968
 Alpha  occ. eigenvalues --   -0.45724  -0.45451  -0.45231  -0.45020  -0.44933
 Alpha  occ. eigenvalues --   -0.44714  -0.44588  -0.44315  -0.44188  -0.44062
 Alpha  occ. eigenvalues --   -0.44037  -0.43701  -0.43358  -0.43213  -0.42921
 Alpha  occ. eigenvalues --   -0.42845  -0.42777  -0.42591  -0.42412  -0.42247
 Alpha  occ. eigenvalues --   -0.42142  -0.41829  -0.41404  -0.40999  -0.40303
 Alpha  occ. eigenvalues --   -0.40166  -0.40133  -0.39572  -0.39525  -0.39377
 Alpha  occ. eigenvalues --   -0.39021  -0.38762  -0.38702  -0.38599  -0.38182
 Alpha  occ. eigenvalues --   -0.37948  -0.37470  -0.36816  -0.36742  -0.36157
 Alpha  occ. eigenvalues --   -0.35642  -0.35316  -0.34919  -0.33821  -0.33239
 Alpha  occ. eigenvalues --   -0.32536  -0.32330  -0.31807  -0.31378  -0.26288
 Alpha  occ. eigenvalues --   -0.23094
 Alpha virt. eigenvalues --   -0.07269   0.00643   0.02677   0.04670   0.05370
 Alpha virt. eigenvalues --    0.05944   0.05973   0.08040   0.08365   0.09444
 Alpha virt. eigenvalues --    0.10517   0.11454   0.11755   0.11873   0.12006

 Mulliken charges:
               1
     1  Mg   0.961875
     2  C   -0.070602
     3  C   -0.091656
     4  C   -0.077638
     5  C   -0.092183
     6  N   -0.404013
     7  C   -0.031083
     8  C   -0.006831
     9  C   -0.128963
    10  C    0.131978
    11  C   -0.003505
    12  C    0.013285
    13  C   -0.017773
    14  C    0.207983
    15  O   -0.280130
    16  O   -0.363893
    17  N   -0.451242
    18  C    0.151573
    19  C   -0.186006
    20  C   -0.122433
    21  C    0.169287
    22  C    0.057563
    23  C    0.068485
    24  O   -0.227835
    25  C   -0.006980
    26  N   -0.338386
    27  C    0.015802
    28  C   -0.037183
    29  C   -0.051415
    30  C    0.037085
    31  C    0.016007
    32  C   -0.035172
    33  C   -0.058386
    34  N   -0.449525
    35  C    0.133180
    36  C   -0.190477
    37  C   -0.022696
    38  C    0.179352
    39  C    0.080434
    40  C    0.075398
    41  O   -0.213831
    42  C   -0.063664
    43  C    0.316178
    44  O   -0.239872
    45  O   -0.351954
    46  C    0.127758
    47  C    0.214776
    48  C   -0.138368
    49  C   -0.213682
    50  C    0.037229
    51  C    0.040924
    52  C   -0.019042
    53  C   -0.046028
    54  C   -0.210479
    55  C    0.011311
    56  C    0.031515
    57  C   -0.060524
    58  C    0.024825
    59  C   -0.213168
    60  C    0.016285
    61  C    0.040838
    62  C   -0.049649
    63  C   -0.026148
    64  C   -0.193290
    65  C   -0.007411
    66  C    0.007781
    67  H   -0.008213
    68  H    0.021804
    69  H   -0.018896
    70  H    0.051975
    71  H    0.047995
    72  H    0.050421
    73  H    0.040303
    74  H    0.047533
    75  H    0.049297
    76  H    0.052443
    77  H    0.050483
    78  H    0.056264
    79  H    0.045437
    80  H    0.060646
    81  H    0.051069
    82  H    0.062456
    83  H    0.061752
    84  H    0.054584
    85  H    0.037252
    86  H    0.038417
    87  H    0.049537
    88  H    0.034661
    89  H    0.047347
    90  H    0.038960
    91  H    0.035248
    92  H    0.039921
    93  H    0.052776
    94  H    0.039421
    95  H    0.045221
    96  H    0.054086
    97  H    0.067546
    98  H    0.084985
    99  H    0.026385
   100  H    0.055661
   101  H    0.061862
   102  H    0.070678
   103  H    0.067424
   104  H    0.030870
   105  H    0.002033
   106  H    0.054123
   107  H    0.065412
   108  H    0.041976
   109  H    0.009697
   110  H    0.020686
   111  H    0.040145
   112  H    0.012719
   113  H    0.019146
   114  H    0.021098
   115  H    0.039667
   116  H    0.027266
   117  H    0.035983
   118  H    0.014166
   119  H    0.016640
   120  H    0.011513
   121  H    0.022964
   122  H    0.027921
   123  H    0.019240
   124  H    0.025755
   125  H    0.017563
   126  H    0.023433
   127  H    0.023592
   128  H    0.008360
   129  H    0.019287
   130  H    0.019026
   131  H    0.024459
   132  H    0.018433
   133  H    0.005121
   134  H    0.020378
   135  H    0.036496
   136  H    0.010859
   137  H    0.028138
   138  H    0.023020
   139  H    0.023996
   140  H    0.038489
 Sum of Mulliken charges =  -0.00000

 Dipole moment (field-independent basis, Debye):
    X=             -0.8375    Y=              3.8118    Z=             -1.1206  Tot=              4.0604
 Quadrupole moment (field-independent basis, Debye-Ang):
   XX=           -364.4849   YY=           -414.0599   ZZ=           -411.5850
   XY=              8.1875   XZ=             14.1311   YZ=             -1.9887

 Normal termination of Gaussian 16 at Wed May  4 17:23:47 2022.
