 Gaussian 16, Revision A.03,
 Gaussian 16:  ES64L-G16RevA.03 25-Dec-2016

 --------------------
 #p ZINDO=(nstates=5)
 --------------------

 -----------------------------
 step_201_chromophore_10 ZINDO
 -----------------------------
 Symbolic Z-matrix:
 Charge =  0 Multiplicity = 1

                         Standard orientation:
 ---------------------------------------------------------------------
 Center     Atomic      Atomic             Coordinates (Angstroms)
 Number     Number       Type             X           Y           Z
 ---------------------------------------------------------------------
      1         12           0        5.955444    0.466685    0.080718
      2          6           0        3.902198   -2.258424    0.027009
      3          6           0        3.408320    2.407222   -1.238422
      4          6           0        8.105154    3.048714   -0.062631
      5          6           0        8.568036   -1.556804    0.906960
      6          7           0        3.960953    0.006705   -0.595701
      7          6           0        3.241310   -1.133242   -0.384085
      8          6           0        1.668584   -0.875912   -0.768014
      9          6           0        1.667613    0.602791   -1.222848
     10          6           0        3.111990    1.080166   -0.996062
     11          6           0        1.226648    0.888741   -2.763174
     12          6           0        0.818400   -1.194874    0.519235
     13          6           0       -0.534503   -0.471023    0.640388
     14          6           0       -1.810831   -1.423825    0.880558
     15          8           0       -2.178963   -1.850915    2.006890
     16          8           0       -2.408650   -1.750531   -0.322452
     17          7           0        5.759157    2.492937   -0.568028
     18          6           0        4.653117    3.116835   -1.054050
     19          6           0        4.943827    4.460532   -1.292228
     20          6           0        6.264724    4.718638   -0.737473
     21          6           0        6.821965    3.353973   -0.383556
     22          6           0        3.968750    5.414787   -2.001127
     23          6           0        7.021015    6.113125   -0.547249
     24          8           0        8.115764    6.220075   -0.033232
     25          6           0        6.297009    7.356204   -0.787719
     26          7           0        8.050539    0.753598    0.431460
     27          6           0        8.754050    1.880551    0.335278
     28          6           0       10.192854    1.671047    0.588257
     29          6           0       10.331742    0.170631    1.144593
     30          6           0        8.894022   -0.261713    0.816152
     31          6           0       10.963171    1.976959   -0.718276
     32          6           0       10.550811    0.124410    2.703002
     33          6           0        9.417063    0.680829    3.626140
     34          7           0        6.255277   -1.490348    0.344107
     35          6           0        7.364877   -2.235867    0.613415
     36          6           0        7.060967   -3.667746    0.547412
     37          6           0        5.651397   -3.724367    0.399450
     38          6           0        5.258155   -2.397105    0.272293
     39          6           0        8.104262   -4.828361    0.705327
     40          6           0        4.509316   -4.566933    0.397525
     41          8           0        4.361486   -5.776857    0.543541
     42          6           0        3.278651   -3.684757    0.074997
     43          6           0        2.411593   -4.187101   -1.082816
     44          8           0        2.506898   -3.900686   -2.270866
     45          8           0        1.275047   -4.727594   -0.491989
     46          6           0        0.249167   -5.146012   -1.365194
     47          6           0       -3.172749   -2.983463   -0.335056
     48          6           0       -4.598053   -2.449195   -0.107673
     49          6           0       -5.753827   -3.147867   -0.197762
     50          6           0       -5.910579   -4.606010   -0.220227
     51          6           0       -7.157227   -2.496095   -0.012323
     52          6           0       -7.527982   -1.513065   -1.123062
     53          6           0       -7.829380   -0.049823   -0.552445
     54          6           0       -9.258213    0.518160   -0.913217
     55          6           0       -9.334048    0.719781   -2.489142
     56          6           0       -9.527771    1.943433   -0.187417
     57          6           0      -11.002265    2.149347    0.327705
     58          6           0      -11.060698    1.927967    1.888879
     59          6           0      -12.208551    2.873171    2.428994
     60          6           0      -11.888395    3.405076    3.855622
     61          6           0      -13.496079    2.125586    2.485924
     62          6           0      -14.210174    2.173414    1.104888
     63          6           0      -14.469059    0.733462    0.609377
     64          6           0      -15.239187    0.753998   -0.759145
     65          6           0      -16.323020   -0.347481   -0.912704
     66          6           0      -14.280503    0.704067   -1.932849
     67          1           0        2.586962    3.085286   -1.474174
     68          1           0        8.736035    3.931068    0.058714
     69          1           0        9.401825   -2.173070    1.249255
     70          1           0        1.471084   -1.644781   -1.515155
     71          1           0        0.979058    1.246987   -0.675505
     72          1           0        2.146587    0.845850   -3.344603
     73          1           0        0.769495    1.873109   -2.865890
     74          1           0        0.555234    0.110300   -3.125641
     75          1           0        1.283784   -0.982211    1.482493
     76          1           0        0.531560   -2.245739    0.480315
     77          1           0       -0.865548    0.036325   -0.266489
     78          1           0       -0.540250    0.210352    1.490603
     79          1           0        3.044555    4.999347   -2.402917
     80          1           0        4.461966    5.895374   -2.846257
     81          1           0        3.747687    6.120410   -1.200054
     82          1           0        7.000542    8.143755   -0.517611
     83          1           0        5.467824    7.248419   -0.087536
     84          1           0        5.930713    7.443853   -1.810510
     85          1           0       10.516408    2.358277    1.368635
     86          1           0       10.990453   -0.537194    0.641066
     87          1           0       10.249797    2.266705   -1.490769
     88          1           0       11.530350    1.220554   -1.260050
     89          1           0       11.719096    2.704585   -0.421223
     90          1           0       11.442292    0.706477    2.939800
     91          1           0       10.707017   -0.926379    2.946179
     92          1           0        9.888038    1.469455    4.213487
     93          1           0        8.946059   -0.154664    4.142384
     94          1           0        8.613817    1.237088    3.143972
     95          1           0        8.728305   -4.578780    1.562665
     96          1           0        8.662522   -4.675629   -0.218124
     97          1           0        7.709270   -5.837161    0.824090
     98          1           0        2.754204   -3.627178    1.027888
     99          1           0       -0.664796   -4.583839   -1.173209
    100          1           0        0.009480   -6.188646   -1.155592
    101          1           0        0.447994   -4.986488   -2.425419
    102          1           0       -3.002042   -3.695108    0.472515
    103          1           0       -3.149258   -3.509731   -1.289211
    104          1           0       -4.618298   -1.359592   -0.081736
    105          1           0       -4.920294   -4.994677   -0.458985
    106          1           0       -6.606048   -5.013661   -0.953141
    107          1           0       -6.096044   -4.849972    0.826192
    108          1           0       -7.229481   -2.011144    0.960384
    109          1           0       -7.909395   -3.285502    0.013595
    110          1           0       -8.508400   -1.818174   -1.488739
    111          1           0       -6.773045   -1.393303   -1.900633
    112          1           0       -7.100242    0.625507   -0.999583
    113          1           0       -7.617853    0.022968    0.514432
    114          1           0       -9.979825   -0.246869   -0.626337
    115          1           0       -9.966190    1.588905   -2.669232
    116          1           0       -9.830770   -0.195243   -2.813428
    117          1           0       -8.304942    0.723836   -2.847359
    118          1           0       -9.394405    2.773044   -0.882200
    119          1           0       -8.774792    2.054473    0.592204
    120          1           0      -11.752990    1.503295   -0.127293
    121          1           0      -11.285653    3.159701    0.032436
    122          1           0      -10.115393    2.036171    2.420442
    123          1           0      -11.439026    0.907703    1.954163
    124          1           0      -12.268467    3.775670    1.820537
    125          1           0      -11.886690    4.494833    3.817401
    126          1           0      -10.896603    3.059386    4.145782
    127          1           0      -12.669182    3.211494    4.591391
    128          1           0      -14.134806    2.612064    3.223353
    129          1           0      -13.469670    1.084631    2.808504
    130          1           0      -13.614839    2.675824    0.342681
    131          1           0      -15.151229    2.699263    1.266318
    132          1           0      -15.022902    0.104853    1.307076
    133          1           0      -13.470174    0.316649    0.487995
    134          1           0      -15.759523    1.711470   -0.723234
    135          1           0      -17.187935    0.008964   -1.471723
    136          1           0      -16.728427   -0.625217    0.060547
    137          1           0      -15.889816   -1.277173   -1.283471
    138          1           0      -13.413184    0.089749   -1.689822
    139          1           0      -13.877608    1.715632   -1.985977
    140          1           0      -14.689420    0.339783   -2.875890
 ---------------------------------------------------------------------

 SCF Done:  E(RZINDO/S) =  -474.107533046     A.U. after   19 cycles

 Excitation energies and oscillator strengths:

 Excited State   1:      Singlet-A      1.2575 eV  985.93 nm  f=0.6497  <S**2>=0.000
     175 ->178         0.16599
     176 ->177         0.66862
 This state for optimization and/or second-order correction.
 Total Energy, E(CIS/TDA) =  -474.061319617
 Copying the excited state density for this state as the 1-particle RhoCI density.

 Excited State   2:      Singlet-A      1.9854 eV  624.48 nm  f=0.0735  <S**2>=0.000
     175 ->177         0.56283
     176 ->178        -0.39395

 Excited State   3:      Singlet-A      2.9814 eV  415.86 nm  f=0.0028  <S**2>=0.000
     167 ->179        -0.10721
     168 ->177         0.31913
     168 ->178        -0.16211
     168 ->179        -0.31906
     168 ->180         0.18839
     168 ->182         0.23710
     168 ->185        -0.25386
     171 ->177        -0.15185

 Excited State   4:      Singlet-A      3.0013 eV  413.10 nm  f=0.0367  <S**2>=0.000
     169 ->179         0.12625
     169 ->182         0.12112
     170 ->177         0.28102
     170 ->179         0.32421
     170 ->182         0.32853
     170 ->185         0.12170
     170 ->188        -0.11672
     176 ->179        -0.18312

 Excited State   5:      Singlet-A      3.0723 eV  403.55 nm  f=0.8470  <S**2>=0.000
     171 ->177         0.27040
     173 ->177        -0.10683
     175 ->177         0.32243
     176 ->178         0.50169

 The electronic state is 1-A.
 Alpha  occ. eigenvalues --   -1.85787  -1.82799  -1.78772  -1.72705  -1.71846
 Alpha  occ. eigenvalues --   -1.69235  -1.66695  -1.61224  -1.59505  -1.58999
 Alpha  occ. eigenvalues --   -1.54290  -1.50738  -1.47907  -1.47268  -1.46208
 Alpha  occ. eigenvalues --   -1.44802  -1.42510  -1.40454  -1.38992  -1.37752
 Alpha  occ. eigenvalues --   -1.36764  -1.32198  -1.31559  -1.31399  -1.29399
 Alpha  occ. eigenvalues --   -1.28076  -1.25350  -1.22630  -1.20694  -1.18915
 Alpha  occ. eigenvalues --   -1.17364  -1.15847  -1.14629  -1.13416  -1.11934
 Alpha  occ. eigenvalues --   -1.10601  -1.09810  -1.09664  -1.04463  -1.03911
 Alpha  occ. eigenvalues --   -1.02128  -1.01004  -0.99079  -0.98440  -0.97456
 Alpha  occ. eigenvalues --   -0.95818  -0.94727  -0.93987  -0.92303  -0.90832
 Alpha  occ. eigenvalues --   -0.90345  -0.89682  -0.88749  -0.87608  -0.85943
 Alpha  occ. eigenvalues --   -0.85152  -0.84787  -0.82837  -0.81215  -0.80746
 Alpha  occ. eigenvalues --   -0.79812  -0.79461  -0.77814  -0.77010  -0.75540
 Alpha  occ. eigenvalues --   -0.74668  -0.74420  -0.74035  -0.73901  -0.73681
 Alpha  occ. eigenvalues --   -0.73052  -0.72116  -0.71841  -0.71564  -0.71000
 Alpha  occ. eigenvalues --   -0.70317  -0.69644  -0.68961  -0.68332  -0.67409
 Alpha  occ. eigenvalues --   -0.67121  -0.66878  -0.66697  -0.66419  -0.65677
 Alpha  occ. eigenvalues --   -0.65262  -0.64775  -0.64438  -0.64026  -0.63550
 Alpha  occ. eigenvalues --   -0.63277  -0.62880  -0.62620  -0.62201  -0.62067
 Alpha  occ. eigenvalues --   -0.61316  -0.61121  -0.60842  -0.60347  -0.59988
 Alpha  occ. eigenvalues --   -0.59935  -0.59533  -0.59003  -0.58601  -0.58177
 Alpha  occ. eigenvalues --   -0.58013  -0.57535  -0.56915  -0.56838  -0.56629
 Alpha  occ. eigenvalues --   -0.56449  -0.55388  -0.55245  -0.55148  -0.54999
 Alpha  occ. eigenvalues --   -0.54888  -0.54116  -0.53424  -0.53261  -0.53218
 Alpha  occ. eigenvalues --   -0.52726  -0.52069  -0.51894  -0.51815  -0.51655
 Alpha  occ. eigenvalues --   -0.51262  -0.51098  -0.50828  -0.50497  -0.50139
 Alpha  occ. eigenvalues --   -0.49875  -0.49675  -0.49529  -0.49331  -0.49293
 Alpha  occ. eigenvalues --   -0.48785  -0.48698  -0.48043  -0.47854  -0.47750
 Alpha  occ. eigenvalues --   -0.47380  -0.47288  -0.46964  -0.46715  -0.46626
 Alpha  occ. eigenvalues --   -0.46573  -0.46000  -0.45681  -0.45641  -0.45474
 Alpha  occ. eigenvalues --   -0.45070  -0.45009  -0.44594  -0.44505  -0.43955
 Alpha  occ. eigenvalues --   -0.43717  -0.42266  -0.42147  -0.41966  -0.41826
 Alpha  occ. eigenvalues --   -0.41357  -0.41068  -0.40794  -0.39551  -0.39063
 Alpha  occ. eigenvalues --   -0.38746  -0.37363  -0.35649  -0.35108  -0.34208
 Alpha  occ. eigenvalues --   -0.33225  -0.32961  -0.32230  -0.31533  -0.27031
 Alpha  occ. eigenvalues --   -0.21875
 Alpha virt. eigenvalues --   -0.08781  -0.01655  -0.00288   0.01148   0.01271
 Alpha virt. eigenvalues --    0.01662   0.02632   0.03129   0.04532   0.05281
 Alpha virt. eigenvalues --    0.05955   0.06475   0.07488   0.07760   0.08150

 Mulliken charges:
               1
     1  Mg   0.420267
     2  C   -0.047503
     3  C   -0.093464
     4  C   -0.047595
     5  C   -0.050901
     6  N   -0.303856
     7  C    0.107120
     8  C    0.008651
     9  C    0.001516
    10  C    0.144120
    11  C   -0.055871
    12  C   -0.019370
    13  C    0.002327
    14  C    0.451578
    15  O   -0.522041
    16  O   -0.263767
    17  N   -0.334910
    18  C    0.139258
    19  C    0.012969
    20  C   -0.057860
    21  C    0.139412
    22  C   -0.045044
    23  C    0.329195
    24  O   -0.515431
    25  C   -0.026371
    26  N   -0.268229
    27  C    0.179243
    28  C    0.020435
    29  C   -0.011054
    30  C    0.096423
    31  C   -0.054335
    32  C   -0.028294
    33  C   -0.059519
    34  N   -0.314912
    35  C    0.074220
    36  C    0.010881
    37  C   -0.057312
    38  C    0.125244
    39  C   -0.042940
    40  C    0.336368
    41  O   -0.540265
    42  C    0.039457
    43  C    0.490870
    44  O   -0.506593
    45  O   -0.258785
    46  C    0.076848
    47  C    0.103129
    48  C   -0.093220
    49  C   -0.008753
    50  C   -0.040116
    51  C   -0.025793
    52  C   -0.037257
    53  C   -0.046876
    54  C   -0.026528
    55  C   -0.067064
    56  C   -0.045702
    57  C   -0.044512
    58  C   -0.042773
    59  C   -0.010865
    60  C   -0.070635
    61  C   -0.030575
    62  C   -0.043627
    63  C   -0.038766
    64  C   -0.015341
    65  C   -0.059928
    66  C   -0.053815
    67  H    0.023769
    68  H    0.033441
    69  H    0.013195
    70  H    0.053426
    71  H    0.030199
    72  H    0.026645
    73  H    0.024010
    74  H    0.024827
    75  H    0.036726
    76  H    0.030244
    77  H    0.034019
    78  H    0.040291
    79  H    0.030688
    80  H    0.029787
    81  H    0.030510
    82  H    0.044742
    83  H    0.044631
    84  H    0.037440
    85  H    0.034728
    86  H    0.041288
    87  H    0.029614
    88  H    0.023452
    89  H    0.023446
    90  H    0.016127
    91  H    0.020577
    92  H    0.020659
    93  H    0.029696
    94  H    0.022863
    95  H    0.025600
    96  H    0.032671
    97  H    0.042886
    98  H    0.055761
    99  H    0.024173
   100  H    0.036363
   101  H    0.049172
   102  H    0.060443
   103  H    0.045301
   104  H    0.035082
   105  H    0.005332
   106  H    0.035324
   107  H    0.039750
   108  H    0.029197
   109  H    0.013315
   110  H    0.020066
   111  H    0.031381
   112  H    0.009524
   113  H    0.019205
   114  H    0.025728
   115  H    0.028916
   116  H    0.014931
   117  H    0.032162
   118  H    0.015218
   119  H    0.022934
   120  H    0.028224
   121  H    0.016512
   122  H    0.034067
   123  H    0.020077
   124  H    0.027063
   125  H    0.008497
   126  H    0.021522
   127  H    0.022303
   128  H    0.007339
   129  H    0.025199
   130  H    0.027967
   131  H    0.016917
   132  H    0.022387
   133  H    0.019163
   134  H    0.017393
   135  H    0.022102
   136  H    0.007354
   137  H    0.021362
   138  H    0.015966
   139  H    0.012541
   140  H    0.023411
 Sum of Mulliken charges =  -0.00000

 Dipole moment (field-independent basis, Debye):
    X=             -1.4087    Y=              7.3341    Z=             -1.9244  Tot=              7.7121
 N-N= 4.266454894705D+03 E-N= 0.000000000000D+00  KE=-9.207178414188D+03
 Leave Link  601 at Wed May  4 17:45:06 2022, MaxMem=  6710886400 cpu:               0.8 elap:               0.0
 (Enter /sw/apps/gaussian-16.0/g16/l9999.exe)
 1\1\GINC-BP1-COMPUTE160\SP\RZINDO CIS\STO-3G\C55H74Mg1N4O6\OF15641\04-
 May-2022\0\\#p ZINDO=(nstates=5)\\step_201_chromophore_10 ZINDO\\0,1\M
 g,0,40.914,7.93,28.804\C,0,42.865,9.294,31.249\C,0,38.841,6.57,31.222\
 C,0,39.179,6.418,26.352\C,0,43.228,8.858,26.483\N,0,40.995,7.901,30.95
 8\C,0,41.779,8.655,31.782\C,0,41.231,8.545,33.323\C,0,40.014,7.6,33.18
 4\C,0,39.902,7.33,31.674\C,0,40.093,6.19,33.993\C,0,40.907,10.009,33.8
 06\C,0,39.841,10.144,34.908\C,0,40.294,10.974,36.212\O,0,40.248,12.229

 Normal termination of Gaussian 16 at Wed May  4 17:45:07 2022.
