 Gaussian 16, Revision A.03,
 Gaussian 16:  ES64L-G16RevA.03 25-Dec-2016

 ------------------------------
 #p blyp/Def2SVP td=(nstates=5)
 ------------------------------

 --------------------------------------------------
 step_1451_chromophore_6 TDDFT with blyp functional
 --------------------------------------------------
 Symbolic Z-matrix:
 Charge =  0 Multiplicity = 1

                         Standard orientation:
 ---------------------------------------------------------------------
 Center     Atomic      Atomic             Coordinates (Angstroms)
 Number     Number       Type             X           Y           Z
 ---------------------------------------------------------------------
      1         12           0        5.547386    1.102381    0.332098
      2          6           0        4.550046   -2.339581    0.398745
      3          6           0        2.168238    2.013788    0.415522
      4          6           0        6.412040    4.407206   -0.175708
      5          6           0        8.610363    0.109277   -0.638460
      6          7           0        3.591552   -0.024249    0.414816
      7          6           0        3.470356   -1.411869    0.476956
      8          6           0        2.037048   -1.839862    0.461781
      9          6           0        1.311746   -0.432310    0.152178
     10          6           0        2.446092    0.573749    0.356261
     11          6           0        0.597980   -0.186160   -1.226377
     12          6           0        1.640680   -2.591144    1.817875
     13          6           0        0.536520   -3.594993    1.736748
     14          6           0       -0.111712   -3.904903    0.383368
     15          8           0        0.407016   -4.607331   -0.503120
     16          8           0       -1.272490   -3.209804    0.291514
     17          7           0        4.420284    2.938182    0.233080
     18          6           0        3.051730    3.079695    0.315078
     19          6           0        2.732823    4.465718    0.310849
     20          6           0        3.934660    5.226459    0.128829
     21          6           0        5.004153    4.168777    0.045153
     22          6           0        1.257746    4.820376    0.538271
     23          6           0        4.254437    6.741398    0.004011
     24          8           0        5.373610    7.211150   -0.101580
     25          6           0        3.136237    7.758291    0.244496
     26          7           0        7.250358    2.094648   -0.164742
     27          6           0        7.412004    3.402356   -0.291128
     28          6           0        8.833013    3.737101   -0.696999
     29          6           0        9.596460    2.408840   -0.593143
     30          6           0        8.439268    1.455368   -0.531320
     31          6           0        8.879874    4.396179   -2.123047
     32          6           0       10.703362    2.127053    0.457151
     33          6           0       10.309841    1.598386    1.860411
     34          7           0        6.472423   -0.674214    0.155850
     35          6           0        7.725594   -0.945949   -0.252091
     36          6           0        7.994511   -2.335569   -0.199138
     37          6           0        6.794731   -2.904950    0.132011
     38          6           0        5.892534   -1.835912    0.287046
     39          6           0        9.412877   -2.996774   -0.422695
     40          6           0        6.177903   -4.199334    0.199299
     41          8           0        6.679343   -5.322952    0.140393
     42          6           0        4.665855   -3.890525    0.395256
     43          6           0        3.805281   -4.649688   -0.582195
     44          8           0        3.258336   -4.317611   -1.619703
     45          8           0        3.728886   -5.898168   -0.057494
     46          6           0        2.683186   -6.795933   -0.615423
     47          6           0       -1.874082   -3.305897   -1.032996
     48          6           0       -3.099446   -2.383457   -0.927410
     49          6           0       -4.367740   -2.549657   -1.307210
     50          6           0       -4.943723   -3.809180   -2.064614
     51          6           0       -5.353020   -1.440406   -1.033089
     52          6           0       -5.767589   -1.232806    0.441005
     53          6           0       -7.218986   -1.805912    0.580388
     54          6           0       -8.160429   -0.747208    0.925758
     55          6           0       -8.127437   -0.271532    2.411465
     56          6           0       -9.538174   -1.264478    0.472537
     57          6           0      -10.362829   -0.182874   -0.128073
     58          6           0      -11.905424   -0.262655    0.258448
     59          6           0      -12.498498    0.811023    1.212252
     60          6           0      -12.148840    0.430632    2.664579
     61          6           0      -14.006689    1.016540    1.043840
     62          6           0      -14.259898    2.259858    0.220369
     63          6           0      -15.794685    2.532496   -0.007419
     64          6           0      -16.084864    2.161012   -1.399106
     65          6           0      -17.564232    1.767445   -1.691405
     66          6           0      -15.612177    3.343697   -2.329931
     67          1           0        1.092069    2.060877    0.593521
     68          1           0        6.777645    5.397415   -0.454281
     69          1           0        9.616184   -0.220737   -0.909399
     70          1           0        1.678928   -2.457308   -0.361899
     71          1           0        0.649982   -0.202793    0.986855
     72          1           0        0.399062   -1.171736   -1.646562
     73          1           0        1.240293    0.228853   -2.003439
     74          1           0       -0.298856    0.380537   -0.977941
     75          1           0        1.428968   -1.741432    2.468148
     76          1           0        2.542382   -3.074296    2.193370
     77          1           0       -0.138234   -3.129256    2.454489
     78          1           0        0.903230   -4.587883    1.997131
     79          1           0        0.985587    4.990805    1.579284
     80          1           0        0.578526    4.123598    0.047623
     81          1           0        1.208244    5.778100    0.020229
     82          1           0        2.481524    7.343958    1.010569
     83          1           0        2.512365    7.743021   -0.649019
     84          1           0        3.649544    8.716911    0.324447
     85          1           0        9.033898    4.437523    0.113513
     86          1           0       10.113333    2.275922   -1.543706
     87          1           0        8.218312    5.259443   -2.199885
     88          1           0        8.473553    3.677747   -2.835897
     89          1           0        9.896183    4.718330   -2.351845
     90          1           0       11.319858    3.003248    0.661247
     91          1           0       11.349954    1.333172    0.081902
     92          1           0       11.001115    1.984328    2.609479
     93          1           0       10.142917    0.526339    1.965225
     94          1           0        9.331361    2.025620    2.079313
     95          1           0        9.336998   -3.993580    0.011008
     96          1           0       10.148456   -2.465505    0.181283
     97          1           0        9.595695   -3.228332   -1.472330
     98          1           0        4.265931   -4.267027    1.336250
     99          1           0        3.129467   -7.690624   -1.049065
    100          1           0        2.082990   -6.419102   -1.444289
    101          1           0        2.051092   -7.164645    0.191652
    102          1           0       -2.175686   -4.349182   -1.128679
    103          1           0       -1.250404   -3.004650   -1.874066
    104          1           0       -2.819806   -1.415629   -0.508961
    105          1           0       -5.337507   -3.527291   -3.041558
    106          1           0       -5.591395   -4.425113   -1.440097
    107          1           0       -4.033242   -4.381889   -2.243282
    108          1           0       -6.095664   -1.314246   -1.820942
    109          1           0       -4.864950   -0.477668   -1.182567
    110          1           0       -5.677549   -0.161630    0.616901
    111          1           0       -5.045862   -1.721066    1.095163
    112          1           0       -7.019605   -2.424378    1.455823
    113          1           0       -7.442720   -2.491606   -0.236369
    114          1           0       -7.906230    0.030666    0.204470
    115          1           0       -7.139992   -0.519430    2.799696
    116          1           0       -8.948396   -0.772142    2.924997
    117          1           0       -8.289356    0.805974    2.375402
    118          1           0      -10.048230   -1.652768    1.354261
    119          1           0       -9.391878   -1.995210   -0.321855
    120          1           0      -10.362810   -0.262869   -1.214379
    121          1           0       -9.964698    0.810534    0.079996
    122          1           0      -12.147935   -1.235811    0.684909
    123          1           0      -12.497135   -0.187726   -0.653392
    124          1           0      -11.941883    1.737900    1.075204
    125          1           0      -11.601211    1.241562    3.144174
    126          1           0      -11.649588   -0.538023    2.692182
    127          1           0      -13.075118    0.461390    3.238524
    128          1           0      -14.546447    1.139452    1.982479
    129          1           0      -14.409280    0.176243    0.477837
    130          1           0      -13.766465    2.160261   -0.746632
    131          1           0      -13.834058    3.111926    0.749400
    132          1           0      -15.988278    3.566092    0.280003
    133          1           0      -16.286888    1.804734    0.638659
    134          1           0      -15.521233    1.252054   -1.612162
    135          1           0      -18.072981    2.179522   -0.819521
    136          1           0      -17.595782    0.679703   -1.745508
    137          1           0      -17.990147    2.066938   -2.649382
    138          1           0      -14.672349    3.242014   -2.871875
    139          1           0      -15.618400    4.281206   -1.774513
    140          1           0      -16.358248    3.300036   -3.123350
 ---------------------------------------------------------------------

 SCF Done:  E(RB-LYP) =  -3007.33393233     A.U. after   21 cycles

 Excitation energies and oscillator strengths:

 Excited State   1:      Singlet-A      1.7630 eV  703.25 nm  f=0.2954  <S**2>=0.000
     245 -> 248       -0.18316
     246 -> 247        0.69329
     246 <- 247       -0.14768
 This state for optimization and/or second-order correction.
 Total Energy, E(TD-HF/TD-DFT) =  -3007.26914295
 Copying the excited state density for this state as the 1-particle RhoCI density.

 Excited State   2:      Singlet-A      2.0023 eV  619.21 nm  f=0.0006  <S**2>=0.000
     244 -> 247        0.70469

 Excited State   3:      Singlet-A      2.0137 eV  615.71 nm  f=0.0729  <S**2>=0.000
     243 -> 247        0.13408
     245 -> 247        0.64192
     246 -> 248        0.22565

 Excited State   4:      Singlet-A      2.1394 eV  579.52 nm  f=0.0036  <S**2>=0.000
     243 -> 247        0.69306
     245 -> 247       -0.11389

 Excited State   5:      Singlet-A      2.5114 eV  493.68 nm  f=0.0001  <S**2>=0.000
     241 -> 247        0.57388
     242 -> 247        0.40623

 The electronic state is 1-A.
 Alpha  occ. eigenvalues --  -46.26454 -18.83733 -18.80742 -18.77921 -18.76106
 Alpha  occ. eigenvalues --  -18.75571 -18.75455 -14.03282 -14.02685 -14.00824
 Alpha  occ. eigenvalues --  -14.00702 -10.04990 -10.02921 -10.00387  -9.99289
 Alpha  occ. eigenvalues --   -9.98638  -9.96493  -9.96335  -9.96312  -9.95990
 Alpha  occ. eigenvalues --   -9.95983  -9.95521  -9.95329  -9.94529  -9.94162
 Alpha  occ. eigenvalues --   -9.94057  -9.94011  -9.93936  -9.93870  -9.93750
 Alpha  occ. eigenvalues --   -9.93632  -9.93576  -9.93572  -9.93419  -9.93410
 Alpha  occ. eigenvalues --   -9.93349  -9.93218  -9.93181  -9.92990  -9.92960
 Alpha  occ. eigenvalues --   -9.92829  -9.92485  -9.92359  -9.92120  -9.92075
 Alpha  occ. eigenvalues --   -9.92033  -9.92031  -9.91910  -9.91826  -9.91673
 Alpha  occ. eigenvalues --   -9.91639  -9.91622  -9.91410  -9.91365  -9.91335
 Alpha  occ. eigenvalues --   -9.91121  -9.91094  -9.90881  -9.90683  -9.90672
 Alpha  occ. eigenvalues --   -9.90642  -9.90637  -9.90546  -9.90534  -9.90416
 Alpha  occ. eigenvalues --   -9.89982  -2.91248  -1.71684  -1.71096  -1.70986
 Alpha  occ. eigenvalues --   -0.99309  -0.96642  -0.92217  -0.90515  -0.90479
 Alpha  occ. eigenvalues --   -0.88398  -0.88103  -0.86640  -0.86364  -0.84559
 Alpha  occ. eigenvalues --   -0.75014  -0.74571  -0.73570  -0.73246  -0.72595
 Alpha  occ. eigenvalues --   -0.72420  -0.71361  -0.71288  -0.70557  -0.70065
 Alpha  occ. eigenvalues --   -0.69444  -0.69191  -0.68391  -0.67305  -0.67161
 Alpha  occ. eigenvalues --   -0.66495  -0.65626  -0.65236  -0.64705  -0.64345
 Alpha  occ. eigenvalues --   -0.64186  -0.62060  -0.61957  -0.61550  -0.61051
 Alpha  occ. eigenvalues --   -0.60281  -0.59946  -0.59831  -0.59674  -0.59249
 Alpha  occ. eigenvalues --   -0.58519  -0.57619  -0.56722  -0.55958  -0.55161
 Alpha  occ. eigenvalues --   -0.54375  -0.54189  -0.52612  -0.52078  -0.51635
 Alpha  occ. eigenvalues --   -0.50920  -0.50740  -0.50586  -0.50240  -0.50124
 Alpha  occ. eigenvalues --   -0.49841  -0.49065  -0.48717  -0.47627  -0.46834
 Alpha  occ. eigenvalues --   -0.46021  -0.45900  -0.45536  -0.44924  -0.44299
 Alpha  occ. eigenvalues --   -0.44205  -0.43621  -0.43006  -0.42535  -0.42342
 Alpha  occ. eigenvalues --   -0.42205  -0.42014  -0.41828  -0.41484  -0.41350
 Alpha  occ. eigenvalues --   -0.41029  -0.40866  -0.40504  -0.40397  -0.40117
 Alpha  occ. eigenvalues --   -0.39962  -0.39898  -0.39678  -0.39444  -0.39035
 Alpha  occ. eigenvalues --   -0.38963  -0.38904  -0.38616  -0.38444  -0.38177
 Alpha  occ. eigenvalues --   -0.38026  -0.37859  -0.37587  -0.37460  -0.37407
 Alpha  occ. eigenvalues --   -0.37053  -0.36900  -0.36754  -0.36506  -0.36324
 Alpha  occ. eigenvalues --   -0.36251  -0.36114  -0.35939  -0.35705  -0.35514
 Alpha  occ. eigenvalues --   -0.35181  -0.35147  -0.34998  -0.34846  -0.34689
 Alpha  occ. eigenvalues --   -0.34593  -0.34428  -0.34155  -0.33960  -0.33801
 Alpha  occ. eigenvalues --   -0.33782  -0.33399  -0.33371  -0.33282  -0.33174
 Alpha  occ. eigenvalues --   -0.32763  -0.32693  -0.32565  -0.32518  -0.32294
 Alpha  occ. eigenvalues --   -0.32145  -0.32081  -0.31945  -0.31733  -0.31368
 Alpha  occ. eigenvalues --   -0.31135  -0.31051  -0.30834  -0.30584  -0.30572
 Alpha  occ. eigenvalues --   -0.30531  -0.30258  -0.30233  -0.30079  -0.30070
 Alpha  occ. eigenvalues --   -0.29460  -0.29310  -0.29125  -0.28863  -0.28678
 Alpha  occ. eigenvalues --   -0.28596  -0.28425  -0.28307  -0.27939  -0.27505
 Alpha  occ. eigenvalues --   -0.27370  -0.27221  -0.27027  -0.26546  -0.26470
 Alpha  occ. eigenvalues --   -0.26234  -0.26113  -0.25691  -0.25468  -0.25448
 Alpha  occ. eigenvalues --   -0.25039  -0.24794  -0.23852  -0.23702  -0.23571
 Alpha  occ. eigenvalues --   -0.23228  -0.22720  -0.21813  -0.21210  -0.20864
 Alpha  occ. eigenvalues --   -0.20554  -0.20306  -0.19015  -0.18557  -0.17028
 Alpha  occ. eigenvalues --   -0.15487
 Alpha virt. eigenvalues --   -0.11283  -0.06547  -0.06078  -0.04498  -0.04113
 Alpha virt. eigenvalues --   -0.02450  -0.01962  -0.01454  -0.00795   0.00075
 Alpha virt. eigenvalues --    0.01291   0.01465   0.02025   0.02444   0.02629

 Mulliken charges:
               1
     1  Mg   0.717719
     2  C    0.028001
     3  C   -0.070343
     4  C   -0.053461
     5  C   -0.077499
     6  N   -0.148779
     7  C   -0.067239
     8  C   -0.050180
     9  C   -0.030793
    10  C   -0.086657
    11  C    0.154414
    12  C    0.090810
    13  C    0.214661
    14  C    0.048642
    15  O   -0.203923
    16  O   -0.251963
    17  N   -0.273298
    18  C    0.206192
    19  C   -0.153300
    20  C    0.013175
    21  C    0.088330
    22  C    0.168350
    23  C   -0.073809
    24  O   -0.154090
    25  C    0.132445
    26  N   -0.254499
    27  C   -0.001886
    28  C    0.025752
    29  C    0.104626
    30  C    0.020518
    31  C    0.125929
    32  C    0.080014
    33  C    0.060393
    34  N   -0.220945
    35  C    0.074238
    36  C   -0.197252
    37  C    0.067682
    38  C    0.052568
    39  C    0.179266
    40  C   -0.012386
    41  O   -0.124335
    42  C    0.035179
    43  C    0.105234
    44  O   -0.165794
    45  O   -0.270145
    46  C    0.214134
    47  C    0.303882
    48  C   -0.095428
    49  C   -0.140821
    50  C    0.140703
    51  C    0.120437
    52  C    0.066379
    53  C    0.102579
    54  C   -0.091866
    55  C    0.154403
    56  C    0.129206
    57  C    0.092727
    58  C    0.067700
    59  C   -0.073507
    60  C    0.117634
    61  C    0.138109
    62  C    0.001431
    63  C    0.159334
    64  C   -0.133669
    65  C    0.113787
    66  C    0.109852
    67  H   -0.063238
    68  H   -0.035782
    69  H   -0.070188
    70  H    0.021196
    71  H   -0.038621
    72  H   -0.010630
    73  H    0.002421
    74  H    0.008169
    75  H   -0.026665
    76  H   -0.017889
    77  H   -0.012834
    78  H   -0.003810
    79  H    0.015090
    80  H    0.003245
    81  H   -0.024761
    82  H    0.002803
    83  H    0.005462
    84  H    0.007010
    85  H   -0.026399
    86  H   -0.040161
    87  H   -0.001158
    88  H   -0.005143
    89  H    0.001018
    90  H   -0.020801
    91  H   -0.020080
    92  H   -0.008413
    93  H   -0.000217
    94  H   -0.017247
    95  H   -0.010710
    96  H    0.004613
    97  H    0.005675
    98  H    0.009691
    99  H   -0.002951
   100  H    0.037578
   101  H    0.003780
   102  H   -0.005135
   103  H    0.031319
   104  H   -0.039337
   105  H    0.009207
   106  H    0.015374
   107  H   -0.031302
   108  H   -0.040209
   109  H   -0.050966
   110  H   -0.032711
   111  H   -0.030770
   112  H   -0.056327
   113  H   -0.023091
   114  H   -0.050206
   115  H   -0.010607
   116  H   -0.005038
   117  H   -0.008677
   118  H   -0.030054
   119  H   -0.042050
   120  H   -0.039223
   121  H   -0.031741
   122  H   -0.033466
   123  H   -0.049236
   124  H   -0.042897
   125  H   -0.023137
   126  H   -0.010223
   127  H   -0.036977
   128  H   -0.030519
   129  H   -0.040043
   130  H   -0.024465
   131  H   -0.042414
   132  H   -0.028872
   133  H   -0.047602
   134  H   -0.037832
   135  H   -0.010143
   136  H   -0.019154
   137  H   -0.015073
   138  H   -0.012406
   139  H   -0.011965
   140  H   -0.030652
 Sum of Mulliken charges =  -0.00000

 Dipole moment (field-independent basis, Debye):
    X=             -4.5621    Y=              2.4103    Z=              1.4579  Tot=              5.3618
 Quadrupole moment (field-independent basis, Debye-Ang):
   XX=           -401.7137   YY=           -438.1191   ZZ=           -403.0714
   XY=             23.2888   XZ=              6.8853   YZ=             -3.5245

 Normal termination of Gaussian 16 at Thu Apr 28 07:05:28 2022.
