 Gaussian 16, Revision A.03,
 Gaussian 16:  ES64L-G16RevA.03 25-Dec-2016

 -----------------------------------
 #p cam-b3lyp/Def2SVP td=(nstates=5)
 -----------------------------------

 -------------------------------------------------------
 step_1451_chromophore_6 TDDFT with cam-b3lyp functional
 -------------------------------------------------------
 Symbolic Z-matrix:
 Charge =  0 Multiplicity = 1

                         Standard orientation:
 ---------------------------------------------------------------------
 Center     Atomic      Atomic             Coordinates (Angstroms)
 Number     Number       Type             X           Y           Z
 ---------------------------------------------------------------------
      1         12           0        5.547386    1.102381    0.332098
      2          6           0        4.550046   -2.339581    0.398745
      3          6           0        2.168238    2.013788    0.415522
      4          6           0        6.412040    4.407206   -0.175708
      5          6           0        8.610363    0.109277   -0.638460
      6          7           0        3.591552   -0.024249    0.414816
      7          6           0        3.470356   -1.411869    0.476956
      8          6           0        2.037048   -1.839862    0.461781
      9          6           0        1.311746   -0.432310    0.152178
     10          6           0        2.446092    0.573749    0.356261
     11          6           0        0.597980   -0.186160   -1.226377
     12          6           0        1.640680   -2.591144    1.817875
     13          6           0        0.536520   -3.594993    1.736748
     14          6           0       -0.111712   -3.904903    0.383368
     15          8           0        0.407016   -4.607331   -0.503120
     16          8           0       -1.272490   -3.209804    0.291514
     17          7           0        4.420284    2.938182    0.233080
     18          6           0        3.051730    3.079695    0.315078
     19          6           0        2.732823    4.465718    0.310849
     20          6           0        3.934660    5.226459    0.128829
     21          6           0        5.004153    4.168777    0.045153
     22          6           0        1.257746    4.820376    0.538271
     23          6           0        4.254437    6.741398    0.004011
     24          8           0        5.373610    7.211150   -0.101580
     25          6           0        3.136237    7.758291    0.244496
     26          7           0        7.250358    2.094648   -0.164742
     27          6           0        7.412004    3.402356   -0.291128
     28          6           0        8.833013    3.737101   -0.696999
     29          6           0        9.596460    2.408840   -0.593143
     30          6           0        8.439268    1.455368   -0.531320
     31          6           0        8.879874    4.396179   -2.123047
     32          6           0       10.703362    2.127053    0.457151
     33          6           0       10.309841    1.598386    1.860411
     34          7           0        6.472423   -0.674214    0.155850
     35          6           0        7.725594   -0.945949   -0.252091
     36          6           0        7.994511   -2.335569   -0.199138
     37          6           0        6.794731   -2.904950    0.132011
     38          6           0        5.892534   -1.835912    0.287046
     39          6           0        9.412877   -2.996774   -0.422695
     40          6           0        6.177903   -4.199334    0.199299
     41          8           0        6.679343   -5.322952    0.140393
     42          6           0        4.665855   -3.890525    0.395256
     43          6           0        3.805281   -4.649688   -0.582195
     44          8           0        3.258336   -4.317611   -1.619703
     45          8           0        3.728886   -5.898168   -0.057494
     46          6           0        2.683186   -6.795933   -0.615423
     47          6           0       -1.874082   -3.305897   -1.032996
     48          6           0       -3.099446   -2.383457   -0.927410
     49          6           0       -4.367740   -2.549657   -1.307210
     50          6           0       -4.943723   -3.809180   -2.064614
     51          6           0       -5.353020   -1.440406   -1.033089
     52          6           0       -5.767589   -1.232806    0.441005
     53          6           0       -7.218986   -1.805912    0.580388
     54          6           0       -8.160429   -0.747208    0.925758
     55          6           0       -8.127437   -0.271532    2.411465
     56          6           0       -9.538174   -1.264478    0.472537
     57          6           0      -10.362829   -0.182874   -0.128073
     58          6           0      -11.905424   -0.262655    0.258448
     59          6           0      -12.498498    0.811023    1.212252
     60          6           0      -12.148840    0.430632    2.664579
     61          6           0      -14.006689    1.016540    1.043840
     62          6           0      -14.259898    2.259858    0.220369
     63          6           0      -15.794685    2.532496   -0.007419
     64          6           0      -16.084864    2.161012   -1.399106
     65          6           0      -17.564232    1.767445   -1.691405
     66          6           0      -15.612177    3.343697   -2.329931
     67          1           0        1.092069    2.060877    0.593521
     68          1           0        6.777645    5.397415   -0.454281
     69          1           0        9.616184   -0.220737   -0.909399
     70          1           0        1.678928   -2.457308   -0.361899
     71          1           0        0.649982   -0.202793    0.986855
     72          1           0        0.399062   -1.171736   -1.646562
     73          1           0        1.240293    0.228853   -2.003439
     74          1           0       -0.298856    0.380537   -0.977941
     75          1           0        1.428968   -1.741432    2.468148
     76          1           0        2.542382   -3.074296    2.193370
     77          1           0       -0.138234   -3.129256    2.454489
     78          1           0        0.903230   -4.587883    1.997131
     79          1           0        0.985587    4.990805    1.579284
     80          1           0        0.578526    4.123598    0.047623
     81          1           0        1.208244    5.778100    0.020229
     82          1           0        2.481524    7.343958    1.010569
     83          1           0        2.512365    7.743021   -0.649019
     84          1           0        3.649544    8.716911    0.324447
     85          1           0        9.033898    4.437523    0.113513
     86          1           0       10.113333    2.275922   -1.543706
     87          1           0        8.218312    5.259443   -2.199885
     88          1           0        8.473553    3.677747   -2.835897
     89          1           0        9.896183    4.718330   -2.351845
     90          1           0       11.319858    3.003248    0.661247
     91          1           0       11.349954    1.333172    0.081902
     92          1           0       11.001115    1.984328    2.609479
     93          1           0       10.142917    0.526339    1.965225
     94          1           0        9.331361    2.025620    2.079313
     95          1           0        9.336998   -3.993580    0.011008
     96          1           0       10.148456   -2.465505    0.181283
     97          1           0        9.595695   -3.228332   -1.472330
     98          1           0        4.265931   -4.267027    1.336250
     99          1           0        3.129467   -7.690624   -1.049065
    100          1           0        2.082990   -6.419102   -1.444289
    101          1           0        2.051092   -7.164645    0.191652
    102          1           0       -2.175686   -4.349182   -1.128679
    103          1           0       -1.250404   -3.004650   -1.874066
    104          1           0       -2.819806   -1.415629   -0.508961
    105          1           0       -5.337507   -3.527291   -3.041558
    106          1           0       -5.591395   -4.425113   -1.440097
    107          1           0       -4.033242   -4.381889   -2.243282
    108          1           0       -6.095664   -1.314246   -1.820942
    109          1           0       -4.864950   -0.477668   -1.182567
    110          1           0       -5.677549   -0.161630    0.616901
    111          1           0       -5.045862   -1.721066    1.095163
    112          1           0       -7.019605   -2.424378    1.455823
    113          1           0       -7.442720   -2.491606   -0.236369
    114          1           0       -7.906230    0.030666    0.204470
    115          1           0       -7.139992   -0.519430    2.799696
    116          1           0       -8.948396   -0.772142    2.924997
    117          1           0       -8.289356    0.805974    2.375402
    118          1           0      -10.048230   -1.652768    1.354261
    119          1           0       -9.391878   -1.995210   -0.321855
    120          1           0      -10.362810   -0.262869   -1.214379
    121          1           0       -9.964698    0.810534    0.079996
    122          1           0      -12.147935   -1.235811    0.684909
    123          1           0      -12.497135   -0.187726   -0.653392
    124          1           0      -11.941883    1.737900    1.075204
    125          1           0      -11.601211    1.241562    3.144174
    126          1           0      -11.649588   -0.538023    2.692182
    127          1           0      -13.075118    0.461390    3.238524
    128          1           0      -14.546447    1.139452    1.982479
    129          1           0      -14.409280    0.176243    0.477837
    130          1           0      -13.766465    2.160261   -0.746632
    131          1           0      -13.834058    3.111926    0.749400
    132          1           0      -15.988278    3.566092    0.280003
    133          1           0      -16.286888    1.804734    0.638659
    134          1           0      -15.521233    1.252054   -1.612162
    135          1           0      -18.072981    2.179522   -0.819521
    136          1           0      -17.595782    0.679703   -1.745508
    137          1           0      -17.990147    2.066938   -2.649382
    138          1           0      -14.672349    3.242014   -2.871875
    139          1           0      -15.618400    4.281206   -1.774513
    140          1           0      -16.358248    3.300036   -3.123350
 ---------------------------------------------------------------------

 SCF Done:  E(RCAM-B3LYP) =  -3007.13883856     A.U. after   17 cycles

 Excitation energies and oscillator strengths:

 Excited State   1:      Singlet-A      1.7755 eV  698.29 nm  f=0.3647  <S**2>=0.000
     245 -> 248       -0.15790
     246 -> 247        0.68927
 This state for optimization and/or second-order correction.
 Total Energy, E(TD-HF/TD-DFT) =  -3007.07358864
 Copying the excited state density for this state as the 1-particle RhoCI density.

 Excited State   2:      Singlet-A      2.2819 eV  543.34 nm  f=0.1047  <S**2>=0.000
     245 -> 247        0.63803
     246 -> 248        0.28537

 Excited State   3:      Singlet-A      3.4054 eV  364.08 nm  f=0.1867  <S**2>=0.000
     240 -> 247       -0.28574
     242 -> 247       -0.24912
     244 -> 247        0.35231
     245 -> 247       -0.13559
     246 -> 248        0.43918

 Excited State   4:      Singlet-A      3.6093 eV  343.52 nm  f=0.2699  <S**2>=0.000
     239 -> 247        0.39935
     239 -> 249       -0.23106
     239 -> 250        0.12462
     240 -> 247       -0.24489
     242 -> 247       -0.11205
     244 -> 247        0.21726
     245 -> 247        0.17820
     246 -> 248       -0.30769

 Excited State   5:      Singlet-A      3.6382 eV  340.78 nm  f=0.3112  <S**2>=0.000
     239 -> 247        0.40071
     239 -> 249       -0.23065
     239 -> 250        0.12346
     242 -> 247        0.11829
     244 -> 247       -0.27268
     245 -> 247       -0.19058
     246 -> 248        0.33890

 The electronic state is 1-A.
 Alpha  occ. eigenvalues --  -46.87949 -19.26629 -19.23415 -19.20851 -19.19974
 Alpha  occ. eigenvalues --  -19.18427 -19.18051 -14.42358 -14.41253 -14.39519
 Alpha  occ. eigenvalues --  -14.38725 -10.40294 -10.38144 -10.36252 -10.34128
 Alpha  occ. eigenvalues --  -10.32763 -10.31622 -10.31489 -10.30846 -10.30474
 Alpha  occ. eigenvalues --  -10.30314 -10.29827 -10.29793 -10.29262 -10.28931
 Alpha  occ. eigenvalues --  -10.28346 -10.28198 -10.28088 -10.27853 -10.27807
 Alpha  occ. eigenvalues --  -10.27769 -10.27756 -10.27567 -10.27492 -10.27447
 Alpha  occ. eigenvalues --  -10.27439 -10.27315 -10.26968 -10.26857 -10.26732
 Alpha  occ. eigenvalues --  -10.26599 -10.26303 -10.26201 -10.26156 -10.26082
 Alpha  occ. eigenvalues --  -10.25768 -10.25478 -10.25463 -10.25391 -10.25367
 Alpha  occ. eigenvalues --  -10.25328 -10.25273 -10.25072 -10.25043 -10.24869
 Alpha  occ. eigenvalues --  -10.24791 -10.24772 -10.24558 -10.24386 -10.24307
 Alpha  occ. eigenvalues --  -10.24304 -10.24285 -10.24196 -10.24172 -10.24046
 Alpha  occ. eigenvalues --  -10.23237  -3.16653  -1.91561  -1.91081  -1.90980
 Alpha  occ. eigenvalues --   -1.17730  -1.14954  -1.11261  -1.08348  -1.08297
 Alpha  occ. eigenvalues --   -1.06070  -1.05321  -1.04419  -1.03926  -1.02636
 Alpha  occ. eigenvalues --   -0.91824  -0.91507  -0.90453  -0.90010  -0.89353
 Alpha  occ. eigenvalues --   -0.89008  -0.88106  -0.88023  -0.87119  -0.86988
 Alpha  occ. eigenvalues --   -0.85817  -0.85545  -0.84741  -0.83375  -0.83179
 Alpha  occ. eigenvalues --   -0.82542  -0.82025  -0.81255  -0.80605  -0.80158
 Alpha  occ. eigenvalues --   -0.79971  -0.78193  -0.77423  -0.76925  -0.76452
 Alpha  occ. eigenvalues --   -0.75440  -0.75330  -0.75149  -0.74926  -0.74547
 Alpha  occ. eigenvalues --   -0.73633  -0.72522  -0.71662  -0.70813  -0.69662
 Alpha  occ. eigenvalues --   -0.68977  -0.68744  -0.67279  -0.66515  -0.65903
 Alpha  occ. eigenvalues --   -0.65154  -0.64675  -0.64459  -0.64202  -0.64189
 Alpha  occ. eigenvalues --   -0.63784  -0.63048  -0.62668  -0.61087  -0.60416
 Alpha  occ. eigenvalues --   -0.59781  -0.59322  -0.59059  -0.58238  -0.57742
 Alpha  occ. eigenvalues --   -0.57536  -0.56911  -0.56415  -0.55854  -0.55461
 Alpha  occ. eigenvalues --   -0.55139  -0.54818  -0.54782  -0.54446  -0.54205
 Alpha  occ. eigenvalues --   -0.54024  -0.53562  -0.53470  -0.53176  -0.53066
 Alpha  occ. eigenvalues --   -0.52805  -0.52627  -0.52398  -0.52266  -0.51995
 Alpha  occ. eigenvalues --   -0.51742  -0.51330  -0.50969  -0.50789  -0.50536
 Alpha  occ. eigenvalues --   -0.50343  -0.50271  -0.50032  -0.49954  -0.49693
 Alpha  occ. eigenvalues --   -0.49558  -0.49499  -0.49220  -0.48989  -0.48759
 Alpha  occ. eigenvalues --   -0.48480  -0.48348  -0.48095  -0.47913  -0.47809
 Alpha  occ. eigenvalues --   -0.47368  -0.47153  -0.47038  -0.46860  -0.46658
 Alpha  occ. eigenvalues --   -0.46394  -0.46293  -0.46079  -0.45892  -0.45786
 Alpha  occ. eigenvalues --   -0.45420  -0.45322  -0.45135  -0.45045  -0.45005
 Alpha  occ. eigenvalues --   -0.44782  -0.44274  -0.44226  -0.44081  -0.43784
 Alpha  occ. eigenvalues --   -0.43730  -0.43616  -0.43368  -0.43225  -0.42961
 Alpha  occ. eigenvalues --   -0.42867  -0.42410  -0.42406  -0.42047  -0.41843
 Alpha  occ. eigenvalues --   -0.41660  -0.41607  -0.41572  -0.41270  -0.41024
 Alpha  occ. eigenvalues --   -0.40777  -0.40654  -0.40408  -0.40272  -0.39984
 Alpha  occ. eigenvalues --   -0.39951  -0.39442  -0.39164  -0.38846  -0.38492
 Alpha  occ. eigenvalues --   -0.38193  -0.38098  -0.37897  -0.37765  -0.37282
 Alpha  occ. eigenvalues --   -0.37263  -0.36955  -0.36575  -0.36293  -0.36092
 Alpha  occ. eigenvalues --   -0.35666  -0.35397  -0.35074  -0.34606  -0.34223
 Alpha  occ. eigenvalues --   -0.34073  -0.33424  -0.32667  -0.31690  -0.31239
 Alpha  occ. eigenvalues --   -0.30352  -0.30176  -0.30087  -0.29794  -0.23964
 Alpha  occ. eigenvalues --   -0.20867
 Alpha virt. eigenvalues --   -0.08240  -0.01251   0.00420   0.02518   0.03022
 Alpha virt. eigenvalues --    0.03772   0.04910   0.05818   0.06492   0.06651
 Alpha virt. eigenvalues --    0.07653   0.08277   0.08678   0.08948   0.09013

 Mulliken charges:
               1
     1  Mg   0.852615
     2  C    0.018676
     3  C   -0.086812
     4  C   -0.080680
     5  C   -0.079949
     6  N   -0.217057
     7  C   -0.036392
     8  C   -0.096326
     9  C   -0.085694
    10  C   -0.052591
    11  C    0.097564
    12  C    0.047495
    13  C    0.141989
    14  C    0.124919
    15  O   -0.245644
    16  O   -0.313529
    17  N   -0.365012
    18  C    0.216845
    19  C   -0.154434
    20  C   -0.053701
    21  C    0.123305
    22  C    0.115818
    23  C    0.010787
    24  O   -0.190091
    25  C    0.052099
    26  N   -0.333411
    27  C    0.034315
    28  C   -0.039798
    29  C    0.043420
    30  C    0.030576
    31  C    0.070178
    32  C    0.029925
    33  C    0.003155
    34  N   -0.312744
    35  C    0.066965
    36  C   -0.193499
    37  C   -0.017585
    38  C    0.076840
    39  C    0.130198
    40  C    0.083553
    41  O   -0.166632
    42  C   -0.036859
    43  C    0.191731
    44  O   -0.204917
    45  O   -0.333006
    46  C    0.179256
    47  C    0.269302
    48  C   -0.115539
    49  C   -0.161463
    50  C    0.086297
    51  C    0.051981
    52  C    0.014127
    53  C    0.045821
    54  C   -0.147987
    55  C    0.098897
    56  C    0.073857
    57  C    0.038234
    58  C    0.017624
    59  C   -0.130216
    60  C    0.061994
    61  C    0.083232
    62  C   -0.046743
    63  C    0.092797
    64  C   -0.190757
    65  C    0.055545
    66  C    0.051414
    67  H   -0.025460
    68  H    0.002792
    69  H   -0.034993
    70  H    0.050350
    71  H   -0.004725
    72  H    0.011790
    73  H    0.030106
    74  H    0.028957
    75  H    0.001719
    76  H    0.011621
    77  H    0.022376
    78  H    0.026972
    79  H    0.046022
    80  H    0.033167
    81  H    0.002244
    82  H    0.029691
    83  H    0.033282
    84  H    0.043638
    85  H    0.008874
    86  H   -0.001584
    87  H    0.022160
    88  H    0.019693
    89  H    0.026710
    90  H    0.006106
    91  H    0.006894
    92  H    0.015050
    93  H    0.022937
    94  H    0.001871
    95  H    0.016300
    96  H    0.024774
    97  H    0.029682
    98  H    0.049939
    99  H    0.019446
   100  H    0.062503
   101  H    0.023545
   102  H    0.024804
   103  H    0.057038
   104  H   -0.007840
   105  H    0.032823
   106  H    0.037968
   107  H   -0.007980
   108  H   -0.008694
   109  H   -0.018153
   110  H   -0.004373
   111  H    0.000672
   112  H   -0.024374
   113  H    0.004422
   114  H   -0.019814
   115  H    0.012283
   116  H    0.016366
   117  H    0.014234
   118  H   -0.005159
   119  H   -0.009778
   120  H   -0.008709
   121  H   -0.004538
   122  H   -0.005172
   123  H   -0.020146
   124  H   -0.010792
   125  H    0.001042
   126  H    0.009020
   127  H   -0.010625
   128  H   -0.001078
   129  H   -0.012333
   130  H    0.000635
   131  H   -0.012626
   132  H    0.001487
   133  H   -0.016417
   134  H   -0.006329
   135  H    0.013227
   136  H    0.004745
   137  H    0.009505
   138  H    0.011403
   139  H    0.010964
   140  H   -0.006433
 Sum of Mulliken charges =  -0.00000

 Dipole moment (field-independent basis, Debye):
    X=             -5.8313    Y=              4.1826    Z=              1.5936  Tot=              7.3510
 Quadrupole moment (field-independent basis, Debye-Ang):
   XX=           -412.2564   YY=           -431.2013   ZZ=           -403.0800
   XY=             30.0529   XZ=              7.4926   YZ=             -3.5307

 Normal termination of Gaussian 16 at Thu Apr 28 05:58:14 2022.
