 Gaussian 16, Revision A.03,
 Gaussian 16:  ES64L-G16RevA.03 25-Dec-2016

 ---------------------------------
 #p PBE1PBE/Def2SVP td=(nstates=5)
 ---------------------------------

 -----------------------------------------------------
 step_1451_chromophore_6 TDDFT with PBE1PBE functional
 -----------------------------------------------------
 Symbolic Z-matrix:
 Charge =  0 Multiplicity = 1

                         Standard orientation:
 ---------------------------------------------------------------------
 Center     Atomic      Atomic             Coordinates (Angstroms)
 Number     Number       Type             X           Y           Z
 ---------------------------------------------------------------------
      1         12           0        5.547386    1.102381    0.332098
      2          6           0        4.550046   -2.339581    0.398745
      3          6           0        2.168238    2.013788    0.415522
      4          6           0        6.412040    4.407206   -0.175708
      5          6           0        8.610363    0.109277   -0.638460
      6          7           0        3.591552   -0.024249    0.414816
      7          6           0        3.470356   -1.411869    0.476956
      8          6           0        2.037048   -1.839862    0.461781
      9          6           0        1.311746   -0.432310    0.152178
     10          6           0        2.446092    0.573749    0.356261
     11          6           0        0.597980   -0.186160   -1.226377
     12          6           0        1.640680   -2.591144    1.817875
     13          6           0        0.536520   -3.594993    1.736748
     14          6           0       -0.111712   -3.904903    0.383368
     15          8           0        0.407016   -4.607331   -0.503120
     16          8           0       -1.272490   -3.209804    0.291514
     17          7           0        4.420284    2.938182    0.233080
     18          6           0        3.051730    3.079695    0.315078
     19          6           0        2.732823    4.465718    0.310849
     20          6           0        3.934660    5.226459    0.128829
     21          6           0        5.004153    4.168777    0.045153
     22          6           0        1.257746    4.820376    0.538271
     23          6           0        4.254437    6.741398    0.004011
     24          8           0        5.373610    7.211150   -0.101580
     25          6           0        3.136237    7.758291    0.244496
     26          7           0        7.250358    2.094648   -0.164742
     27          6           0        7.412004    3.402356   -0.291128
     28          6           0        8.833013    3.737101   -0.696999
     29          6           0        9.596460    2.408840   -0.593143
     30          6           0        8.439268    1.455368   -0.531320
     31          6           0        8.879874    4.396179   -2.123047
     32          6           0       10.703362    2.127053    0.457151
     33          6           0       10.309841    1.598386    1.860411
     34          7           0        6.472423   -0.674214    0.155850
     35          6           0        7.725594   -0.945949   -0.252091
     36          6           0        7.994511   -2.335569   -0.199138
     37          6           0        6.794731   -2.904950    0.132011
     38          6           0        5.892534   -1.835912    0.287046
     39          6           0        9.412877   -2.996774   -0.422695
     40          6           0        6.177903   -4.199334    0.199299
     41          8           0        6.679343   -5.322952    0.140393
     42          6           0        4.665855   -3.890525    0.395256
     43          6           0        3.805281   -4.649688   -0.582195
     44          8           0        3.258336   -4.317611   -1.619703
     45          8           0        3.728886   -5.898168   -0.057494
     46          6           0        2.683186   -6.795933   -0.615423
     47          6           0       -1.874082   -3.305897   -1.032996
     48          6           0       -3.099446   -2.383457   -0.927410
     49          6           0       -4.367740   -2.549657   -1.307210
     50          6           0       -4.943723   -3.809180   -2.064614
     51          6           0       -5.353020   -1.440406   -1.033089
     52          6           0       -5.767589   -1.232806    0.441005
     53          6           0       -7.218986   -1.805912    0.580388
     54          6           0       -8.160429   -0.747208    0.925758
     55          6           0       -8.127437   -0.271532    2.411465
     56          6           0       -9.538174   -1.264478    0.472537
     57          6           0      -10.362829   -0.182874   -0.128073
     58          6           0      -11.905424   -0.262655    0.258448
     59          6           0      -12.498498    0.811023    1.212252
     60          6           0      -12.148840    0.430632    2.664579
     61          6           0      -14.006689    1.016540    1.043840
     62          6           0      -14.259898    2.259858    0.220369
     63          6           0      -15.794685    2.532496   -0.007419
     64          6           0      -16.084864    2.161012   -1.399106
     65          6           0      -17.564232    1.767445   -1.691405
     66          6           0      -15.612177    3.343697   -2.329931
     67          1           0        1.092069    2.060877    0.593521
     68          1           0        6.777645    5.397415   -0.454281
     69          1           0        9.616184   -0.220737   -0.909399
     70          1           0        1.678928   -2.457308   -0.361899
     71          1           0        0.649982   -0.202793    0.986855
     72          1           0        0.399062   -1.171736   -1.646562
     73          1           0        1.240293    0.228853   -2.003439
     74          1           0       -0.298856    0.380537   -0.977941
     75          1           0        1.428968   -1.741432    2.468148
     76          1           0        2.542382   -3.074296    2.193370
     77          1           0       -0.138234   -3.129256    2.454489
     78          1           0        0.903230   -4.587883    1.997131
     79          1           0        0.985587    4.990805    1.579284
     80          1           0        0.578526    4.123598    0.047623
     81          1           0        1.208244    5.778100    0.020229
     82          1           0        2.481524    7.343958    1.010569
     83          1           0        2.512365    7.743021   -0.649019
     84          1           0        3.649544    8.716911    0.324447
     85          1           0        9.033898    4.437523    0.113513
     86          1           0       10.113333    2.275922   -1.543706
     87          1           0        8.218312    5.259443   -2.199885
     88          1           0        8.473553    3.677747   -2.835897
     89          1           0        9.896183    4.718330   -2.351845
     90          1           0       11.319858    3.003248    0.661247
     91          1           0       11.349954    1.333172    0.081902
     92          1           0       11.001115    1.984328    2.609479
     93          1           0       10.142917    0.526339    1.965225
     94          1           0        9.331361    2.025620    2.079313
     95          1           0        9.336998   -3.993580    0.011008
     96          1           0       10.148456   -2.465505    0.181283
     97          1           0        9.595695   -3.228332   -1.472330
     98          1           0        4.265931   -4.267027    1.336250
     99          1           0        3.129467   -7.690624   -1.049065
    100          1           0        2.082990   -6.419102   -1.444289
    101          1           0        2.051092   -7.164645    0.191652
    102          1           0       -2.175686   -4.349182   -1.128679
    103          1           0       -1.250404   -3.004650   -1.874066
    104          1           0       -2.819806   -1.415629   -0.508961
    105          1           0       -5.337507   -3.527291   -3.041558
    106          1           0       -5.591395   -4.425113   -1.440097
    107          1           0       -4.033242   -4.381889   -2.243282
    108          1           0       -6.095664   -1.314246   -1.820942
    109          1           0       -4.864950   -0.477668   -1.182567
    110          1           0       -5.677549   -0.161630    0.616901
    111          1           0       -5.045862   -1.721066    1.095163
    112          1           0       -7.019605   -2.424378    1.455823
    113          1           0       -7.442720   -2.491606   -0.236369
    114          1           0       -7.906230    0.030666    0.204470
    115          1           0       -7.139992   -0.519430    2.799696
    116          1           0       -8.948396   -0.772142    2.924997
    117          1           0       -8.289356    0.805974    2.375402
    118          1           0      -10.048230   -1.652768    1.354261
    119          1           0       -9.391878   -1.995210   -0.321855
    120          1           0      -10.362810   -0.262869   -1.214379
    121          1           0       -9.964698    0.810534    0.079996
    122          1           0      -12.147935   -1.235811    0.684909
    123          1           0      -12.497135   -0.187726   -0.653392
    124          1           0      -11.941883    1.737900    1.075204
    125          1           0      -11.601211    1.241562    3.144174
    126          1           0      -11.649588   -0.538023    2.692182
    127          1           0      -13.075118    0.461390    3.238524
    128          1           0      -14.546447    1.139452    1.982479
    129          1           0      -14.409280    0.176243    0.477837
    130          1           0      -13.766465    2.160261   -0.746632
    131          1           0      -13.834058    3.111926    0.749400
    132          1           0      -15.988278    3.566092    0.280003
    133          1           0      -16.286888    1.804734    0.638659
    134          1           0      -15.521233    1.252054   -1.612162
    135          1           0      -18.072981    2.179522   -0.819521
    136          1           0      -17.595782    0.679703   -1.745508
    137          1           0      -17.990147    2.066938   -2.649382
    138          1           0      -14.672349    3.242014   -2.871875
    139          1           0      -15.618400    4.281206   -1.774513
    140          1           0      -16.358248    3.300036   -3.123350
 ---------------------------------------------------------------------

 SCF Done:  E(RPBE1PBE) =  -3005.32548428     A.U. after   16 cycles

 Excitation energies and oscillator strengths:

 Excited State   1:      Singlet-A      1.8328 eV  676.48 nm  f=0.3545  <S**2>=0.000
     245 -> 248       -0.16218
     246 -> 247        0.69549
     246 <- 247       -0.10206
 This state for optimization and/or second-order correction.
 Total Energy, E(TD-HF/TD-DFT) =  -3005.25813052
 Copying the excited state density for this state as the 1-particle RhoCI density.

 Excited State   2:      Singlet-A      2.2540 eV  550.07 nm  f=0.1030  <S**2>=0.000
     245 -> 247        0.65219
     246 -> 248        0.26048

 Excited State   3:      Singlet-A      3.1237 eV  396.92 nm  f=0.0000  <S**2>=0.000
     243 -> 247       -0.10225
     244 -> 247        0.65995
     244 -> 249        0.16561
     244 -> 250        0.11235

 Excited State   4:      Singlet-A      3.1534 eV  393.18 nm  f=0.0105  <S**2>=0.000
     239 -> 247        0.11789
     240 -> 247        0.46866
     240 -> 249       -0.13420
     241 -> 247        0.10473
     242 -> 247       -0.10974
     243 -> 247        0.41310
     246 -> 248       -0.17943

 Excited State   5:      Singlet-A      3.1822 eV  389.62 nm  f=0.0071  <S**2>=0.000
     240 -> 247        0.47564
     240 -> 249       -0.10695
     242 -> 247        0.11212
     243 -> 247       -0.45071
     246 -> 248        0.16159

 The electronic state is 1-A.
 Alpha  occ. eigenvalues --  -46.91365 -19.27324 -19.24238 -19.21191 -19.19784
 Alpha  occ. eigenvalues --  -19.18799 -19.18691 -14.41714 -14.40929 -14.39020
 Alpha  occ. eigenvalues --  -14.38606 -10.37394 -10.35276 -10.33009 -10.31606
 Alpha  occ. eigenvalues --  -10.30156 -10.28843 -10.28820 -10.28417 -10.28254
 Alpha  occ. eigenvalues --  -10.27565 -10.27402 -10.27166 -10.26825 -10.26229
 Alpha  occ. eigenvalues --  -10.26119 -10.26090 -10.26017 -10.25796 -10.25643
 Alpha  occ. eigenvalues --  -10.25439 -10.25342 -10.25278 -10.25210 -10.25087
 Alpha  occ. eigenvalues --  -10.25024 -10.24927 -10.24816 -10.24217 -10.24112
 Alpha  occ. eigenvalues --  -10.24109 -10.24073 -10.23796 -10.23695 -10.23659
 Alpha  occ. eigenvalues --  -10.23570 -10.23408 -10.23111 -10.23019 -10.22986
 Alpha  occ. eigenvalues --  -10.22913 -10.22835 -10.22753 -10.22719 -10.22441
 Alpha  occ. eigenvalues --  -10.22308 -10.22301 -10.22095 -10.21921 -10.21844
 Alpha  occ. eigenvalues --  -10.21739 -10.21726 -10.21692 -10.21683 -10.21476
 Alpha  occ. eigenvalues --  -10.21425  -3.13645  -1.86495  -1.85993  -1.85897
 Alpha  occ. eigenvalues --   -1.12571  -1.09872  -1.05616  -1.03408  -1.03228
 Alpha  occ. eigenvalues --   -1.01042  -1.00388  -0.99029  -0.98609  -0.96947
 Alpha  occ. eigenvalues --   -0.86403  -0.85620  -0.84554  -0.84215  -0.83541
 Alpha  occ. eigenvalues --   -0.83354  -0.82281  -0.82133  -0.81430  -0.81059
 Alpha  occ. eigenvalues --   -0.80126  -0.79989  -0.78903  -0.77703  -0.77554
 Alpha  occ. eigenvalues --   -0.76758  -0.76018  -0.75416  -0.74879  -0.74527
 Alpha  occ. eigenvalues --   -0.74161  -0.72149  -0.71795  -0.71305  -0.70588
 Alpha  occ. eigenvalues --   -0.69891  -0.69409  -0.69320  -0.69227  -0.68693
 Alpha  occ. eigenvalues --   -0.67923  -0.67071  -0.66028  -0.65129  -0.64098
 Alpha  occ. eigenvalues --   -0.63484  -0.63089  -0.61580  -0.60721  -0.60347
 Alpha  occ. eigenvalues --   -0.59343  -0.59186  -0.59078  -0.58679  -0.58370
 Alpha  occ. eigenvalues --   -0.58285  -0.57192  -0.56823  -0.55832  -0.54812
 Alpha  occ. eigenvalues --   -0.54210  -0.54011  -0.53586  -0.52936  -0.52346
 Alpha  occ. eigenvalues --   -0.52056  -0.51345  -0.50904  -0.50221  -0.50090
 Alpha  occ. eigenvalues --   -0.49662  -0.49402  -0.49247  -0.48992  -0.48662
 Alpha  occ. eigenvalues --   -0.48457  -0.47995  -0.47899  -0.47739  -0.47587
 Alpha  occ. eigenvalues --   -0.47487  -0.47104  -0.46947  -0.46585  -0.46430
 Alpha  occ. eigenvalues --   -0.46263  -0.45869  -0.45662  -0.45503  -0.45058
 Alpha  occ. eigenvalues --   -0.44887  -0.44703  -0.44540  -0.44499  -0.44211
 Alpha  occ. eigenvalues --   -0.44004  -0.43874  -0.43789  -0.43579  -0.43365
 Alpha  occ. eigenvalues --   -0.43137  -0.43004  -0.42882  -0.42660  -0.42428
 Alpha  occ. eigenvalues --   -0.42132  -0.41765  -0.41605  -0.41563  -0.41352
 Alpha  occ. eigenvalues --   -0.40979  -0.40912  -0.40685  -0.40561  -0.40517
 Alpha  occ. eigenvalues --   -0.40140  -0.40039  -0.39996  -0.39760  -0.39607
 Alpha  occ. eigenvalues --   -0.39394  -0.39089  -0.38976  -0.38966  -0.38578
 Alpha  occ. eigenvalues --   -0.38479  -0.38329  -0.38270  -0.38148  -0.37811
 Alpha  occ. eigenvalues --   -0.37619  -0.37160  -0.37018  -0.36950  -0.36717
 Alpha  occ. eigenvalues --   -0.36596  -0.36585  -0.36455  -0.36033  -0.35991
 Alpha  occ. eigenvalues --   -0.35716  -0.35370  -0.35362  -0.34985  -0.34843
 Alpha  occ. eigenvalues --   -0.34692  -0.34206  -0.34193  -0.33628  -0.33456
 Alpha  occ. eigenvalues --   -0.33173  -0.33052  -0.32700  -0.32653  -0.32338
 Alpha  occ. eigenvalues --   -0.32015  -0.31778  -0.31629  -0.31371  -0.30938
 Alpha  occ. eigenvalues --   -0.30516  -0.30299  -0.30068  -0.29605  -0.29286
 Alpha  occ. eigenvalues --   -0.29157  -0.28768  -0.27920  -0.26596  -0.26119
 Alpha  occ. eigenvalues --   -0.26086  -0.25586  -0.25425  -0.25297  -0.20761
 Alpha  occ. eigenvalues --   -0.18424
 Alpha virt. eigenvalues --   -0.10830  -0.04862  -0.03777  -0.01926  -0.00892
 Alpha virt. eigenvalues --    0.00271   0.00527   0.01697   0.02000   0.02889
 Alpha virt. eigenvalues --    0.04137   0.04185   0.05168   0.05385   0.05537

 Mulliken charges:
               1
     1  Mg   1.002179
     2  C    0.019241
     3  C   -0.079343
     4  C   -0.061597
     5  C   -0.069733
     6  N   -0.329844
     7  C    0.029510
     8  C   -0.164150
     9  C   -0.160952
    10  C   -0.003037
    11  C    0.036577
    12  C   -0.000211
    13  C    0.067523
    14  C    0.182676
    15  O   -0.276585
    16  O   -0.342076
    17  N   -0.474051
    18  C    0.232188
    19  C   -0.183677
    20  C   -0.102275
    21  C    0.150097
    22  C    0.055689
    23  C    0.062173
    24  O   -0.230927
    25  C   -0.024674
    26  N   -0.442306
    27  C    0.070606
    28  C   -0.123420
    29  C   -0.026505
    30  C    0.061623
    31  C    0.010009
    32  C   -0.030926
    33  C   -0.073498
    34  N   -0.453655
    35  C    0.085613
    36  C   -0.189061
    37  C   -0.067341
    38  C    0.129340
    39  C    0.072571
    40  C    0.171635
    41  O   -0.211329
    42  C   -0.135869
    43  C    0.279066
    44  O   -0.241683
    45  O   -0.363966
    46  C    0.125476
    47  C    0.227973
    48  C   -0.131004
    49  C   -0.199207
    50  C    0.020675
    51  C   -0.013997
    52  C   -0.044382
    53  C   -0.010487
    54  C   -0.237038
    55  C    0.038575
    56  C    0.016653
    57  C   -0.019896
    58  C   -0.039844
    59  C   -0.213685
    60  C    0.005486
    61  C    0.025652
    62  C   -0.107401
    63  C    0.030310
    64  C   -0.283392
    65  C   -0.005780
    66  C   -0.006593
    67  H    0.004681
    68  H    0.033959
    69  H   -0.001429
    70  H    0.091529
    71  H    0.032615
    72  H    0.041428
    73  H    0.057525
    74  H    0.054846
    75  H    0.035425
    76  H    0.046149
    77  H    0.054824
    78  H    0.058900
    79  H    0.070830
    80  H    0.057323
    81  H    0.031742
    82  H    0.057606
    83  H    0.059777
    84  H    0.068757
    85  H    0.046529
    86  H    0.037413
    87  H    0.050771
    88  H    0.047319
    89  H    0.054434
    90  H    0.040243
    91  H    0.039222
    92  H    0.044287
    93  H    0.050071
    94  H    0.035312
    95  H    0.046927
    96  H    0.052696
    97  H    0.059643
    98  H    0.087407
    99  H    0.042364
   100  H    0.083396
   101  H    0.045985
   102  H    0.051483
   103  H    0.082278
   104  H    0.022833
   105  H    0.060020
   106  H    0.064699
   107  H    0.021505
   108  H    0.022802
   109  H    0.016696
   110  H    0.026837
   111  H    0.032795
   112  H    0.011386
   113  H    0.035678
   114  H    0.020517
   115  H    0.039992
   116  H    0.043457
   117  H    0.041663
   118  H    0.027480
   119  H    0.023783
   120  H    0.024757
   121  H    0.026805
   122  H    0.027553
   123  H    0.013554
   124  H    0.026629
   125  H    0.028345
   126  H    0.036132
   127  H    0.017137
   128  H    0.030888
   129  H    0.021108
   130  H    0.034056
   131  H    0.021477
   132  H    0.033518
   133  H    0.018417
   134  H    0.032763
   135  H    0.040991
   136  H    0.032514
   137  H    0.035546
   138  H    0.038101
   139  H    0.038018
   140  H    0.021564
 Sum of Mulliken charges =  -0.00000

 Dipole moment (field-independent basis, Debye):
    X=             -5.1500    Y=              3.2378    Z=              1.5490  Tot=              6.2773
 Quadrupole moment (field-independent basis, Debye-Ang):
   XX=           -399.9357   YY=           -430.8337   ZZ=           -400.6482
   XY=             26.2667   XZ=              7.2012   YZ=             -3.5852

 Normal termination of Gaussian 16 at Thu Apr 28 06:18:55 2022.
