 Gaussian 16, Revision A.03,
 Gaussian 16:  ES64L-G16RevA.03 25-Dec-2016

 --------------------------------
 #p wB97XD/Def2SVP td=(nstates=5)
 --------------------------------

 ----------------------------------------------------
 step_1451_chromophore_6 TDDFT with wB97XD functional
 ----------------------------------------------------
 Symbolic Z-matrix:
 Charge =  0 Multiplicity = 1

                         Standard orientation:
 ---------------------------------------------------------------------
 Center     Atomic      Atomic             Coordinates (Angstroms)
 Number     Number       Type             X           Y           Z
 ---------------------------------------------------------------------
      1         12           0        5.547386    1.102381    0.332098
      2          6           0        4.550046   -2.339581    0.398745
      3          6           0        2.168238    2.013788    0.415522
      4          6           0        6.412040    4.407206   -0.175708
      5          6           0        8.610363    0.109277   -0.638460
      6          7           0        3.591552   -0.024249    0.414816
      7          6           0        3.470356   -1.411869    0.476956
      8          6           0        2.037048   -1.839862    0.461781
      9          6           0        1.311746   -0.432310    0.152178
     10          6           0        2.446092    0.573749    0.356261
     11          6           0        0.597980   -0.186160   -1.226377
     12          6           0        1.640680   -2.591144    1.817875
     13          6           0        0.536520   -3.594993    1.736748
     14          6           0       -0.111712   -3.904903    0.383368
     15          8           0        0.407016   -4.607331   -0.503120
     16          8           0       -1.272490   -3.209804    0.291514
     17          7           0        4.420284    2.938182    0.233080
     18          6           0        3.051730    3.079695    0.315078
     19          6           0        2.732823    4.465718    0.310849
     20          6           0        3.934660    5.226459    0.128829
     21          6           0        5.004153    4.168777    0.045153
     22          6           0        1.257746    4.820376    0.538271
     23          6           0        4.254437    6.741398    0.004011
     24          8           0        5.373610    7.211150   -0.101580
     25          6           0        3.136237    7.758291    0.244496
     26          7           0        7.250358    2.094648   -0.164742
     27          6           0        7.412004    3.402356   -0.291128
     28          6           0        8.833013    3.737101   -0.696999
     29          6           0        9.596460    2.408840   -0.593143
     30          6           0        8.439268    1.455368   -0.531320
     31          6           0        8.879874    4.396179   -2.123047
     32          6           0       10.703362    2.127053    0.457151
     33          6           0       10.309841    1.598386    1.860411
     34          7           0        6.472423   -0.674214    0.155850
     35          6           0        7.725594   -0.945949   -0.252091
     36          6           0        7.994511   -2.335569   -0.199138
     37          6           0        6.794731   -2.904950    0.132011
     38          6           0        5.892534   -1.835912    0.287046
     39          6           0        9.412877   -2.996774   -0.422695
     40          6           0        6.177903   -4.199334    0.199299
     41          8           0        6.679343   -5.322952    0.140393
     42          6           0        4.665855   -3.890525    0.395256
     43          6           0        3.805281   -4.649688   -0.582195
     44          8           0        3.258336   -4.317611   -1.619703
     45          8           0        3.728886   -5.898168   -0.057494
     46          6           0        2.683186   -6.795933   -0.615423
     47          6           0       -1.874082   -3.305897   -1.032996
     48          6           0       -3.099446   -2.383457   -0.927410
     49          6           0       -4.367740   -2.549657   -1.307210
     50          6           0       -4.943723   -3.809180   -2.064614
     51          6           0       -5.353020   -1.440406   -1.033089
     52          6           0       -5.767589   -1.232806    0.441005
     53          6           0       -7.218986   -1.805912    0.580388
     54          6           0       -8.160429   -0.747208    0.925758
     55          6           0       -8.127437   -0.271532    2.411465
     56          6           0       -9.538174   -1.264478    0.472537
     57          6           0      -10.362829   -0.182874   -0.128073
     58          6           0      -11.905424   -0.262655    0.258448
     59          6           0      -12.498498    0.811023    1.212252
     60          6           0      -12.148840    0.430632    2.664579
     61          6           0      -14.006689    1.016540    1.043840
     62          6           0      -14.259898    2.259858    0.220369
     63          6           0      -15.794685    2.532496   -0.007419
     64          6           0      -16.084864    2.161012   -1.399106
     65          6           0      -17.564232    1.767445   -1.691405
     66          6           0      -15.612177    3.343697   -2.329931
     67          1           0        1.092069    2.060877    0.593521
     68          1           0        6.777645    5.397415   -0.454281
     69          1           0        9.616184   -0.220737   -0.909399
     70          1           0        1.678928   -2.457308   -0.361899
     71          1           0        0.649982   -0.202793    0.986855
     72          1           0        0.399062   -1.171736   -1.646562
     73          1           0        1.240293    0.228853   -2.003439
     74          1           0       -0.298856    0.380537   -0.977941
     75          1           0        1.428968   -1.741432    2.468148
     76          1           0        2.542382   -3.074296    2.193370
     77          1           0       -0.138234   -3.129256    2.454489
     78          1           0        0.903230   -4.587883    1.997131
     79          1           0        0.985587    4.990805    1.579284
     80          1           0        0.578526    4.123598    0.047623
     81          1           0        1.208244    5.778100    0.020229
     82          1           0        2.481524    7.343958    1.010569
     83          1           0        2.512365    7.743021   -0.649019
     84          1           0        3.649544    8.716911    0.324447
     85          1           0        9.033898    4.437523    0.113513
     86          1           0       10.113333    2.275922   -1.543706
     87          1           0        8.218312    5.259443   -2.199885
     88          1           0        8.473553    3.677747   -2.835897
     89          1           0        9.896183    4.718330   -2.351845
     90          1           0       11.319858    3.003248    0.661247
     91          1           0       11.349954    1.333172    0.081902
     92          1           0       11.001115    1.984328    2.609479
     93          1           0       10.142917    0.526339    1.965225
     94          1           0        9.331361    2.025620    2.079313
     95          1           0        9.336998   -3.993580    0.011008
     96          1           0       10.148456   -2.465505    0.181283
     97          1           0        9.595695   -3.228332   -1.472330
     98          1           0        4.265931   -4.267027    1.336250
     99          1           0        3.129467   -7.690624   -1.049065
    100          1           0        2.082990   -6.419102   -1.444289
    101          1           0        2.051092   -7.164645    0.191652
    102          1           0       -2.175686   -4.349182   -1.128679
    103          1           0       -1.250404   -3.004650   -1.874066
    104          1           0       -2.819806   -1.415629   -0.508961
    105          1           0       -5.337507   -3.527291   -3.041558
    106          1           0       -5.591395   -4.425113   -1.440097
    107          1           0       -4.033242   -4.381889   -2.243282
    108          1           0       -6.095664   -1.314246   -1.820942
    109          1           0       -4.864950   -0.477668   -1.182567
    110          1           0       -5.677549   -0.161630    0.616901
    111          1           0       -5.045862   -1.721066    1.095163
    112          1           0       -7.019605   -2.424378    1.455823
    113          1           0       -7.442720   -2.491606   -0.236369
    114          1           0       -7.906230    0.030666    0.204470
    115          1           0       -7.139992   -0.519430    2.799696
    116          1           0       -8.948396   -0.772142    2.924997
    117          1           0       -8.289356    0.805974    2.375402
    118          1           0      -10.048230   -1.652768    1.354261
    119          1           0       -9.391878   -1.995210   -0.321855
    120          1           0      -10.362810   -0.262869   -1.214379
    121          1           0       -9.964698    0.810534    0.079996
    122          1           0      -12.147935   -1.235811    0.684909
    123          1           0      -12.497135   -0.187726   -0.653392
    124          1           0      -11.941883    1.737900    1.075204
    125          1           0      -11.601211    1.241562    3.144174
    126          1           0      -11.649588   -0.538023    2.692182
    127          1           0      -13.075118    0.461390    3.238524
    128          1           0      -14.546447    1.139452    1.982479
    129          1           0      -14.409280    0.176243    0.477837
    130          1           0      -13.766465    2.160261   -0.746632
    131          1           0      -13.834058    3.111926    0.749400
    132          1           0      -15.988278    3.566092    0.280003
    133          1           0      -16.286888    1.804734    0.638659
    134          1           0      -15.521233    1.252054   -1.612162
    135          1           0      -18.072981    2.179522   -0.819521
    136          1           0      -17.595782    0.679703   -1.745508
    137          1           0      -17.990147    2.066938   -2.649382
    138          1           0      -14.672349    3.242014   -2.871875
    139          1           0      -15.618400    4.281206   -1.774513
    140          1           0      -16.358248    3.300036   -3.123350
 ---------------------------------------------------------------------

 SCF Done:  E(RwB97XD) =  -3007.83898958     A.U. after   17 cycles

 Excitation energies and oscillator strengths:

 Excited State   1:      Singlet-A      1.7682 eV  701.19 nm  f=0.3649  <S**2>=0.000
     245 -> 248       -0.15886
     246 -> 247        0.68664
     245 <- 248       -0.10178
 This state for optimization and/or second-order correction.
 Total Energy, E(TD-HF/TD-DFT) =  -3007.77400968
 Copying the excited state density for this state as the 1-particle RhoCI density.

 Excited State   2:      Singlet-A      2.2365 eV  554.36 nm  f=0.1027  <S**2>=0.000
     245 -> 247        0.63534
     246 -> 248        0.28478

 Excited State   3:      Singlet-A      3.3948 eV  365.22 nm  f=0.1647  <S**2>=0.000
     240 -> 247       -0.31510
     241 -> 247        0.24150
     242 -> 247       -0.21331
     244 -> 247        0.28707
     245 -> 247       -0.11636
     246 -> 248        0.42521

 Excited State   4:      Singlet-A      3.6073 eV  343.70 nm  f=0.0988  <S**2>=0.000
     239 -> 247        0.48539
     239 -> 249       -0.30459
     239 -> 250        0.15143
     240 -> 247       -0.25543
     245 -> 247        0.10863
     246 -> 248       -0.18189

 Excited State   5:      Singlet-A      3.6573 eV  339.00 nm  f=0.5499  <S**2>=0.000
     239 -> 247        0.25680
     239 -> 249       -0.14702
     240 -> 247        0.16569
     241 -> 247       -0.14645
     242 -> 247        0.11809
     244 -> 247       -0.26664
     245 -> 247       -0.25398
     246 -> 248        0.43467

 The electronic state is 1-A.
 Alpha  occ. eigenvalues --  -46.94278 -19.31837 -19.28614 -19.25772 -19.25081
 Alpha  occ. eigenvalues --  -19.23328 -19.23007 -14.46945 -14.45818 -14.44179
 Alpha  occ. eigenvalues --  -14.43238 -10.44099 -10.41942 -10.40316 -10.38051
 Alpha  occ. eigenvalues --  -10.36658 -10.35830 -10.35573 -10.34928 -10.34650
 Alpha  occ. eigenvalues --  -10.34285 -10.34123 -10.33538 -10.33197 -10.33179
 Alpha  occ. eigenvalues --  -10.32464 -10.32189 -10.32160 -10.32004 -10.31846
 Alpha  occ. eigenvalues --  -10.31787 -10.31620 -10.31511 -10.31504 -10.31359
 Alpha  occ. eigenvalues --  -10.31354 -10.31319 -10.30986 -10.30744 -10.30572
 Alpha  occ. eigenvalues --  -10.30541 -10.30210 -10.30190 -10.30099 -10.30093
 Alpha  occ. eigenvalues --  -10.29736 -10.29408 -10.29354 -10.29307 -10.29306
 Alpha  occ. eigenvalues --  -10.29284 -10.29080 -10.29056 -10.29022 -10.28820
 Alpha  occ. eigenvalues --  -10.28711 -10.28564 -10.28490 -10.28306 -10.28221
 Alpha  occ. eigenvalues --  -10.28131 -10.28122 -10.28119 -10.28106 -10.27882
 Alpha  occ. eigenvalues --  -10.27139  -3.20403  -1.94006  -1.93504  -1.93401
 Alpha  occ. eigenvalues --   -1.19896  -1.17089  -1.13562  -1.10509  -1.10437
 Alpha  occ. eigenvalues --   -1.08224  -1.07284  -1.06425  -1.05930  -1.04766
 Alpha  occ. eigenvalues --   -0.93725  -0.93292  -0.92226  -0.91828  -0.91176
 Alpha  occ. eigenvalues --   -0.90913  -0.90056  -0.89807  -0.89051  -0.88969
 Alpha  occ. eigenvalues --   -0.87717  -0.87428  -0.86585  -0.85292  -0.85026
 Alpha  occ. eigenvalues --   -0.84411  -0.83991  -0.83120  -0.82497  -0.82125
 Alpha  occ. eigenvalues --   -0.81830  -0.80227  -0.79295  -0.78808  -0.78285
 Alpha  occ. eigenvalues --   -0.77333  -0.77127  -0.76983  -0.76860  -0.76382
 Alpha  occ. eigenvalues --   -0.75539  -0.74469  -0.73617  -0.72743  -0.71577
 Alpha  occ. eigenvalues --   -0.70909  -0.70669  -0.69313  -0.68386  -0.67877
 Alpha  occ. eigenvalues --   -0.67012  -0.66671  -0.66401  -0.66146  -0.65999
 Alpha  occ. eigenvalues --   -0.65771  -0.64872  -0.64500  -0.63053  -0.62316
 Alpha  occ. eigenvalues --   -0.61837  -0.61246  -0.61060  -0.60198  -0.59740
 Alpha  occ. eigenvalues --   -0.59447  -0.58813  -0.58288  -0.57908  -0.57365
 Alpha  occ. eigenvalues --   -0.57042  -0.56718  -0.56678  -0.56414  -0.56098
 Alpha  occ. eigenvalues --   -0.55955  -0.55472  -0.55384  -0.55068  -0.54991
 Alpha  occ. eigenvalues --   -0.54734  -0.54527  -0.54392  -0.54149  -0.53902
 Alpha  occ. eigenvalues --   -0.53643  -0.53218  -0.52881  -0.52685  -0.52447
 Alpha  occ. eigenvalues --   -0.52325  -0.52158  -0.51923  -0.51894  -0.51584
 Alpha  occ. eigenvalues --   -0.51558  -0.51430  -0.51111  -0.50904  -0.50664
 Alpha  occ. eigenvalues --   -0.50407  -0.50253  -0.50003  -0.49829  -0.49714
 Alpha  occ. eigenvalues --   -0.49307  -0.49132  -0.48889  -0.48739  -0.48548
 Alpha  occ. eigenvalues --   -0.48260  -0.48195  -0.47966  -0.47828  -0.47716
 Alpha  occ. eigenvalues --   -0.47306  -0.47236  -0.47047  -0.46910  -0.46880
 Alpha  occ. eigenvalues --   -0.46740  -0.46162  -0.46120  -0.45965  -0.45702
 Alpha  occ. eigenvalues --   -0.45635  -0.45500  -0.45276  -0.45114  -0.44906
 Alpha  occ. eigenvalues --   -0.44785  -0.44493  -0.44285  -0.43939  -0.43706
 Alpha  occ. eigenvalues --   -0.43626  -0.43516  -0.43402  -0.43127  -0.42921
 Alpha  occ. eigenvalues --   -0.42704  -0.42505  -0.42334  -0.42127  -0.41865
 Alpha  occ. eigenvalues --   -0.41808  -0.41287  -0.41029  -0.40700  -0.40402
 Alpha  occ. eigenvalues --   -0.40086  -0.39995  -0.39742  -0.39682  -0.39158
 Alpha  occ. eigenvalues --   -0.39121  -0.38793  -0.38508  -0.38444  -0.37950
 Alpha  occ. eigenvalues --   -0.37516  -0.37306  -0.37017  -0.36539  -0.36110
 Alpha  occ. eigenvalues --   -0.36002  -0.35531  -0.34725  -0.33714  -0.33475
 Alpha  occ. eigenvalues --   -0.32380  -0.32302  -0.31971  -0.31914  -0.25933
 Alpha  occ. eigenvalues --   -0.22716
 Alpha virt. eigenvalues --   -0.06548   0.00694   0.02446   0.04648   0.06014
 Alpha virt. eigenvalues --    0.06212   0.07202   0.08485   0.08762   0.09340
 Alpha virt. eigenvalues --    0.10590   0.10957   0.12032   0.12061   0.12379

 Mulliken charges:
               1
     1  Mg   0.990839
     2  C    0.013647
     3  C   -0.098825
     4  C   -0.090858
     5  C   -0.084054
     6  N   -0.289006
     7  C   -0.000021
     8  C   -0.131620
     9  C   -0.136435
    10  C   -0.017600
    11  C    0.050330
    12  C    0.011450
    13  C    0.082186
    14  C    0.172029
    15  O   -0.272249
    16  O   -0.340696
    17  N   -0.445833
    18  C    0.232978
    19  C   -0.171711
    20  C   -0.095988
    21  C    0.149875
    22  C    0.070699
    23  C    0.059729
    24  O   -0.221252
    25  C   -0.011948
    26  N   -0.409977
    27  C    0.065102
    28  C   -0.097732
    29  C   -0.004468
    30  C    0.049582
    31  C    0.020695
    32  C   -0.017961
    33  C   -0.051450
    34  N   -0.409154
    35  C    0.073345
    36  C   -0.198295
    37  C   -0.064460
    38  C    0.107165
    39  C    0.085404
    40  C    0.153943
    41  O   -0.203516
    42  C   -0.099035
    43  C    0.254554
    44  O   -0.234479
    45  O   -0.363081
    46  C    0.140271
    47  C    0.238664
    48  C   -0.136555
    49  C   -0.188924
    50  C    0.037781
    51  C    0.004672
    52  C   -0.031173
    53  C    0.007712
    54  C   -0.203212
    55  C    0.050575
    56  C    0.035386
    57  C   -0.007115
    58  C   -0.018983
    59  C   -0.187179
    60  C    0.019632
    61  C    0.043272
    62  C   -0.086840
    63  C    0.044388
    64  C   -0.248786
    65  C    0.006626
    66  C    0.004003
    67  H   -0.000597
    68  H    0.027810
    69  H   -0.009447
    70  H    0.068823
    71  H    0.020859
    72  H    0.032287
    73  H    0.052889
    74  H    0.049828
    75  H    0.025968
    76  H    0.035163
    77  H    0.049863
    78  H    0.053753
    79  H    0.070516
    80  H    0.055299
    81  H    0.024484
    82  H    0.051375
    83  H    0.055814
    84  H    0.069817
    85  H    0.036643
    86  H    0.027147
    87  H    0.044045
    88  H    0.041479
    89  H    0.050181
    90  H    0.032044
    91  H    0.031312
    92  H    0.038775
    93  H    0.044032
    94  H    0.021683
    95  H    0.040313
    96  H    0.045164
    97  H    0.053098
    98  H    0.078310
    99  H    0.038363
   100  H    0.079462
   101  H    0.041837
   102  H    0.045928
   103  H    0.078207
   104  H    0.017946
   105  H    0.055232
   106  H    0.060002
   107  H    0.013135
   108  H    0.015784
   109  H    0.007296
   110  H    0.018500
   111  H    0.025224
   112  H    0.001307
   113  H    0.024741
   114  H    0.003072
   115  H    0.033978
   116  H    0.036399
   117  H    0.036156
   118  H    0.012618
   119  H    0.015772
   120  H    0.018206
   121  H    0.016537
   122  H    0.017040
   123  H    0.003513
   124  H    0.013015
   125  H    0.023119
   126  H    0.025870
   127  H    0.010784
   128  H    0.021541
   129  H    0.009831
   130  H    0.019708
   131  H    0.012991
   132  H    0.026406
   133  H    0.007285
   134  H    0.018297
   135  H    0.034352
   136  H    0.026952
   137  H    0.030258
   138  H    0.033093
   139  H    0.031404
   140  H    0.014046
 Sum of Mulliken charges =  -0.00000

 Dipole moment (field-independent basis, Debye):
    X=             -6.0234    Y=              4.4900    Z=              1.6425  Tot=              7.6902
 Quadrupole moment (field-independent basis, Debye-Ang):
   XX=           -408.9043   YY=           -426.3764   ZZ=           -400.2711
   XY=             31.0851   XZ=              7.6595   YZ=             -3.4294

 Normal termination of Gaussian 16 at Thu Apr 28 06:52:18 2022.
