 Gaussian 16, Revision A.03,
 Gaussian 16:  ES64L-G16RevA.03 25-Dec-2016

 --------------------
 #p ZINDO=(nstates=5)
 --------------------

 -----------------------------
 step_1451_chromophore_6 ZINDO
 -----------------------------
 Symbolic Z-matrix:
 Charge =  0 Multiplicity = 1

                         Standard orientation:
 ---------------------------------------------------------------------
 Center     Atomic      Atomic             Coordinates (Angstroms)
 Number     Number       Type             X           Y           Z
 ---------------------------------------------------------------------
      1         12           0        5.547386    1.102381    0.332098
      2          6           0        4.550046   -2.339581    0.398745
      3          6           0        2.168238    2.013788    0.415522
      4          6           0        6.412040    4.407206   -0.175708
      5          6           0        8.610363    0.109277   -0.638460
      6          7           0        3.591552   -0.024249    0.414816
      7          6           0        3.470356   -1.411869    0.476956
      8          6           0        2.037048   -1.839862    0.461781
      9          6           0        1.311746   -0.432310    0.152178
     10          6           0        2.446092    0.573749    0.356261
     11          6           0        0.597980   -0.186160   -1.226377
     12          6           0        1.640680   -2.591144    1.817875
     13          6           0        0.536520   -3.594993    1.736748
     14          6           0       -0.111712   -3.904903    0.383368
     15          8           0        0.407016   -4.607331   -0.503120
     16          8           0       -1.272490   -3.209804    0.291514
     17          7           0        4.420284    2.938182    0.233080
     18          6           0        3.051730    3.079695    0.315078
     19          6           0        2.732823    4.465718    0.310849
     20          6           0        3.934660    5.226459    0.128829
     21          6           0        5.004153    4.168777    0.045153
     22          6           0        1.257746    4.820376    0.538271
     23          6           0        4.254437    6.741398    0.004011
     24          8           0        5.373610    7.211150   -0.101580
     25          6           0        3.136237    7.758291    0.244496
     26          7           0        7.250358    2.094648   -0.164742
     27          6           0        7.412004    3.402356   -0.291128
     28          6           0        8.833013    3.737101   -0.696999
     29          6           0        9.596460    2.408840   -0.593143
     30          6           0        8.439268    1.455368   -0.531320
     31          6           0        8.879874    4.396179   -2.123047
     32          6           0       10.703362    2.127053    0.457151
     33          6           0       10.309841    1.598386    1.860411
     34          7           0        6.472423   -0.674214    0.155850
     35          6           0        7.725594   -0.945949   -0.252091
     36          6           0        7.994511   -2.335569   -0.199138
     37          6           0        6.794731   -2.904950    0.132011
     38          6           0        5.892534   -1.835912    0.287046
     39          6           0        9.412877   -2.996774   -0.422695
     40          6           0        6.177903   -4.199334    0.199299
     41          8           0        6.679343   -5.322952    0.140393
     42          6           0        4.665855   -3.890525    0.395256
     43          6           0        3.805281   -4.649688   -0.582195
     44          8           0        3.258336   -4.317611   -1.619703
     45          8           0        3.728886   -5.898168   -0.057494
     46          6           0        2.683186   -6.795933   -0.615423
     47          6           0       -1.874082   -3.305897   -1.032996
     48          6           0       -3.099446   -2.383457   -0.927410
     49          6           0       -4.367740   -2.549657   -1.307210
     50          6           0       -4.943723   -3.809180   -2.064614
     51          6           0       -5.353020   -1.440406   -1.033089
     52          6           0       -5.767589   -1.232806    0.441005
     53          6           0       -7.218986   -1.805912    0.580388
     54          6           0       -8.160429   -0.747208    0.925758
     55          6           0       -8.127437   -0.271532    2.411465
     56          6           0       -9.538174   -1.264478    0.472537
     57          6           0      -10.362829   -0.182874   -0.128073
     58          6           0      -11.905424   -0.262655    0.258448
     59          6           0      -12.498498    0.811023    1.212252
     60          6           0      -12.148840    0.430632    2.664579
     61          6           0      -14.006689    1.016540    1.043840
     62          6           0      -14.259898    2.259858    0.220369
     63          6           0      -15.794685    2.532496   -0.007419
     64          6           0      -16.084864    2.161012   -1.399106
     65          6           0      -17.564232    1.767445   -1.691405
     66          6           0      -15.612177    3.343697   -2.329931
     67          1           0        1.092069    2.060877    0.593521
     68          1           0        6.777645    5.397415   -0.454281
     69          1           0        9.616184   -0.220737   -0.909399
     70          1           0        1.678928   -2.457308   -0.361899
     71          1           0        0.649982   -0.202793    0.986855
     72          1           0        0.399062   -1.171736   -1.646562
     73          1           0        1.240293    0.228853   -2.003439
     74          1           0       -0.298856    0.380537   -0.977941
     75          1           0        1.428968   -1.741432    2.468148
     76          1           0        2.542382   -3.074296    2.193370
     77          1           0       -0.138234   -3.129256    2.454489
     78          1           0        0.903230   -4.587883    1.997131
     79          1           0        0.985587    4.990805    1.579284
     80          1           0        0.578526    4.123598    0.047623
     81          1           0        1.208244    5.778100    0.020229
     82          1           0        2.481524    7.343958    1.010569
     83          1           0        2.512365    7.743021   -0.649019
     84          1           0        3.649544    8.716911    0.324447
     85          1           0        9.033898    4.437523    0.113513
     86          1           0       10.113333    2.275922   -1.543706
     87          1           0        8.218312    5.259443   -2.199885
     88          1           0        8.473553    3.677747   -2.835897
     89          1           0        9.896183    4.718330   -2.351845
     90          1           0       11.319858    3.003248    0.661247
     91          1           0       11.349954    1.333172    0.081902
     92          1           0       11.001115    1.984328    2.609479
     93          1           0       10.142917    0.526339    1.965225
     94          1           0        9.331361    2.025620    2.079313
     95          1           0        9.336998   -3.993580    0.011008
     96          1           0       10.148456   -2.465505    0.181283
     97          1           0        9.595695   -3.228332   -1.472330
     98          1           0        4.265931   -4.267027    1.336250
     99          1           0        3.129467   -7.690624   -1.049065
    100          1           0        2.082990   -6.419102   -1.444289
    101          1           0        2.051092   -7.164645    0.191652
    102          1           0       -2.175686   -4.349182   -1.128679
    103          1           0       -1.250404   -3.004650   -1.874066
    104          1           0       -2.819806   -1.415629   -0.508961
    105          1           0       -5.337507   -3.527291   -3.041558
    106          1           0       -5.591395   -4.425113   -1.440097
    107          1           0       -4.033242   -4.381889   -2.243282
    108          1           0       -6.095664   -1.314246   -1.820942
    109          1           0       -4.864950   -0.477668   -1.182567
    110          1           0       -5.677549   -0.161630    0.616901
    111          1           0       -5.045862   -1.721066    1.095163
    112          1           0       -7.019605   -2.424378    1.455823
    113          1           0       -7.442720   -2.491606   -0.236369
    114          1           0       -7.906230    0.030666    0.204470
    115          1           0       -7.139992   -0.519430    2.799696
    116          1           0       -8.948396   -0.772142    2.924997
    117          1           0       -8.289356    0.805974    2.375402
    118          1           0      -10.048230   -1.652768    1.354261
    119          1           0       -9.391878   -1.995210   -0.321855
    120          1           0      -10.362810   -0.262869   -1.214379
    121          1           0       -9.964698    0.810534    0.079996
    122          1           0      -12.147935   -1.235811    0.684909
    123          1           0      -12.497135   -0.187726   -0.653392
    124          1           0      -11.941883    1.737900    1.075204
    125          1           0      -11.601211    1.241562    3.144174
    126          1           0      -11.649588   -0.538023    2.692182
    127          1           0      -13.075118    0.461390    3.238524
    128          1           0      -14.546447    1.139452    1.982479
    129          1           0      -14.409280    0.176243    0.477837
    130          1           0      -13.766465    2.160261   -0.746632
    131          1           0      -13.834058    3.111926    0.749400
    132          1           0      -15.988278    3.566092    0.280003
    133          1           0      -16.286888    1.804734    0.638659
    134          1           0      -15.521233    1.252054   -1.612162
    135          1           0      -18.072981    2.179522   -0.819521
    136          1           0      -17.595782    0.679703   -1.745508
    137          1           0      -17.990147    2.066938   -2.649382
    138          1           0      -14.672349    3.242014   -2.871875
    139          1           0      -15.618400    4.281206   -1.774513
    140          1           0      -16.358248    3.300036   -3.123350
 ---------------------------------------------------------------------

 SCF Done:  E(RZINDO/S) =  -474.457438580     A.U. after   18 cycles

 Excitation energies and oscillator strengths:

 Excited State   1:      Singlet-A      1.3893 eV  892.44 nm  f=0.4786  <S**2>=0.000
     175 ->178         0.12560
     176 ->177         0.67868
 This state for optimization and/or second-order correction.
 Total Energy, E(CIS/TDA) =  -474.406383850
 Copying the excited state density for this state as the 1-particle RhoCI density.

 Excited State   2:      Singlet-A      2.0187 eV  614.18 nm  f=0.0252  <S**2>=0.000
     175 ->177         0.51787
     176 ->178        -0.43977

 Excited State   3:      Singlet-A      2.8885 eV  429.23 nm  f=0.7142  <S**2>=0.000
     175 ->177         0.35755
     176 ->178         0.46710
     176 ->179        -0.19341
     176 ->181        -0.23094

 Excited State   4:      Singlet-A      2.9343 eV  422.53 nm  f=0.0120  <S**2>=0.000
     167 ->177         0.27421
     167 ->179        -0.38209
     167 ->181         0.15978
     167 ->184         0.11710
     167 ->185        -0.10054
     168 ->177         0.21768
     168 ->179        -0.28159
     168 ->181         0.11457

 Excited State   5:      Singlet-A      3.1166 eV  397.82 nm  f=0.4075  <S**2>=0.000
     169 ->177         0.12835
     171 ->181         0.14589
     173 ->177         0.10367
     175 ->177         0.18392
     176 ->178         0.17164
     176 ->179         0.48367
     176 ->181         0.27753

 The electronic state is 1-A.
 Alpha  occ. eigenvalues --   -1.86725  -1.82458  -1.80580  -1.74751  -1.71555
 Alpha  occ. eigenvalues --   -1.71114  -1.68645  -1.65182  -1.60102  -1.56755
 Alpha  occ. eigenvalues --   -1.56026  -1.52435  -1.49208  -1.46280  -1.45682
 Alpha  occ. eigenvalues --   -1.43086  -1.42137  -1.39642  -1.39581  -1.38880
 Alpha  occ. eigenvalues --   -1.36227  -1.32658  -1.31802  -1.30483  -1.28597
 Alpha  occ. eigenvalues --   -1.27850  -1.24837  -1.22982  -1.20261  -1.17704
 Alpha  occ. eigenvalues --   -1.17420  -1.16390  -1.15652  -1.14789  -1.14454
 Alpha  occ. eigenvalues --   -1.12729  -1.11443  -1.10958  -1.04910  -1.03044
 Alpha  occ. eigenvalues --   -1.02807  -1.01042  -0.99651  -0.98436  -0.97188
 Alpha  occ. eigenvalues --   -0.95181  -0.94541  -0.93963  -0.92757  -0.92022
 Alpha  occ. eigenvalues --   -0.90149  -0.89923  -0.89326  -0.87662  -0.87383
 Alpha  occ. eigenvalues --   -0.85041  -0.84595  -0.83217  -0.80815  -0.79791
 Alpha  occ. eigenvalues --   -0.79223  -0.78076  -0.77560  -0.76563  -0.75692
 Alpha  occ. eigenvalues --   -0.75152  -0.74955  -0.74514  -0.74381  -0.74147
 Alpha  occ. eigenvalues --   -0.72860  -0.72544  -0.72056  -0.71633  -0.70946
 Alpha  occ. eigenvalues --   -0.70698  -0.70362  -0.69174  -0.68736  -0.68273
 Alpha  occ. eigenvalues --   -0.67603  -0.66444  -0.66027  -0.65694  -0.65617
 Alpha  occ. eigenvalues --   -0.65572  -0.64530  -0.64081  -0.63741  -0.62949
 Alpha  occ. eigenvalues --   -0.62725  -0.62476  -0.62344  -0.62028  -0.61416
 Alpha  occ. eigenvalues --   -0.61106  -0.61019  -0.60795  -0.60650  -0.60087
 Alpha  occ. eigenvalues --   -0.59228  -0.58785  -0.58708  -0.58295  -0.58199
 Alpha  occ. eigenvalues --   -0.58129  -0.57519  -0.56652  -0.56610  -0.56504
 Alpha  occ. eigenvalues --   -0.56024  -0.55667  -0.55231  -0.54891  -0.54655
 Alpha  occ. eigenvalues --   -0.54493  -0.53599  -0.53426  -0.53260  -0.53013
 Alpha  occ. eigenvalues --   -0.52511  -0.51932  -0.51626  -0.51545  -0.51367
 Alpha  occ. eigenvalues --   -0.50842  -0.50746  -0.50197  -0.49940  -0.49871
 Alpha  occ. eigenvalues --   -0.49582  -0.49562  -0.49039  -0.48879  -0.48436
 Alpha  occ. eigenvalues --   -0.48331  -0.48260  -0.48142  -0.47935  -0.47576
 Alpha  occ. eigenvalues --   -0.47325  -0.46899  -0.46642  -0.46214  -0.46204
 Alpha  occ. eigenvalues --   -0.46031  -0.45669  -0.45468  -0.45285  -0.45015
 Alpha  occ. eigenvalues --   -0.44965  -0.44563  -0.44358  -0.43865  -0.43852
 Alpha  occ. eigenvalues --   -0.42901  -0.42631  -0.41987  -0.41765  -0.41547
 Alpha  occ. eigenvalues --   -0.41111  -0.40146  -0.40057  -0.38721  -0.38281
 Alpha  occ. eigenvalues --   -0.37127  -0.36694  -0.35956  -0.34407  -0.34219
 Alpha  occ. eigenvalues --   -0.33451  -0.32781  -0.31666  -0.31576  -0.26757
 Alpha  occ. eigenvalues --   -0.21481
 Alpha virt. eigenvalues --   -0.07664  -0.01428  -0.00422   0.01528   0.02013
 Alpha virt. eigenvalues --    0.02662   0.03615   0.04070   0.04572   0.04775
 Alpha virt. eigenvalues --    0.05641   0.06633   0.07339   0.07878   0.08028

 Mulliken charges:
               1
     1  Mg   0.422849
     2  C   -0.030732
     3  C   -0.093119
     4  C   -0.114437
     5  C   -0.065952
     6  N   -0.251316
     7  C    0.062550
     8  C   -0.010666
     9  C   -0.009433
    10  C    0.187179
    11  C   -0.047458
    12  C   -0.018989
    13  C    0.002778
    14  C    0.469764
    15  O   -0.519471
    16  O   -0.259270
    17  N   -0.355782
    18  C    0.143568
    19  C    0.041199
    20  C   -0.042300
    21  C    0.167109
    22  C   -0.046106
    23  C    0.326918
    24  O   -0.502387
    25  C   -0.036128
    26  N   -0.281189
    27  C    0.200695
    28  C    0.007959
    29  C    0.010842
    30  C    0.077405
    31  C   -0.046017
    32  C   -0.022540
    33  C   -0.058885
    34  N   -0.282196
    35  C    0.058329
    36  C   -0.016542
    37  C   -0.061799
    38  C    0.080928
    39  C   -0.054482
    40  C    0.333723
    41  O   -0.530781
    42  C    0.063198
    43  C    0.492334
    44  O   -0.516705
    45  O   -0.262177
    46  C    0.070776
    47  C    0.103817
    48  C   -0.086794
    49  C   -0.005845
    50  C   -0.051153
    51  C   -0.033240
    52  C   -0.036571
    53  C   -0.032628
    54  C   -0.010214
    55  C   -0.054493
    56  C   -0.035059
    57  C   -0.036024
    58  C   -0.041942
    59  C   -0.015179
    60  C   -0.068687
    61  C   -0.026323
    62  C   -0.044496
    63  C   -0.032450
    64  C   -0.006892
    65  C   -0.067660
    66  C   -0.067233
    67  H    0.030545
    68  H    0.050842
    69  H    0.018296
    70  H    0.054922
    71  H    0.021463
    72  H    0.028095
    73  H    0.034309
    74  H    0.028008
    75  H    0.020433
    76  H    0.027162
    77  H    0.036075
    78  H    0.043803
    79  H    0.042442
    80  H    0.036684
    81  H    0.017802
    82  H    0.040477
    83  H    0.033081
    84  H    0.056170
    85  H    0.034491
    86  H    0.018321
    87  H    0.023552
    88  H    0.027103
    89  H    0.024237
    90  H    0.016217
    91  H    0.019396
    92  H    0.017323
    93  H    0.029766
    94  H    0.012058
    95  H    0.020433
    96  H    0.030491
    97  H    0.039366
    98  H    0.057321
    99  H    0.029160
   100  H    0.060548
   101  H    0.031252
   102  H    0.047137
   103  H    0.061852
   104  H    0.023470
   105  H    0.035841
   106  H    0.037307
   107  H    0.016573
   108  H    0.025627
   109  H    0.000023
   110  H    0.018815
   111  H    0.022411
   112  H    0.004333
   113  H    0.030742
   114  H    0.017607
   115  H    0.025961
   116  H    0.029840
   117  H    0.021277
   118  H    0.023864
   119  H    0.022013
   120  H    0.012661
   121  H    0.020207
   122  H    0.018844
   123  H    0.006936
   124  H    0.018947
   125  H    0.014080
   126  H    0.027732
   127  H    0.014515
   128  H    0.023920
   129  H    0.019471
   130  H    0.021078
   131  H    0.010705
   132  H    0.027114
   133  H    0.011862
   134  H    0.018528
   135  H    0.024136
   136  H    0.014062
   137  H    0.024567
   138  H    0.021123
   139  H    0.025689
   140  H    0.013309
 Sum of Mulliken charges =  -0.00000

 Dipole moment (field-independent basis, Debye):
    X=            -10.1844    Y=              8.7462    Z=              3.3539  Tot=             13.8371
 N-N= 4.298546142610D+03 E-N= 0.000000000000D+00  KE=-9.272151677008D+03
 Leave Link  601 at Thu Apr 28 07:05:35 2022, MaxMem=  6710886400 cpu:               0.8 elap:               0.0
 (Enter /sw/apps/gaussian-16.0/g16/l9999.exe)
 1\1\GINC-BP1-COMPUTE134\SP\RZINDO CIS\STO-3G\C55H74Mg1N4O6\OF15641\28-
 Apr-2022\0\\#p ZINDO=(nstates=5)\\step_1451_chromophore_6 ZINDO\\0,1\M
 g,0,17.193,-2.607,28.518\C,0,16.413,-0.355,31.195\C,0,19.043,-4.542,30
 .774\C,0,18.345,-4.564,25.916\C,0,16.182,-0.245,26.348\N,0,17.66,-2.47
 7,30.724\C,0,17.184,-1.489,31.585\C,0,17.726,-1.658,32.969\C,0,18.81,-
 2.827,32.721\C,0,18.458,-3.308,31.312\C,0,20.349,-2.528,32.833\C,0,16.
 555,-1.949,34.02\C,0,16.794,-1.525,35.433\C,0,18.088,-0.79,35.798\O,0,

 Normal termination of Gaussian 16 at Thu Apr 28 07:05:35 2022.
