 Gaussian 16, Revision A.03,
 Gaussian 16:  ES64L-G16RevA.03 25-Dec-2016

 ------------------------------
 #p blyp/Def2SVP td=(nstates=5)
 ------------------------------

 --------------------------------------------------
 step_1651_chromophore_5 TDDFT with blyp functional
 --------------------------------------------------
 Symbolic Z-matrix:
 Charge =  0 Multiplicity = 1

                         Standard orientation:
 ---------------------------------------------------------------------
 Center     Atomic      Atomic             Coordinates (Angstroms)
 Number     Number       Type             X           Y           Z
 ---------------------------------------------------------------------
      1         12           0        5.372863    0.579391   -0.454017
      2          6           0        4.107186   -2.608582   -0.310055
      3          6           0        2.848842    1.581674   -2.430326
      4          6           0        6.271779    3.885241    0.208203
      5          6           0        7.535787   -0.312943    2.366449
      6          7           0        3.484575   -0.387984   -0.978983
      7          6           0        3.176840   -1.762075   -0.894797
      8          6           0        1.915306   -2.042433   -1.629992
      9          6           0        1.606163   -0.767989   -2.450279
     10          6           0        2.716073    0.249044   -1.964761
     11          6           0        1.603725   -0.937989   -3.979844
     12          6           0        0.846587   -2.623654   -0.697791
     13          6           0       -0.000581   -3.748265   -1.370034
     14          6           0       -1.442132   -3.766504   -0.723168
     15          8           0       -1.898997   -4.644294   -0.006774
     16          8           0       -2.125565   -2.583850   -1.078196
     17          7           0        4.823530    2.425275   -1.182551
     18          6           0        3.728494    2.574770   -2.031831
     19          6           0        3.769599    3.917509   -2.437718
     20          6           0        4.741495    4.665659   -1.697817
     21          6           0        5.368556    3.663218   -0.849965
     22          6           0        2.811720    4.427096   -3.512469
     23          6           0        5.004413    6.138107   -1.793471
     24          8           0        4.307474    6.793643   -2.614153
     25          6           0        6.283514    6.832407   -1.131220
     26          7           0        6.731321    1.656699    1.031907
     27          6           0        6.906229    2.970897    1.010775
     28          6           0        8.022792    3.337344    2.072674
     29          6           0        8.617041    1.999666    2.522795
     30          6           0        7.544238    1.057535    1.995423
     31          6           0        9.097906    4.478915    1.773074
     32          6           0        9.025060    1.817866    4.062239
     33          6           0       10.537946    1.578201    4.364358
     34          7           0        5.796894   -1.081954    0.767490
     35          6           0        6.704746   -1.314447    1.788257
     36          6           0        6.771561   -2.735023    2.037322
     37          6           0        5.781123   -3.251152    1.177929
     38          6           0        5.227574   -2.238281    0.470496
     39          6           0        7.687259   -3.405015    3.027972
     40          6           0        5.152815   -4.478596    0.758493
     41          8           0        5.192739   -5.641467    1.064681
     42          6           0        4.130613   -4.127966   -0.316832
     43          6           0        4.425427   -4.773928   -1.642408
     44          8           0        5.195362   -4.360589   -2.519460
     45          8           0        3.858525   -6.056281   -1.706109
     46          6           0        4.221513   -6.823858   -2.928859
     47          6           0       -3.471675   -2.440689   -0.441417
     48          6           0       -3.644323   -1.150423    0.371681
     49          6           0       -4.865283   -0.675304    0.850296
     50          6           0       -6.170006   -1.432403    0.559589
     51          6           0       -4.853044    0.615963    1.568457
     52          6           0       -5.610102    1.637113    0.629849
     53          6           0       -7.011970    2.027692    1.134334
     54          6           0       -7.949049    2.179804   -0.072706
     55          6           0       -7.805606    3.574583   -0.659450
     56          6           0       -9.464949    1.875312    0.269770
     57          6           0       -9.803595    0.360681    0.162486
     58          6           0      -10.013785   -0.264067    1.504556
     59          6           0      -11.454716   -0.811391    1.774573
     60          6           0      -11.616143   -1.527173    3.116543
     61          6           0      -12.550101    0.278760    1.343252
     62          6           0      -13.449845   -0.196776    0.255133
     63          6           0      -14.997988   -0.010712    0.492892
     64          6           0      -15.624091    1.068863   -0.406519
     65          6           0      -15.201532    2.468819    0.090490
     66          6           0      -17.134679    1.089131   -0.343271
     67          1           0        2.076734    1.768447   -3.179418
     68          1           0        6.495908    4.932032    0.418762
     69          1           0        8.302400   -0.646201    3.068927
     70          1           0        2.114339   -2.771572   -2.415286
     71          1           0        0.640012   -0.446525   -2.061545
     72          1           0        1.443654   -1.997827   -4.177506
     73          1           0        2.573284   -0.761544   -4.443345
     74          1           0        0.759885   -0.342360   -4.329081
     75          1           0        0.107603   -1.872205   -0.420865
     76          1           0        1.263178   -2.943635    0.257213
     77          1           0        0.473421   -4.654073   -0.992551
     78          1           0       -0.104549   -3.663394   -2.451684
     79          1           0        2.153677    5.182352   -3.083210
     80          1           0        2.266572    3.603546   -3.973278
     81          1           0        3.415418    4.878169   -4.301051
     82          1           0        7.143133    6.192894   -1.334277
     83          1           0        6.025789    6.879798   -0.073219
     84          1           0        6.599630    7.793796   -1.536174
     85          1           0        7.423163    3.667465    2.920894
     86          1           0        9.572914    1.776443    2.050794
     87          1           0        8.911397    5.161052    2.602910
     88          1           0        9.000084    4.845698    0.752228
     89          1           0       10.085818    4.046306    1.931878
     90          1           0        8.558688    0.900164    4.419827
     91          1           0        8.753185    2.797499    4.455228
     92          1           0       10.640185    0.523866    4.622185
     93          1           0       10.808802    2.288120    5.145082
     94          1           0       11.175312    1.781575    3.503958
     95          1           0        7.546964   -3.165064    4.081929
     96          1           0        8.690367   -3.055067    2.784708
     97          1           0        7.673942   -4.493602    2.971430
     98          1           0        3.134301   -4.437993   -0.001810
     99          1           0        3.332002   -7.389430   -3.207854
    100          1           0        4.948956   -7.597527   -2.679535
    101          1           0        4.503964   -6.317633   -3.851567
    102          1           0       -3.825854   -3.270916    0.169894
    103          1           0       -4.207260   -2.388093   -1.244479
    104          1           0       -2.710453   -0.598204    0.479191
    105          1           0       -6.130823   -2.520920    0.499471
    106          1           0       -6.282514   -1.267808   -0.512203
    107          1           0       -7.002666   -1.120286    1.188743
    108          1           0       -3.835849    0.919434    1.820885
    109          1           0       -5.427106    0.340444    2.453020
    110          1           0       -5.663051    1.326496   -0.413804
    111          1           0       -5.056345    2.575165    0.616026
    112          1           0       -6.840762    2.931480    1.718169
    113          1           0       -7.550186    1.346168    1.793337
    114          1           0       -7.793419    1.424555   -0.843600
    115          1           0       -6.861080    4.009695   -0.330074
    116          1           0       -8.608242    4.109212   -0.152037
    117          1           0       -7.883001    3.637760   -1.744298
    118          1           0      -10.122144    2.467330   -0.367676
    119          1           0       -9.648889    2.233801    1.282037
    120          1           0       -8.997828   -0.248548   -0.247840
    121          1           0      -10.611196    0.264976   -0.562861
    122          1           0       -9.508081    0.308190    2.281874
    123          1           0       -9.415014   -1.174645    1.526266
    124          1           0      -11.505209   -1.555156    0.979463
    125          1           0      -11.844835   -2.563237    2.866612
    126          1           0      -12.496157   -1.257926    3.701204
    127          1           0      -10.789634   -1.325635    3.798279
    128          1           0      -11.997987    1.137293    0.959734
    129          1           0      -13.131424    0.625501    2.197689
    130          1           0      -13.234389   -1.245931    0.048463
    131          1           0      -13.083408    0.409795   -0.573518
    132          1           0      -15.100802    0.155716    1.564357
    133          1           0      -15.397273   -0.959703    0.131924
    134          1           0      -15.230824    1.054209   -1.423074
    135          1           0      -14.365718    2.459051    0.789216
    136          1           0      -15.987250    3.001835    0.625906
    137          1           0      -14.885975    2.953101   -0.832915
    138          1           0      -17.432571    1.870414   -1.042667
    139          1           0      -17.537888    1.333221    0.640581
    140          1           0      -17.400269    0.098948   -0.712895
 ---------------------------------------------------------------------

 SCF Done:  E(RB-LYP) =  -3007.33438753     A.U. after   21 cycles

 Excitation energies and oscillator strengths:

 Excited State   1:      Singlet-A      1.6970 eV  730.63 nm  f=0.0010  <S**2>=0.000
     244 -> 247        0.68924
     245 -> 247        0.14384
 This state for optimization and/or second-order correction.
 Total Energy, E(TD-HF/TD-DFT) =  -3007.27202576
 Copying the excited state density for this state as the 1-particle RhoCI density.

 Excited State   2:      Singlet-A      1.7714 eV  699.93 nm  f=0.0749  <S**2>=0.000
     242 -> 247        0.43550
     244 -> 247        0.10828
     245 -> 247       -0.37011
     246 -> 247        0.38572

 Excited State   3:      Singlet-A      1.8174 eV  682.20 nm  f=0.1878  <S**2>=0.000
     242 -> 247       -0.26071
     243 -> 247       -0.29889
     245 -> 247        0.24704
     245 -> 248       -0.13244
     246 -> 247        0.50702
     246 <- 247       -0.10987

 Excited State   4:      Singlet-A      1.8306 eV  677.30 nm  f=0.0555  <S**2>=0.000
     243 -> 247        0.63895
     245 -> 247        0.10245
     246 -> 247        0.26299

 Excited State   5:      Singlet-A      2.0750 eV  597.52 nm  f=0.0580  <S**2>=0.000
     241 -> 247        0.12536
     242 -> 247        0.46318
     245 -> 247        0.44910
     246 -> 248        0.21415

 The electronic state is 1-A.
 Alpha  occ. eigenvalues --  -46.27684 -18.82617 -18.81944 -18.77730 -18.76759
 Alpha  occ. eigenvalues --  -18.75485 -18.75270 -14.03597 -14.02999 -14.01118
 Alpha  occ. eigenvalues --  -14.00696 -10.04712 -10.04120 -10.00312  -9.99339
 Alpha  occ. eigenvalues --   -9.97759  -9.97487  -9.97237  -9.96834  -9.96660
 Alpha  occ. eigenvalues --   -9.96612  -9.96414  -9.95627  -9.95466  -9.94513
 Alpha  occ. eigenvalues --   -9.94432  -9.94168  -9.94061  -9.94056  -9.93755
 Alpha  occ. eigenvalues --   -9.93735  -9.93697  -9.93665  -9.93657  -9.93642
 Alpha  occ. eigenvalues --   -9.93475  -9.93315  -9.93274  -9.93253  -9.93097
 Alpha  occ. eigenvalues --   -9.93050  -9.93034  -9.92796  -9.92777  -9.92732
 Alpha  occ. eigenvalues --   -9.92675  -9.92448  -9.92382  -9.92045  -9.91977
 Alpha  occ. eigenvalues --   -9.91689  -9.91679  -9.91537  -9.91470  -9.91416
 Alpha  occ. eigenvalues --   -9.91085  -9.91077  -9.91045  -9.91039  -9.90922
 Alpha  occ. eigenvalues --   -9.90865  -9.90680  -9.90672  -9.90505  -9.90388
 Alpha  occ. eigenvalues --   -9.90168  -2.92208  -1.72593  -1.72116  -1.71917
 Alpha  occ. eigenvalues --   -0.96791  -0.96232  -0.92447  -0.89871  -0.89340
 Alpha  occ. eigenvalues --   -0.88532  -0.87117  -0.85924  -0.85018  -0.84238
 Alpha  occ. eigenvalues --   -0.76159  -0.74073  -0.73473  -0.73143  -0.72717
 Alpha  occ. eigenvalues --   -0.72287  -0.71802  -0.71180  -0.70780  -0.70255
 Alpha  occ. eigenvalues --   -0.69340  -0.68905  -0.68159  -0.67570  -0.67382
 Alpha  occ. eigenvalues --   -0.66741  -0.66133  -0.65281  -0.65007  -0.64529
 Alpha  occ. eigenvalues --   -0.64106  -0.62882  -0.62269  -0.61688  -0.61488
 Alpha  occ. eigenvalues --   -0.60741  -0.59800  -0.59723  -0.59549  -0.59267
 Alpha  occ. eigenvalues --   -0.58208  -0.57361  -0.56836  -0.55730  -0.54786
 Alpha  occ. eigenvalues --   -0.54259  -0.53835  -0.53023  -0.52519  -0.51562
 Alpha  occ. eigenvalues --   -0.51264  -0.51072  -0.50973  -0.50868  -0.49931
 Alpha  occ. eigenvalues --   -0.49465  -0.49219  -0.48824  -0.48300  -0.46850
 Alpha  occ. eigenvalues --   -0.46389  -0.46288  -0.45996  -0.45376  -0.44791
 Alpha  occ. eigenvalues --   -0.44333  -0.43354  -0.43209  -0.42636  -0.42394
 Alpha  occ. eigenvalues --   -0.42260  -0.41774  -0.41638  -0.41573  -0.41341
 Alpha  occ. eigenvalues --   -0.40906  -0.40826  -0.40402  -0.40303  -0.40041
 Alpha  occ. eigenvalues --   -0.39742  -0.39517  -0.39286  -0.39256  -0.39161
 Alpha  occ. eigenvalues --   -0.38951  -0.38804  -0.38689  -0.38484  -0.38388
 Alpha  occ. eigenvalues --   -0.37953  -0.37796  -0.37739  -0.37502  -0.37465
 Alpha  occ. eigenvalues --   -0.37341  -0.36826  -0.36792  -0.36643  -0.36306
 Alpha  occ. eigenvalues --   -0.36133  -0.36061  -0.36026  -0.35846  -0.35761
 Alpha  occ. eigenvalues --   -0.35672  -0.35571  -0.35488  -0.34979  -0.34832
 Alpha  occ. eigenvalues --   -0.34676  -0.34597  -0.34437  -0.34110  -0.34099
 Alpha  occ. eigenvalues --   -0.33826  -0.33761  -0.33495  -0.33393  -0.33283
 Alpha  occ. eigenvalues --   -0.33154  -0.32863  -0.32803  -0.32587  -0.32488
 Alpha  occ. eigenvalues --   -0.32356  -0.32253  -0.32116  -0.31984  -0.31856
 Alpha  occ. eigenvalues --   -0.31677  -0.31483  -0.31419  -0.31031  -0.30812
 Alpha  occ. eigenvalues --   -0.30587  -0.30469  -0.30260  -0.30147  -0.30049
 Alpha  occ. eigenvalues --   -0.29958  -0.29735  -0.29644  -0.29275  -0.28933
 Alpha  occ. eigenvalues --   -0.28857  -0.28555  -0.28370  -0.28085  -0.27912
 Alpha  occ. eigenvalues --   -0.27833  -0.27599  -0.27272  -0.26753  -0.26510
 Alpha  occ. eigenvalues --   -0.26233  -0.26014  -0.25531  -0.25414  -0.24918
 Alpha  occ. eigenvalues --   -0.24689  -0.24530  -0.24301  -0.24129  -0.23655
 Alpha  occ. eigenvalues --   -0.23043  -0.22502  -0.22236  -0.21731  -0.20740
 Alpha  occ. eigenvalues --   -0.19997  -0.18767  -0.18730  -0.18182  -0.17497
 Alpha  occ. eigenvalues --   -0.16313
 Alpha virt. eigenvalues --   -0.12013  -0.07216  -0.06136  -0.05126  -0.03750
 Alpha virt. eigenvalues --   -0.03369  -0.03098  -0.01961  -0.01570  -0.00240
 Alpha virt. eigenvalues --    0.01033   0.01756   0.02057   0.02180   0.03006

 Mulliken charges:
               1
     1  Mg   0.691117
     2  C   -0.018241
     3  C   -0.049941
     4  C   -0.064144
     5  C   -0.085785
     6  N   -0.271989
     7  C   -0.090909
     8  C    0.061045
     9  C   -0.001720
    10  C   -0.020943
    11  C    0.147499
    12  C    0.082220
    13  C    0.154753
    14  C    0.067755
    15  O   -0.166791
    16  O   -0.305315
    17  N   -0.341528
    18  C    0.227043
    19  C   -0.151649
    20  C    0.052268
    21  C    0.132616
    22  C    0.202434
    23  C   -0.070095
    24  O   -0.203024
    25  C    0.102469
    26  N   -0.172523
    27  C    0.019417
    28  C    0.018840
    29  C   -0.009229
    30  C    0.024788
    31  C    0.143779
    32  C    0.069186
    33  C    0.050550
    34  N   -0.231124
    35  C    0.098789
    36  C   -0.181545
    37  C    0.104808
    38  C    0.095886
    39  C    0.165834
    40  C   -0.075044
    41  O   -0.099228
    42  C    0.083629
    43  C    0.134283
    44  O   -0.199962
    45  O   -0.280609
    46  C    0.213324
    47  C    0.296760
    48  C   -0.124126
    49  C   -0.197099
    50  C    0.143077
    51  C    0.194697
    52  C    0.063427
    53  C    0.108480
    54  C   -0.100842
    55  C    0.136155
    56  C    0.065477
    57  C    0.075354
    58  C    0.051451
    59  C   -0.060914
    60  C    0.136245
    61  C    0.087667
    62  C    0.041166
    63  C    0.139150
    64  C   -0.112159
    65  C    0.079826
    66  C    0.138313
    67  H   -0.060711
    68  H   -0.093387
    69  H   -0.059460
    70  H   -0.030552
    71  H   -0.019351
    72  H   -0.015854
    73  H    0.001762
    74  H    0.010221
    75  H   -0.010404
    76  H   -0.000321
    77  H    0.004660
    78  H    0.008595
    79  H    0.011921
    80  H   -0.031542
    81  H    0.001407
    82  H    0.012878
    83  H    0.030732
    84  H   -0.002337
    85  H   -0.023777
    86  H   -0.022409
    87  H   -0.005293
    88  H    0.009993
    89  H   -0.013079
    90  H   -0.006227
    91  H   -0.020146
    92  H    0.000465
    93  H   -0.000035
    94  H   -0.010100
    95  H    0.000982
    96  H   -0.005571
    97  H    0.003830
    98  H   -0.008905
    99  H   -0.001003
   100  H    0.018964
   101  H    0.024430
   102  H    0.020149
   103  H   -0.015713
   104  H   -0.038467
   105  H   -0.013584
   106  H    0.004203
   107  H    0.012519
   108  H   -0.028747
   109  H   -0.016910
   110  H   -0.010716
   111  H   -0.026235
   112  H   -0.030876
   113  H   -0.038918
   114  H   -0.038031
   115  H   -0.026948
   116  H   -0.020238
   117  H   -0.013413
   118  H   -0.037383
   119  H   -0.027738
   120  H   -0.033961
   121  H   -0.031614
   122  H   -0.026832
   123  H   -0.040043
   124  H   -0.037858
   125  H   -0.014065
   126  H   -0.030965
   127  H   -0.009430
   128  H   -0.032082
   129  H   -0.035863
   130  H   -0.029522
   131  H   -0.029573
   132  H   -0.027473
   133  H   -0.044192
   134  H   -0.033293
   135  H   -0.024063
   136  H   -0.018785
   137  H   -0.017537
   138  H   -0.020033
   139  H   -0.007864
   140  H   -0.023380
 Sum of Mulliken charges =  -0.00000

 Dipole moment (field-independent basis, Debye):
    X=              0.3495    Y=              1.9541    Z=              0.2725  Tot=              2.0037
 Quadrupole moment (field-independent basis, Debye-Ang):
   XX=           -360.7663   YY=           -452.2234   ZZ=           -396.2234
   XY=             18.6031   XZ=             19.8076   YZ=             32.0366

 Normal termination of Gaussian 16 at Wed May  4 12:08:13 2022.
