 Gaussian 16, Revision A.03,
 Gaussian 16:  ES64L-G16RevA.03 25-Dec-2016

 -----------------------------------
 #p cam-b3lyp/Def2SVP td=(nstates=5)
 -----------------------------------

 -------------------------------------------------------
 step_1651_chromophore_5 TDDFT with cam-b3lyp functional
 -------------------------------------------------------
 Symbolic Z-matrix:
 Charge =  0 Multiplicity = 1

                         Standard orientation:
 ---------------------------------------------------------------------
 Center     Atomic      Atomic             Coordinates (Angstroms)
 Number     Number       Type             X           Y           Z
 ---------------------------------------------------------------------
      1         12           0        5.372863    0.579391   -0.454017
      2          6           0        4.107186   -2.608582   -0.310055
      3          6           0        2.848842    1.581674   -2.430326
      4          6           0        6.271779    3.885241    0.208203
      5          6           0        7.535787   -0.312943    2.366449
      6          7           0        3.484575   -0.387984   -0.978983
      7          6           0        3.176840   -1.762075   -0.894797
      8          6           0        1.915306   -2.042433   -1.629992
      9          6           0        1.606163   -0.767989   -2.450279
     10          6           0        2.716073    0.249044   -1.964761
     11          6           0        1.603725   -0.937989   -3.979844
     12          6           0        0.846587   -2.623654   -0.697791
     13          6           0       -0.000581   -3.748265   -1.370034
     14          6           0       -1.442132   -3.766504   -0.723168
     15          8           0       -1.898997   -4.644294   -0.006774
     16          8           0       -2.125565   -2.583850   -1.078196
     17          7           0        4.823530    2.425275   -1.182551
     18          6           0        3.728494    2.574770   -2.031831
     19          6           0        3.769599    3.917509   -2.437718
     20          6           0        4.741495    4.665659   -1.697817
     21          6           0        5.368556    3.663218   -0.849965
     22          6           0        2.811720    4.427096   -3.512469
     23          6           0        5.004413    6.138107   -1.793471
     24          8           0        4.307474    6.793643   -2.614153
     25          6           0        6.283514    6.832407   -1.131220
     26          7           0        6.731321    1.656699    1.031907
     27          6           0        6.906229    2.970897    1.010775
     28          6           0        8.022792    3.337344    2.072674
     29          6           0        8.617041    1.999666    2.522795
     30          6           0        7.544238    1.057535    1.995423
     31          6           0        9.097906    4.478915    1.773074
     32          6           0        9.025060    1.817866    4.062239
     33          6           0       10.537946    1.578201    4.364358
     34          7           0        5.796894   -1.081954    0.767490
     35          6           0        6.704746   -1.314447    1.788257
     36          6           0        6.771561   -2.735023    2.037322
     37          6           0        5.781123   -3.251152    1.177929
     38          6           0        5.227574   -2.238281    0.470496
     39          6           0        7.687259   -3.405015    3.027972
     40          6           0        5.152815   -4.478596    0.758493
     41          8           0        5.192739   -5.641467    1.064681
     42          6           0        4.130613   -4.127966   -0.316832
     43          6           0        4.425427   -4.773928   -1.642408
     44          8           0        5.195362   -4.360589   -2.519460
     45          8           0        3.858525   -6.056281   -1.706109
     46          6           0        4.221513   -6.823858   -2.928859
     47          6           0       -3.471675   -2.440689   -0.441417
     48          6           0       -3.644323   -1.150423    0.371681
     49          6           0       -4.865283   -0.675304    0.850296
     50          6           0       -6.170006   -1.432403    0.559589
     51          6           0       -4.853044    0.615963    1.568457
     52          6           0       -5.610102    1.637113    0.629849
     53          6           0       -7.011970    2.027692    1.134334
     54          6           0       -7.949049    2.179804   -0.072706
     55          6           0       -7.805606    3.574583   -0.659450
     56          6           0       -9.464949    1.875312    0.269770
     57          6           0       -9.803595    0.360681    0.162486
     58          6           0      -10.013785   -0.264067    1.504556
     59          6           0      -11.454716   -0.811391    1.774573
     60          6           0      -11.616143   -1.527173    3.116543
     61          6           0      -12.550101    0.278760    1.343252
     62          6           0      -13.449845   -0.196776    0.255133
     63          6           0      -14.997988   -0.010712    0.492892
     64          6           0      -15.624091    1.068863   -0.406519
     65          6           0      -15.201532    2.468819    0.090490
     66          6           0      -17.134679    1.089131   -0.343271
     67          1           0        2.076734    1.768447   -3.179418
     68          1           0        6.495908    4.932032    0.418762
     69          1           0        8.302400   -0.646201    3.068927
     70          1           0        2.114339   -2.771572   -2.415286
     71          1           0        0.640012   -0.446525   -2.061545
     72          1           0        1.443654   -1.997827   -4.177506
     73          1           0        2.573284   -0.761544   -4.443345
     74          1           0        0.759885   -0.342360   -4.329081
     75          1           0        0.107603   -1.872205   -0.420865
     76          1           0        1.263178   -2.943635    0.257213
     77          1           0        0.473421   -4.654073   -0.992551
     78          1           0       -0.104549   -3.663394   -2.451684
     79          1           0        2.153677    5.182352   -3.083210
     80          1           0        2.266572    3.603546   -3.973278
     81          1           0        3.415418    4.878169   -4.301051
     82          1           0        7.143133    6.192894   -1.334277
     83          1           0        6.025789    6.879798   -0.073219
     84          1           0        6.599630    7.793796   -1.536174
     85          1           0        7.423163    3.667465    2.920894
     86          1           0        9.572914    1.776443    2.050794
     87          1           0        8.911397    5.161052    2.602910
     88          1           0        9.000084    4.845698    0.752228
     89          1           0       10.085818    4.046306    1.931878
     90          1           0        8.558688    0.900164    4.419827
     91          1           0        8.753185    2.797499    4.455228
     92          1           0       10.640185    0.523866    4.622185
     93          1           0       10.808802    2.288120    5.145082
     94          1           0       11.175312    1.781575    3.503958
     95          1           0        7.546964   -3.165064    4.081929
     96          1           0        8.690367   -3.055067    2.784708
     97          1           0        7.673942   -4.493602    2.971430
     98          1           0        3.134301   -4.437993   -0.001810
     99          1           0        3.332002   -7.389430   -3.207854
    100          1           0        4.948956   -7.597527   -2.679535
    101          1           0        4.503964   -6.317633   -3.851567
    102          1           0       -3.825854   -3.270916    0.169894
    103          1           0       -4.207260   -2.388093   -1.244479
    104          1           0       -2.710453   -0.598204    0.479191
    105          1           0       -6.130823   -2.520920    0.499471
    106          1           0       -6.282514   -1.267808   -0.512203
    107          1           0       -7.002666   -1.120286    1.188743
    108          1           0       -3.835849    0.919434    1.820885
    109          1           0       -5.427106    0.340444    2.453020
    110          1           0       -5.663051    1.326496   -0.413804
    111          1           0       -5.056345    2.575165    0.616026
    112          1           0       -6.840762    2.931480    1.718169
    113          1           0       -7.550186    1.346168    1.793337
    114          1           0       -7.793419    1.424555   -0.843600
    115          1           0       -6.861080    4.009695   -0.330074
    116          1           0       -8.608242    4.109212   -0.152037
    117          1           0       -7.883001    3.637760   -1.744298
    118          1           0      -10.122144    2.467330   -0.367676
    119          1           0       -9.648889    2.233801    1.282037
    120          1           0       -8.997828   -0.248548   -0.247840
    121          1           0      -10.611196    0.264976   -0.562861
    122          1           0       -9.508081    0.308190    2.281874
    123          1           0       -9.415014   -1.174645    1.526266
    124          1           0      -11.505209   -1.555156    0.979463
    125          1           0      -11.844835   -2.563237    2.866612
    126          1           0      -12.496157   -1.257926    3.701204
    127          1           0      -10.789634   -1.325635    3.798279
    128          1           0      -11.997987    1.137293    0.959734
    129          1           0      -13.131424    0.625501    2.197689
    130          1           0      -13.234389   -1.245931    0.048463
    131          1           0      -13.083408    0.409795   -0.573518
    132          1           0      -15.100802    0.155716    1.564357
    133          1           0      -15.397273   -0.959703    0.131924
    134          1           0      -15.230824    1.054209   -1.423074
    135          1           0      -14.365718    2.459051    0.789216
    136          1           0      -15.987250    3.001835    0.625906
    137          1           0      -14.885975    2.953101   -0.832915
    138          1           0      -17.432571    1.870414   -1.042667
    139          1           0      -17.537888    1.333221    0.640581
    140          1           0      -17.400269    0.098948   -0.712895
 ---------------------------------------------------------------------

 SCF Done:  E(RCAM-B3LYP) =  -3007.12068764     A.U. after   18 cycles

 Excitation energies and oscillator strengths:

 Excited State   1:      Singlet-A      1.7121 eV  724.17 nm  f=0.3613  <S**2>=0.000
     245 -> 248        0.17258
     246 -> 247        0.68669
     245 <- 248        0.10529
 This state for optimization and/or second-order correction.
 Total Energy, E(TD-HF/TD-DFT) =  -3007.05776935
 Copying the excited state density for this state as the 1-particle RhoCI density.

 Excited State   2:      Singlet-A      2.2230 eV  557.73 nm  f=0.1322  <S**2>=0.000
     245 -> 247        0.64470
     246 -> 248       -0.26747

 Excited State   3:      Singlet-A      3.1133 eV  398.24 nm  f=0.0053  <S**2>=0.000
     242 -> 247       -0.32627
     243 -> 247        0.60199

 Excited State   4:      Singlet-A      3.3214 eV  373.29 nm  f=0.0001  <S**2>=0.000
     240 -> 247        0.52641
     240 -> 248       -0.16030
     240 -> 249       -0.31681
     240 -> 251        0.21157
     243 -> 247       -0.13352

 Excited State   5:      Singlet-A      3.3954 eV  365.16 nm  f=0.0007  <S**2>=0.000
     240 -> 247        0.11363
     241 -> 247        0.14054
     242 -> 247        0.56159
     243 -> 247        0.30671
     246 -> 248       -0.15107

 The electronic state is 1-A.
 Alpha  occ. eigenvalues --  -46.89307 -19.25471 -19.24807 -19.20752 -19.19896
 Alpha  occ. eigenvalues --  -19.18840 -19.18295 -14.42664 -14.41825 -14.39728
 Alpha  occ. eigenvalues --  -14.38863 -10.40097 -10.39675 -10.35937 -10.34254
 Alpha  occ. eigenvalues --  -10.32413 -10.31813 -10.31343 -10.31331 -10.31149
 Alpha  occ. eigenvalues --  -10.31119 -10.30844 -10.30371 -10.29248 -10.28656
 Alpha  occ. eigenvalues --  -10.28526 -10.28474 -10.28124 -10.28038 -10.28030
 Alpha  occ. eigenvalues --  -10.28026 -10.27944 -10.27834 -10.27620 -10.27575
 Alpha  occ. eigenvalues --  -10.27487 -10.27486 -10.27417 -10.27284 -10.27247
 Alpha  occ. eigenvalues --  -10.27026 -10.26973 -10.26958 -10.26871 -10.26776
 Alpha  occ. eigenvalues --  -10.26088 -10.26072 -10.26066 -10.25778 -10.25739
 Alpha  occ. eigenvalues --  -10.25710 -10.25505 -10.25420 -10.25208 -10.25140
 Alpha  occ. eigenvalues --  -10.24814 -10.24757 -10.24728 -10.24628 -10.24556
 Alpha  occ. eigenvalues --  -10.24554 -10.24267 -10.24241 -10.24166 -10.24092
 Alpha  occ. eigenvalues --  -10.23757  -3.17725  -1.92589  -1.92188  -1.92024
 Alpha  occ. eigenvalues --   -1.15214  -1.14699  -1.10571  -1.07978  -1.07679
 Alpha  occ. eigenvalues --   -1.06379  -1.04536  -1.03612  -1.02837  -1.01894
 Alpha  occ. eigenvalues --   -0.93128  -0.90989  -0.90302  -0.89981  -0.89515
 Alpha  occ. eigenvalues --   -0.89028  -0.88532  -0.87798  -0.87365  -0.86542
 Alpha  occ. eigenvalues --   -0.85775  -0.85706  -0.84424  -0.83811  -0.83483
 Alpha  occ. eigenvalues --   -0.82824  -0.82206  -0.81251  -0.80844  -0.80663
 Alpha  occ. eigenvalues --   -0.79790  -0.78443  -0.77838  -0.77379  -0.76953
 Alpha  occ. eigenvalues --   -0.76116  -0.75107  -0.75058  -0.74863  -0.74560
 Alpha  occ. eigenvalues --   -0.73254  -0.72339  -0.71740  -0.70571  -0.69374
 Alpha  occ. eigenvalues --   -0.68820  -0.68368  -0.67673  -0.66918  -0.65844
 Alpha  occ. eigenvalues --   -0.65391  -0.65223  -0.65122  -0.64750  -0.63962
 Alpha  occ. eigenvalues --   -0.63242  -0.63154  -0.62718  -0.61921  -0.60470
 Alpha  occ. eigenvalues --   -0.59891  -0.59804  -0.59504  -0.58698  -0.58347
 Alpha  occ. eigenvalues --   -0.57742  -0.56703  -0.56391  -0.55731  -0.55449
 Alpha  occ. eigenvalues --   -0.55267  -0.54937  -0.54672  -0.54359  -0.53966
 Alpha  occ. eigenvalues --   -0.53794  -0.53493  -0.53364  -0.52949  -0.52843
 Alpha  occ. eigenvalues --   -0.52598  -0.52433  -0.52107  -0.51902  -0.51802
 Alpha  occ. eigenvalues --   -0.51705  -0.51320  -0.51284  -0.51008  -0.50733
 Alpha  occ. eigenvalues --   -0.50397  -0.50275  -0.50141  -0.49827  -0.49739
 Alpha  occ. eigenvalues --   -0.49521  -0.49305  -0.49041  -0.48770  -0.48664
 Alpha  occ. eigenvalues --   -0.48611  -0.48341  -0.48190  -0.47965  -0.47813
 Alpha  occ. eigenvalues --   -0.47745  -0.47608  -0.47427  -0.46927  -0.46794
 Alpha  occ. eigenvalues --   -0.46630  -0.46488  -0.46398  -0.46242  -0.45937
 Alpha  occ. eigenvalues --   -0.45811  -0.45505  -0.45215  -0.45139  -0.45099
 Alpha  occ. eigenvalues --   -0.44807  -0.44612  -0.44343  -0.44264  -0.44045
 Alpha  occ. eigenvalues --   -0.44038  -0.43859  -0.43778  -0.43555  -0.43491
 Alpha  occ. eigenvalues --   -0.43233  -0.42845  -0.42805  -0.42655  -0.42433
 Alpha  occ. eigenvalues --   -0.42195  -0.42072  -0.41929  -0.41574  -0.41444
 Alpha  occ. eigenvalues --   -0.41339  -0.40994  -0.40825  -0.40404  -0.40371
 Alpha  occ. eigenvalues --   -0.39923  -0.39528  -0.39353  -0.39003  -0.38829
 Alpha  occ. eigenvalues --   -0.38771  -0.38482  -0.38162  -0.37617  -0.37514
 Alpha  occ. eigenvalues --   -0.37064  -0.36928  -0.36765  -0.36511  -0.36065
 Alpha  occ. eigenvalues --   -0.35533  -0.35384  -0.34584  -0.34487  -0.34305
 Alpha  occ. eigenvalues --   -0.34023  -0.33959  -0.33442  -0.31494  -0.30832
 Alpha  occ. eigenvalues --   -0.30300  -0.29822  -0.29616  -0.28203  -0.24429
 Alpha  occ. eigenvalues --   -0.21717
 Alpha virt. eigenvalues --   -0.09217  -0.02008   0.00364   0.01375   0.01924
 Alpha virt. eigenvalues --    0.04279   0.04541   0.05515   0.05841   0.06814
 Alpha virt. eigenvalues --    0.07781   0.08164   0.08332   0.08617   0.09189

 Mulliken charges:
               1
     1  Mg   0.820571
     2  C   -0.042314
     3  C   -0.071889
     4  C   -0.091712
     5  C   -0.089553
     6  N   -0.337921
     7  C   -0.052333
     8  C    0.011115
     9  C   -0.053665
    10  C    0.007646
    11  C    0.083129
    12  C    0.030579
    13  C    0.085801
    14  C    0.149261
    15  O   -0.208468
    16  O   -0.370601
    17  N   -0.432487
    18  C    0.232771
    19  C   -0.152867
    20  C   -0.019850
    21  C    0.171842
    22  C    0.149501
    23  C    0.005634
    24  O   -0.240760
    25  C    0.027225
    26  N   -0.244869
    27  C    0.049852
    28  C   -0.043044
    29  C   -0.056190
    30  C    0.043863
    31  C    0.086636
    32  C    0.012959
    33  C   -0.006089
    34  N   -0.320859
    35  C    0.099983
    36  C   -0.174700
    37  C    0.011356
    38  C    0.134480
    39  C    0.113004
    40  C    0.026400
    41  O   -0.140881
    42  C    0.008718
    43  C    0.223238
    44  O   -0.237222
    45  O   -0.343920
    46  C    0.175040
    47  C    0.264793
    48  C   -0.142327
    49  C   -0.211866
    50  C    0.079681
    51  C    0.132567
    52  C    0.005450
    53  C    0.056747
    54  C   -0.152536
    55  C    0.076934
    56  C    0.012619
    57  C    0.011797
    58  C    0.005702
    59  C   -0.107552
    60  C    0.073072
    61  C    0.030358
    62  C   -0.006996
    63  C    0.080377
    64  C   -0.169457
    65  C    0.021035
    66  C    0.075263
    67  H   -0.023615
    68  H   -0.055411
    69  H   -0.025723
    70  H    0.002920
    71  H    0.017299
    72  H    0.008864
    73  H    0.028856
    74  H    0.034219
    75  H    0.019840
    76  H    0.031485
    77  H    0.036709
    78  H    0.038614
    79  H    0.040886
    80  H   -0.004238
    81  H    0.030465
    82  H    0.039911
    83  H    0.055430
    84  H    0.033872
    85  H    0.011100
    86  H    0.009962
    87  H    0.019191
    88  H    0.031303
    89  H    0.011780
    90  H    0.022182
    91  H    0.007145
    92  H    0.022361
    93  H    0.023287
    94  H    0.011269
    95  H    0.025389
    96  H    0.016671
    97  H    0.031006
    98  H    0.032267
    99  H    0.021114
   100  H    0.040772
   101  H    0.048930
   102  H    0.050822
   103  H    0.010478
   104  H   -0.005298
   105  H    0.014422
   106  H    0.026959
   107  H    0.031621
   108  H    0.004437
   109  H    0.011765
   110  H    0.016911
   111  H    0.002611
   112  H   -0.000299
   113  H   -0.015987
   114  H   -0.007006
   115  H   -0.003036
   116  H    0.003725
   117  H    0.011890
   118  H   -0.006501
   119  H   -0.000116
   120  H   -0.005586
   121  H   -0.002166
   122  H   -0.001548
   123  H   -0.011692
   124  H   -0.006983
   125  H    0.010276
   126  H   -0.005129
   127  H    0.014688
   128  H   -0.005913
   129  H   -0.008417
   130  H   -0.000443
   131  H   -0.004095
   132  H    0.000209
   133  H   -0.013431
   134  H   -0.000965
   135  H   -0.001319
   136  H    0.006369
   137  H    0.006177
   138  H    0.005531
   139  H    0.015522
   140  H    0.001333
 Sum of Mulliken charges =  -0.00000

 Dipole moment (field-independent basis, Debye):
    X=              0.3078    Y=              2.9946    Z=             -0.2668  Tot=              3.0222
 Quadrupole moment (field-independent basis, Debye-Ang):
   XX=           -360.0604   YY=           -449.2455   ZZ=           -394.9068
   XY=             25.1244   XZ=             18.4943   YZ=             32.9586

 Normal termination of Gaussian 16 at Wed May  4 11:09:17 2022.
