 Gaussian 16, Revision A.03,
 Gaussian 16:  ES64L-G16RevA.03 25-Dec-2016

 ---------------------------------
 #p PBE1PBE/Def2SVP td=(nstates=5)
 ---------------------------------

 -----------------------------------------------------
 step_1651_chromophore_5 TDDFT with PBE1PBE functional
 -----------------------------------------------------
 Symbolic Z-matrix:
 Charge =  0 Multiplicity = 1

                         Standard orientation:
 ---------------------------------------------------------------------
 Center     Atomic      Atomic             Coordinates (Angstroms)
 Number     Number       Type             X           Y           Z
 ---------------------------------------------------------------------
      1         12           0        5.372863    0.579391   -0.454017
      2          6           0        4.107186   -2.608582   -0.310055
      3          6           0        2.848842    1.581674   -2.430326
      4          6           0        6.271779    3.885241    0.208203
      5          6           0        7.535787   -0.312943    2.366449
      6          7           0        3.484575   -0.387984   -0.978983
      7          6           0        3.176840   -1.762075   -0.894797
      8          6           0        1.915306   -2.042433   -1.629992
      9          6           0        1.606163   -0.767989   -2.450279
     10          6           0        2.716073    0.249044   -1.964761
     11          6           0        1.603725   -0.937989   -3.979844
     12          6           0        0.846587   -2.623654   -0.697791
     13          6           0       -0.000581   -3.748265   -1.370034
     14          6           0       -1.442132   -3.766504   -0.723168
     15          8           0       -1.898997   -4.644294   -0.006774
     16          8           0       -2.125565   -2.583850   -1.078196
     17          7           0        4.823530    2.425275   -1.182551
     18          6           0        3.728494    2.574770   -2.031831
     19          6           0        3.769599    3.917509   -2.437718
     20          6           0        4.741495    4.665659   -1.697817
     21          6           0        5.368556    3.663218   -0.849965
     22          6           0        2.811720    4.427096   -3.512469
     23          6           0        5.004413    6.138107   -1.793471
     24          8           0        4.307474    6.793643   -2.614153
     25          6           0        6.283514    6.832407   -1.131220
     26          7           0        6.731321    1.656699    1.031907
     27          6           0        6.906229    2.970897    1.010775
     28          6           0        8.022792    3.337344    2.072674
     29          6           0        8.617041    1.999666    2.522795
     30          6           0        7.544238    1.057535    1.995423
     31          6           0        9.097906    4.478915    1.773074
     32          6           0        9.025060    1.817866    4.062239
     33          6           0       10.537946    1.578201    4.364358
     34          7           0        5.796894   -1.081954    0.767490
     35          6           0        6.704746   -1.314447    1.788257
     36          6           0        6.771561   -2.735023    2.037322
     37          6           0        5.781123   -3.251152    1.177929
     38          6           0        5.227574   -2.238281    0.470496
     39          6           0        7.687259   -3.405015    3.027972
     40          6           0        5.152815   -4.478596    0.758493
     41          8           0        5.192739   -5.641467    1.064681
     42          6           0        4.130613   -4.127966   -0.316832
     43          6           0        4.425427   -4.773928   -1.642408
     44          8           0        5.195362   -4.360589   -2.519460
     45          8           0        3.858525   -6.056281   -1.706109
     46          6           0        4.221513   -6.823858   -2.928859
     47          6           0       -3.471675   -2.440689   -0.441417
     48          6           0       -3.644323   -1.150423    0.371681
     49          6           0       -4.865283   -0.675304    0.850296
     50          6           0       -6.170006   -1.432403    0.559589
     51          6           0       -4.853044    0.615963    1.568457
     52          6           0       -5.610102    1.637113    0.629849
     53          6           0       -7.011970    2.027692    1.134334
     54          6           0       -7.949049    2.179804   -0.072706
     55          6           0       -7.805606    3.574583   -0.659450
     56          6           0       -9.464949    1.875312    0.269770
     57          6           0       -9.803595    0.360681    0.162486
     58          6           0      -10.013785   -0.264067    1.504556
     59          6           0      -11.454716   -0.811391    1.774573
     60          6           0      -11.616143   -1.527173    3.116543
     61          6           0      -12.550101    0.278760    1.343252
     62          6           0      -13.449845   -0.196776    0.255133
     63          6           0      -14.997988   -0.010712    0.492892
     64          6           0      -15.624091    1.068863   -0.406519
     65          6           0      -15.201532    2.468819    0.090490
     66          6           0      -17.134679    1.089131   -0.343271
     67          1           0        2.076734    1.768447   -3.179418
     68          1           0        6.495908    4.932032    0.418762
     69          1           0        8.302400   -0.646201    3.068927
     70          1           0        2.114339   -2.771572   -2.415286
     71          1           0        0.640012   -0.446525   -2.061545
     72          1           0        1.443654   -1.997827   -4.177506
     73          1           0        2.573284   -0.761544   -4.443345
     74          1           0        0.759885   -0.342360   -4.329081
     75          1           0        0.107603   -1.872205   -0.420865
     76          1           0        1.263178   -2.943635    0.257213
     77          1           0        0.473421   -4.654073   -0.992551
     78          1           0       -0.104549   -3.663394   -2.451684
     79          1           0        2.153677    5.182352   -3.083210
     80          1           0        2.266572    3.603546   -3.973278
     81          1           0        3.415418    4.878169   -4.301051
     82          1           0        7.143133    6.192894   -1.334277
     83          1           0        6.025789    6.879798   -0.073219
     84          1           0        6.599630    7.793796   -1.536174
     85          1           0        7.423163    3.667465    2.920894
     86          1           0        9.572914    1.776443    2.050794
     87          1           0        8.911397    5.161052    2.602910
     88          1           0        9.000084    4.845698    0.752228
     89          1           0       10.085818    4.046306    1.931878
     90          1           0        8.558688    0.900164    4.419827
     91          1           0        8.753185    2.797499    4.455228
     92          1           0       10.640185    0.523866    4.622185
     93          1           0       10.808802    2.288120    5.145082
     94          1           0       11.175312    1.781575    3.503958
     95          1           0        7.546964   -3.165064    4.081929
     96          1           0        8.690367   -3.055067    2.784708
     97          1           0        7.673942   -4.493602    2.971430
     98          1           0        3.134301   -4.437993   -0.001810
     99          1           0        3.332002   -7.389430   -3.207854
    100          1           0        4.948956   -7.597527   -2.679535
    101          1           0        4.503964   -6.317633   -3.851567
    102          1           0       -3.825854   -3.270916    0.169894
    103          1           0       -4.207260   -2.388093   -1.244479
    104          1           0       -2.710453   -0.598204    0.479191
    105          1           0       -6.130823   -2.520920    0.499471
    106          1           0       -6.282514   -1.267808   -0.512203
    107          1           0       -7.002666   -1.120286    1.188743
    108          1           0       -3.835849    0.919434    1.820885
    109          1           0       -5.427106    0.340444    2.453020
    110          1           0       -5.663051    1.326496   -0.413804
    111          1           0       -5.056345    2.575165    0.616026
    112          1           0       -6.840762    2.931480    1.718169
    113          1           0       -7.550186    1.346168    1.793337
    114          1           0       -7.793419    1.424555   -0.843600
    115          1           0       -6.861080    4.009695   -0.330074
    116          1           0       -8.608242    4.109212   -0.152037
    117          1           0       -7.883001    3.637760   -1.744298
    118          1           0      -10.122144    2.467330   -0.367676
    119          1           0       -9.648889    2.233801    1.282037
    120          1           0       -8.997828   -0.248548   -0.247840
    121          1           0      -10.611196    0.264976   -0.562861
    122          1           0       -9.508081    0.308190    2.281874
    123          1           0       -9.415014   -1.174645    1.526266
    124          1           0      -11.505209   -1.555156    0.979463
    125          1           0      -11.844835   -2.563237    2.866612
    126          1           0      -12.496157   -1.257926    3.701204
    127          1           0      -10.789634   -1.325635    3.798279
    128          1           0      -11.997987    1.137293    0.959734
    129          1           0      -13.131424    0.625501    2.197689
    130          1           0      -13.234389   -1.245931    0.048463
    131          1           0      -13.083408    0.409795   -0.573518
    132          1           0      -15.100802    0.155716    1.564357
    133          1           0      -15.397273   -0.959703    0.131924
    134          1           0      -15.230824    1.054209   -1.423074
    135          1           0      -14.365718    2.459051    0.789216
    136          1           0      -15.987250    3.001835    0.625906
    137          1           0      -14.885975    2.953101   -0.832915
    138          1           0      -17.432571    1.870414   -1.042667
    139          1           0      -17.537888    1.333221    0.640581
    140          1           0      -17.400269    0.098948   -0.712895
 ---------------------------------------------------------------------

 SCF Done:  E(RPBE1PBE) =  -3005.31006796     A.U. after   16 cycles

 Excitation energies and oscillator strengths:

 Excited State   1:      Singlet-A      1.8519 eV  669.49 nm  f=0.3475  <S**2>=0.000
     245 -> 248       -0.16817
     246 -> 247        0.69299
     246 <- 247       -0.10544
 This state for optimization and/or second-order correction.
 Total Energy, E(TD-HF/TD-DFT) =  -3005.24201165
 Copying the excited state density for this state as the 1-particle RhoCI density.

 Excited State   2:      Singlet-A      2.2235 eV  557.61 nm  f=0.1213  <S**2>=0.000
     245 -> 247        0.65320
     246 -> 248        0.24210

 Excited State   3:      Singlet-A      2.7878 eV  444.74 nm  f=0.0062  <S**2>=0.000
     242 -> 247        0.24957
     243 -> 247        0.63094

 Excited State   4:      Singlet-A      2.8587 eV  433.70 nm  f=0.0023  <S**2>=0.000
     242 -> 247        0.60917
     242 -> 249        0.10535
     243 -> 247       -0.27513
     244 -> 247       -0.13253

 Excited State   5:      Singlet-A      2.8651 eV  432.74 nm  f=0.0002  <S**2>=0.000
     242 -> 247        0.11367
     244 -> 247        0.69443

 The electronic state is 1-A.
 Alpha  occ. eigenvalues --  -46.92694 -19.26234 -19.25556 -19.21070 -19.20182
 Alpha  occ. eigenvalues --  -19.18865 -19.18752 -14.42159 -14.41362 -14.39299
 Alpha  occ. eigenvalues --  -14.38670 -10.37221 -10.36751 -10.32932 -10.31583
 Alpha  occ. eigenvalues --  -10.29957 -10.29271 -10.29038 -10.28846 -10.28817
 Alpha  occ. eigenvalues --  -10.28715 -10.28455 -10.27709 -10.27317 -10.26377
 Alpha  occ. eigenvalues --  -10.26023 -10.25941 -10.25926 -10.25864 -10.25850
 Alpha  occ. eigenvalues --  -10.25811 -10.25635 -10.25573 -10.25523 -10.25407
 Alpha  occ. eigenvalues --  -10.25306 -10.25162 -10.25067 -10.24887 -10.24768
 Alpha  occ. eigenvalues --  -10.24527 -10.24404 -10.24403 -10.24290 -10.24170
 Alpha  occ. eigenvalues --  -10.23741 -10.23630 -10.23583 -10.23505 -10.23322
 Alpha  occ. eigenvalues --  -10.23304 -10.23130 -10.22847 -10.22739 -10.22702
 Alpha  occ. eigenvalues --  -10.22545 -10.22421 -10.22333 -10.22284 -10.22139
 Alpha  occ. eigenvalues --  -10.22002 -10.21700 -10.21650 -10.21637 -10.21614
 Alpha  occ. eigenvalues --  -10.21144  -3.14694  -1.87496  -1.87075  -1.86915
 Alpha  occ. eigenvalues --   -1.10047  -1.09508  -1.05545  -1.02603  -1.02490
 Alpha  occ. eigenvalues --   -1.01263  -0.99427  -0.98229  -0.97314  -0.96434
 Alpha  occ. eigenvalues --   -0.87655  -0.85080  -0.84546  -0.84087  -0.83798
 Alpha  occ. eigenvalues --   -0.83138  -0.82796  -0.81917  -0.81677  -0.81050
 Alpha  occ. eigenvalues --   -0.79994  -0.79876  -0.78597  -0.78093  -0.77820
 Alpha  occ. eigenvalues --   -0.77025  -0.76481  -0.75395  -0.75133  -0.74821
 Alpha  occ. eigenvalues --   -0.74046  -0.72780  -0.72157  -0.71596  -0.71089
 Alpha  occ. eigenvalues --   -0.70466  -0.69457  -0.69193  -0.68945  -0.68714
 Alpha  occ. eigenvalues --   -0.67722  -0.66675  -0.66179  -0.64846  -0.63772
 Alpha  occ. eigenvalues --   -0.63342  -0.62618  -0.62085  -0.61143  -0.60299
 Alpha  occ. eigenvalues --   -0.59921  -0.59593  -0.59440  -0.59275  -0.58097
 Alpha  occ. eigenvalues --   -0.57740  -0.57317  -0.56905  -0.56584  -0.55049
 Alpha  occ. eigenvalues --   -0.54489  -0.54225  -0.54046  -0.53408  -0.52858
 Alpha  occ. eigenvalues --   -0.52276  -0.51195  -0.50958  -0.50196  -0.50056
 Alpha  occ. eigenvalues --   -0.49773  -0.49534  -0.49223  -0.48723  -0.48560
 Alpha  occ. eigenvalues --   -0.48421  -0.48072  -0.47899  -0.47586  -0.47365
 Alpha  occ. eigenvalues --   -0.47070  -0.46938  -0.46465  -0.46446  -0.46330
 Alpha  occ. eigenvalues --   -0.46193  -0.45901  -0.45893  -0.45545  -0.45235
 Alpha  occ. eigenvalues --   -0.44943  -0.44800  -0.44731  -0.44476  -0.44344
 Alpha  occ. eigenvalues --   -0.44133  -0.43955  -0.43734  -0.43448  -0.43252
 Alpha  occ. eigenvalues --   -0.43178  -0.43031  -0.42832  -0.42607  -0.42451
 Alpha  occ. eigenvalues --   -0.42307  -0.42281  -0.42014  -0.41737  -0.41513
 Alpha  occ. eigenvalues --   -0.41210  -0.41149  -0.41025  -0.40936  -0.40563
 Alpha  occ. eigenvalues --   -0.40397  -0.40248  -0.40070  -0.39982  -0.39864
 Alpha  occ. eigenvalues --   -0.39508  -0.39289  -0.39114  -0.38987  -0.38809
 Alpha  occ. eigenvalues --   -0.38760  -0.38700  -0.38513  -0.38359  -0.38311
 Alpha  occ. eigenvalues --   -0.38090  -0.37687  -0.37559  -0.37339  -0.37316
 Alpha  occ. eigenvalues --   -0.37018  -0.36834  -0.36720  -0.36363  -0.36313
 Alpha  occ. eigenvalues --   -0.36090  -0.35916  -0.35812  -0.35214  -0.35162
 Alpha  occ. eigenvalues --   -0.34666  -0.34495  -0.34319  -0.33842  -0.33742
 Alpha  occ. eigenvalues --   -0.33577  -0.33257  -0.32932  -0.32503  -0.32419
 Alpha  occ. eigenvalues --   -0.32046  -0.31877  -0.31769  -0.31471  -0.31046
 Alpha  occ. eigenvalues --   -0.30392  -0.30299  -0.29691  -0.29515  -0.29264
 Alpha  occ. eigenvalues --   -0.28995  -0.28968  -0.28922  -0.27131  -0.25664
 Alpha  occ. eigenvalues --   -0.25411  -0.25391  -0.25020  -0.23530  -0.21337
 Alpha  occ. eigenvalues --   -0.19308
 Alpha virt. eigenvalues --   -0.11668  -0.05544  -0.03847  -0.02542  -0.01388
 Alpha virt. eigenvalues --   -0.00299  -0.00126   0.00943   0.01407   0.02735
 Alpha virt. eigenvalues --    0.04033   0.04682   0.04868   0.05002   0.05811

 Mulliken charges:
               1
     1  Mg   0.959436
     2  C   -0.056164
     3  C   -0.069918
     4  C   -0.087587
     5  C   -0.081661
     6  N   -0.434268
     7  C    0.017466
     8  C   -0.054863
     9  C   -0.130189
    10  C    0.047772
    11  C    0.021792
    12  C   -0.018685
    13  C    0.004067
    14  C    0.211535
    15  O   -0.241527
    16  O   -0.396683
    17  N   -0.545509
    18  C    0.249196
    19  C   -0.181881
    20  C   -0.068447
    21  C    0.200632
    22  C    0.092178
    23  C    0.055242
    24  O   -0.273603
    25  C   -0.051213
    26  N   -0.350820
    27  C    0.093374
    28  C   -0.124459
    29  C   -0.121937
    30  C    0.085890
    31  C    0.023323
    32  C   -0.051700
    33  C   -0.075621
    34  N   -0.451459
    35  C    0.122545
    36  C   -0.179011
    37  C   -0.050335
    38  C    0.191625
    39  C    0.060509
    40  C    0.125710
    41  O   -0.186316
    42  C   -0.098784
    43  C    0.307756
    44  O   -0.270632
    45  O   -0.374117
    46  C    0.119782
    47  C    0.223154
    48  C   -0.147496
    49  C   -0.259069
    50  C    0.014626
    51  C    0.066899
    52  C   -0.056148
    53  C   -0.000340
    54  C   -0.238526
    55  C    0.017047
    56  C   -0.042238
    57  C   -0.056406
    58  C   -0.051743
    59  C   -0.187671
    60  C    0.013737
    61  C   -0.032099
    62  C   -0.061960
    63  C    0.019605
    64  C   -0.263943
    65  C   -0.036179
    66  C    0.008798
    67  H    0.009211
    68  H   -0.018421
    69  H    0.006079
    70  H    0.045774
    71  H    0.053871
    72  H    0.036081
    73  H    0.056416
    74  H    0.060744
    75  H    0.055228
    76  H    0.063140
    77  H    0.070635
    78  H    0.069970
    79  H    0.067337
    80  H    0.022571
    81  H    0.057883
    82  H    0.067030
    83  H    0.079986
    84  H    0.060579
    85  H    0.050711
    86  H    0.049492
    87  H    0.046059
    88  H    0.058712
    89  H    0.039706
    90  H    0.054073
    91  H    0.041471
    92  H    0.049134
    93  H    0.051232
    94  H    0.037982
    95  H    0.053831
    96  H    0.044906
    97  H    0.059775
    98  H    0.072937
    99  H    0.043804
   100  H    0.063022
   101  H    0.070174
   102  H    0.076702
   103  H    0.038958
   104  H    0.025622
   105  H    0.041509
   106  H    0.052832
   107  H    0.061927
   108  H    0.035471
   109  H    0.045420
   110  H    0.048809
   111  H    0.035528
   112  H    0.032722
   113  H    0.019569
   114  H    0.031102
   115  H    0.025534
   116  H    0.032367
   117  H    0.039545
   118  H    0.025475
   119  H    0.032678
   120  H    0.028662
   121  H    0.032938
   122  H    0.029409
   123  H    0.023440
   124  H    0.031662
   125  H    0.037356
   126  H    0.022422
   127  H    0.040889
   128  H    0.033990
   129  H    0.022869
   130  H    0.030787
   131  H    0.027339
   132  H    0.031911
   133  H    0.020970
   134  H    0.035650
   135  H    0.028902
   136  H    0.033385
   137  H    0.033613
   138  H    0.035074
   139  H    0.042924
   140  H    0.030417
 Sum of Mulliken charges =  -0.00000

 Dipole moment (field-independent basis, Debye):
    X=              0.5155    Y=              2.4820    Z=              0.0365  Tot=              2.5352
 Quadrupole moment (field-independent basis, Debye-Ang):
   XX=           -353.5272   YY=           -447.1935   ZZ=           -391.5896
   XY=             22.5919   XZ=             21.6054   YZ=             33.5353

 Normal termination of Gaussian 16 at Wed May  4 11:28:50 2022.
