 Gaussian 16, Revision A.03,
 Gaussian 16:  ES64L-G16RevA.03 25-Dec-2016

 --------------------------------
 #p wB97XD/Def2SVP td=(nstates=5)
 --------------------------------

 ----------------------------------------------------
 step_1651_chromophore_5 TDDFT with wB97XD functional
 ----------------------------------------------------
 Symbolic Z-matrix:
 Charge =  0 Multiplicity = 1

                         Standard orientation:
 ---------------------------------------------------------------------
 Center     Atomic      Atomic             Coordinates (Angstroms)
 Number     Number       Type             X           Y           Z
 ---------------------------------------------------------------------
      1         12           0        5.372863    0.579391   -0.454017
      2          6           0        4.107186   -2.608582   -0.310055
      3          6           0        2.848842    1.581674   -2.430326
      4          6           0        6.271779    3.885241    0.208203
      5          6           0        7.535787   -0.312943    2.366449
      6          7           0        3.484575   -0.387984   -0.978983
      7          6           0        3.176840   -1.762075   -0.894797
      8          6           0        1.915306   -2.042433   -1.629992
      9          6           0        1.606163   -0.767989   -2.450279
     10          6           0        2.716073    0.249044   -1.964761
     11          6           0        1.603725   -0.937989   -3.979844
     12          6           0        0.846587   -2.623654   -0.697791
     13          6           0       -0.000581   -3.748265   -1.370034
     14          6           0       -1.442132   -3.766504   -0.723168
     15          8           0       -1.898997   -4.644294   -0.006774
     16          8           0       -2.125565   -2.583850   -1.078196
     17          7           0        4.823530    2.425275   -1.182551
     18          6           0        3.728494    2.574770   -2.031831
     19          6           0        3.769599    3.917509   -2.437718
     20          6           0        4.741495    4.665659   -1.697817
     21          6           0        5.368556    3.663218   -0.849965
     22          6           0        2.811720    4.427096   -3.512469
     23          6           0        5.004413    6.138107   -1.793471
     24          8           0        4.307474    6.793643   -2.614153
     25          6           0        6.283514    6.832407   -1.131220
     26          7           0        6.731321    1.656699    1.031907
     27          6           0        6.906229    2.970897    1.010775
     28          6           0        8.022792    3.337344    2.072674
     29          6           0        8.617041    1.999666    2.522795
     30          6           0        7.544238    1.057535    1.995423
     31          6           0        9.097906    4.478915    1.773074
     32          6           0        9.025060    1.817866    4.062239
     33          6           0       10.537946    1.578201    4.364358
     34          7           0        5.796894   -1.081954    0.767490
     35          6           0        6.704746   -1.314447    1.788257
     36          6           0        6.771561   -2.735023    2.037322
     37          6           0        5.781123   -3.251152    1.177929
     38          6           0        5.227574   -2.238281    0.470496
     39          6           0        7.687259   -3.405015    3.027972
     40          6           0        5.152815   -4.478596    0.758493
     41          8           0        5.192739   -5.641467    1.064681
     42          6           0        4.130613   -4.127966   -0.316832
     43          6           0        4.425427   -4.773928   -1.642408
     44          8           0        5.195362   -4.360589   -2.519460
     45          8           0        3.858525   -6.056281   -1.706109
     46          6           0        4.221513   -6.823858   -2.928859
     47          6           0       -3.471675   -2.440689   -0.441417
     48          6           0       -3.644323   -1.150423    0.371681
     49          6           0       -4.865283   -0.675304    0.850296
     50          6           0       -6.170006   -1.432403    0.559589
     51          6           0       -4.853044    0.615963    1.568457
     52          6           0       -5.610102    1.637113    0.629849
     53          6           0       -7.011970    2.027692    1.134334
     54          6           0       -7.949049    2.179804   -0.072706
     55          6           0       -7.805606    3.574583   -0.659450
     56          6           0       -9.464949    1.875312    0.269770
     57          6           0       -9.803595    0.360681    0.162486
     58          6           0      -10.013785   -0.264067    1.504556
     59          6           0      -11.454716   -0.811391    1.774573
     60          6           0      -11.616143   -1.527173    3.116543
     61          6           0      -12.550101    0.278760    1.343252
     62          6           0      -13.449845   -0.196776    0.255133
     63          6           0      -14.997988   -0.010712    0.492892
     64          6           0      -15.624091    1.068863   -0.406519
     65          6           0      -15.201532    2.468819    0.090490
     66          6           0      -17.134679    1.089131   -0.343271
     67          1           0        2.076734    1.768447   -3.179418
     68          1           0        6.495908    4.932032    0.418762
     69          1           0        8.302400   -0.646201    3.068927
     70          1           0        2.114339   -2.771572   -2.415286
     71          1           0        0.640012   -0.446525   -2.061545
     72          1           0        1.443654   -1.997827   -4.177506
     73          1           0        2.573284   -0.761544   -4.443345
     74          1           0        0.759885   -0.342360   -4.329081
     75          1           0        0.107603   -1.872205   -0.420865
     76          1           0        1.263178   -2.943635    0.257213
     77          1           0        0.473421   -4.654073   -0.992551
     78          1           0       -0.104549   -3.663394   -2.451684
     79          1           0        2.153677    5.182352   -3.083210
     80          1           0        2.266572    3.603546   -3.973278
     81          1           0        3.415418    4.878169   -4.301051
     82          1           0        7.143133    6.192894   -1.334277
     83          1           0        6.025789    6.879798   -0.073219
     84          1           0        6.599630    7.793796   -1.536174
     85          1           0        7.423163    3.667465    2.920894
     86          1           0        9.572914    1.776443    2.050794
     87          1           0        8.911397    5.161052    2.602910
     88          1           0        9.000084    4.845698    0.752228
     89          1           0       10.085818    4.046306    1.931878
     90          1           0        8.558688    0.900164    4.419827
     91          1           0        8.753185    2.797499    4.455228
     92          1           0       10.640185    0.523866    4.622185
     93          1           0       10.808802    2.288120    5.145082
     94          1           0       11.175312    1.781575    3.503958
     95          1           0        7.546964   -3.165064    4.081929
     96          1           0        8.690367   -3.055067    2.784708
     97          1           0        7.673942   -4.493602    2.971430
     98          1           0        3.134301   -4.437993   -0.001810
     99          1           0        3.332002   -7.389430   -3.207854
    100          1           0        4.948956   -7.597527   -2.679535
    101          1           0        4.503964   -6.317633   -3.851567
    102          1           0       -3.825854   -3.270916    0.169894
    103          1           0       -4.207260   -2.388093   -1.244479
    104          1           0       -2.710453   -0.598204    0.479191
    105          1           0       -6.130823   -2.520920    0.499471
    106          1           0       -6.282514   -1.267808   -0.512203
    107          1           0       -7.002666   -1.120286    1.188743
    108          1           0       -3.835849    0.919434    1.820885
    109          1           0       -5.427106    0.340444    2.453020
    110          1           0       -5.663051    1.326496   -0.413804
    111          1           0       -5.056345    2.575165    0.616026
    112          1           0       -6.840762    2.931480    1.718169
    113          1           0       -7.550186    1.346168    1.793337
    114          1           0       -7.793419    1.424555   -0.843600
    115          1           0       -6.861080    4.009695   -0.330074
    116          1           0       -8.608242    4.109212   -0.152037
    117          1           0       -7.883001    3.637760   -1.744298
    118          1           0      -10.122144    2.467330   -0.367676
    119          1           0       -9.648889    2.233801    1.282037
    120          1           0       -8.997828   -0.248548   -0.247840
    121          1           0      -10.611196    0.264976   -0.562861
    122          1           0       -9.508081    0.308190    2.281874
    123          1           0       -9.415014   -1.174645    1.526266
    124          1           0      -11.505209   -1.555156    0.979463
    125          1           0      -11.844835   -2.563237    2.866612
    126          1           0      -12.496157   -1.257926    3.701204
    127          1           0      -10.789634   -1.325635    3.798279
    128          1           0      -11.997987    1.137293    0.959734
    129          1           0      -13.131424    0.625501    2.197689
    130          1           0      -13.234389   -1.245931    0.048463
    131          1           0      -13.083408    0.409795   -0.573518
    132          1           0      -15.100802    0.155716    1.564357
    133          1           0      -15.397273   -0.959703    0.131924
    134          1           0      -15.230824    1.054209   -1.423074
    135          1           0      -14.365718    2.459051    0.789216
    136          1           0      -15.987250    3.001835    0.625906
    137          1           0      -14.885975    2.953101   -0.832915
    138          1           0      -17.432571    1.870414   -1.042667
    139          1           0      -17.537888    1.333221    0.640581
    140          1           0      -17.400269    0.098948   -0.712895
 ---------------------------------------------------------------------

 SCF Done:  E(RwB97XD) =  -3007.82084555     A.U. after   19 cycles

 Excitation energies and oscillator strengths:

 Excited State   1:      Singlet-A      1.6675 eV  743.52 nm  f=0.3615  <S**2>=0.000
     245 -> 248        0.17680
     246 -> 247        0.68476
     245 <- 248        0.11367
 This state for optimization and/or second-order correction.
 Total Energy, E(TD-HF/TD-DFT) =  -3007.75956504
 Copying the excited state density for this state as the 1-particle RhoCI density.

 Excited State   2:      Singlet-A      2.1703 eV  571.28 nm  f=0.1285  <S**2>=0.000
     242 -> 247        0.10671
     245 -> 247        0.64181
     246 -> 248       -0.26971

 Excited State   3:      Singlet-A      3.1149 eV  398.03 nm  f=0.0046  <S**2>=0.000
     242 -> 247        0.50736
     243 -> 247        0.44931
     246 -> 248        0.10143

 Excited State   4:      Singlet-A      3.3275 eV  372.61 nm  f=0.0001  <S**2>=0.000
     240 -> 247        0.51946
     240 -> 248       -0.15884
     240 -> 249       -0.34536
     240 -> 250        0.21192
     243 -> 247       -0.13085

 Excited State   5:      Singlet-A      3.4340 eV  361.05 nm  f=0.0031  <S**2>=0.000
     241 -> 247        0.10836
     242 -> 247       -0.40745
     243 -> 247        0.48630
     246 -> 248       -0.17908

 The electronic state is 1-A.
 Alpha  occ. eigenvalues --  -46.95672 -19.30746 -19.30048 -19.25704 -19.24833
 Alpha  occ. eigenvalues --  -19.23947 -19.23277 -14.47319 -14.46427 -14.44401
 Alpha  occ. eigenvalues --  -14.43411 -10.43946 -10.43524 -10.40004 -10.38194
 Alpha  occ. eigenvalues --  -10.36543 -10.35734 -10.35488 -10.35394 -10.35120
 Alpha  occ. eigenvalues --  -10.34898 -10.34825 -10.34508 -10.33193 -10.32770
 Alpha  occ. eigenvalues --  -10.32720 -10.32399 -10.32179 -10.32140 -10.32088
 Alpha  occ. eigenvalues --  -10.32058 -10.31923 -10.31854 -10.31605 -10.31602
 Alpha  occ. eigenvalues --  -10.31602 -10.31517 -10.31510 -10.31284 -10.31170
 Alpha  occ. eigenvalues --  -10.31052 -10.30974 -10.30845 -10.30764 -10.30653
 Alpha  occ. eigenvalues --  -10.30003 -10.29906 -10.29890 -10.29788 -10.29692
 Alpha  occ. eigenvalues --  -10.29682 -10.29503 -10.29416 -10.29133 -10.29087
 Alpha  occ. eigenvalues --  -10.28773 -10.28698 -10.28652 -10.28508 -10.28507
 Alpha  occ. eigenvalues --  -10.28436 -10.28094 -10.28071 -10.28057 -10.28023
 Alpha  occ. eigenvalues --  -10.27569  -3.21554  -1.95100  -1.94679  -1.94517
 Alpha  occ. eigenvalues --   -1.17398  -1.16854  -1.12753  -1.10258  -1.09912
 Alpha  occ. eigenvalues --   -1.08576  -1.06518  -1.05644  -1.04914  -1.03938
 Alpha  occ. eigenvalues --   -0.95092  -0.92768  -0.92171  -0.91761  -0.91446
 Alpha  occ. eigenvalues --   -0.90807  -0.90452  -0.89584  -0.89291  -0.88445
 Alpha  occ. eigenvalues --   -0.87825  -0.87601  -0.86256  -0.85738  -0.85371
 Alpha  occ. eigenvalues --   -0.84686  -0.84128  -0.83123  -0.82761  -0.82605
 Alpha  occ. eigenvalues --   -0.81672  -0.80344  -0.79794  -0.79328  -0.78792
 Alpha  occ. eigenvalues --   -0.78049  -0.77073  -0.76875  -0.76650  -0.76392
 Alpha  occ. eigenvalues --   -0.75245  -0.74292  -0.73732  -0.72491  -0.71303
 Alpha  occ. eigenvalues --   -0.70810  -0.70253  -0.69726  -0.68789  -0.67862
 Alpha  occ. eigenvalues --   -0.67364  -0.67089  -0.67067  -0.66719  -0.65777
 Alpha  occ. eigenvalues --   -0.65210  -0.64992  -0.64546  -0.63918  -0.62425
 Alpha  occ. eigenvalues --   -0.61890  -0.61742  -0.61531  -0.60694  -0.60274
 Alpha  occ. eigenvalues --   -0.59735  -0.58676  -0.58364  -0.57640  -0.57386
 Alpha  occ. eigenvalues --   -0.57218  -0.56905  -0.56611  -0.56205  -0.55881
 Alpha  occ. eigenvalues --   -0.55703  -0.55349  -0.55319  -0.54886  -0.54734
 Alpha  occ. eigenvalues --   -0.54485  -0.54358  -0.54067  -0.53864  -0.53700
 Alpha  occ. eigenvalues --   -0.53585  -0.53247  -0.53215  -0.52894  -0.52615
 Alpha  occ. eigenvalues --   -0.52384  -0.52224  -0.52041  -0.51759  -0.51645
 Alpha  occ. eigenvalues --   -0.51433  -0.51286  -0.50955  -0.50687  -0.50576
 Alpha  occ. eigenvalues --   -0.50534  -0.50255  -0.50098  -0.49865  -0.49718
 Alpha  occ. eigenvalues --   -0.49610  -0.49543  -0.49284  -0.48852  -0.48745
 Alpha  occ. eigenvalues --   -0.48634  -0.48407  -0.48263  -0.48134  -0.47920
 Alpha  occ. eigenvalues --   -0.47655  -0.47423  -0.47179  -0.47052  -0.46991
 Alpha  occ. eigenvalues --   -0.46727  -0.46506  -0.46245  -0.46155  -0.46000
 Alpha  occ. eigenvalues --   -0.45922  -0.45746  -0.45675  -0.45511  -0.45414
 Alpha  occ. eigenvalues --   -0.45163  -0.44730  -0.44714  -0.44667  -0.44378
 Alpha  occ. eigenvalues --   -0.44146  -0.43982  -0.43940  -0.43490  -0.43438
 Alpha  occ. eigenvalues --   -0.43192  -0.42898  -0.42711  -0.42276  -0.42244
 Alpha  occ. eigenvalues --   -0.41772  -0.41482  -0.41288  -0.40839  -0.40751
 Alpha  occ. eigenvalues --   -0.40627  -0.40328  -0.40014  -0.39490  -0.39461
 Alpha  occ. eigenvalues --   -0.39045  -0.38900  -0.38710  -0.38465  -0.38075
 Alpha  occ. eigenvalues --   -0.37369  -0.37242  -0.36489  -0.36433  -0.36254
 Alpha  occ. eigenvalues --   -0.35935  -0.35868  -0.35633  -0.33703  -0.32825
 Alpha  occ. eigenvalues --   -0.32259  -0.32002  -0.31786  -0.30249  -0.26366
 Alpha  occ. eigenvalues --   -0.23540
 Alpha virt. eigenvalues --   -0.07564  -0.00084   0.02406   0.04022   0.04600
 Alpha virt. eigenvalues --    0.06497   0.06726   0.07761   0.08095   0.09444
 Alpha virt. eigenvalues --    0.10700   0.11321   0.11571   0.11650   0.12424

 Mulliken charges:
               1
     1  Mg   0.953992
     2  C   -0.055333
     3  C   -0.087743
     4  C   -0.101554
     5  C   -0.094608
     6  N   -0.404081
     7  C   -0.011105
     8  C   -0.028876
     9  C   -0.105831
    10  C    0.035911
    11  C    0.032390
    12  C   -0.006725
    13  C    0.020956
    14  C    0.205539
    15  O   -0.240141
    16  O   -0.397920
    17  N   -0.517188
    18  C    0.248035
    19  C   -0.170142
    20  C   -0.061803
    21  C    0.199577
    22  C    0.102267
    23  C    0.047608
    24  O   -0.267890
    25  C   -0.032705
    26  N   -0.315419
    27  C    0.079203
    28  C   -0.097785
    29  C   -0.096588
    30  C    0.068897
    31  C    0.038168
    32  C   -0.034528
    33  C   -0.058949
    34  N   -0.411728
    35  C    0.111913
    36  C   -0.181727
    37  C   -0.042857
    38  C    0.168268
    39  C    0.069060
    40  C    0.106711
    41  O   -0.179211
    42  C   -0.058053
    43  C    0.286892
    44  O   -0.266447
    45  O   -0.374054
    46  C    0.135470
    47  C    0.239200
    48  C   -0.160243
    49  C   -0.238806
    50  C    0.032973
    51  C    0.082945
    52  C   -0.039441
    53  C    0.018965
    54  C   -0.204893
    55  C    0.028254
    56  C   -0.026455
    57  C   -0.031890
    58  C   -0.033324
    59  C   -0.155165
    60  C    0.022925
    61  C   -0.012455
    62  C   -0.045745
    63  C    0.036276
    64  C   -0.233454
    65  C   -0.025674
    66  C    0.023017
    67  H    0.002329
    68  H   -0.032567
    69  H   -0.002280
    70  H    0.026817
    71  H    0.044979
    72  H    0.030318
    73  H    0.051212
    74  H    0.056290
    75  H    0.043013
    76  H    0.056164
    77  H    0.064887
    78  H    0.064135
    79  H    0.065210
    80  H    0.018823
    81  H    0.054746
    82  H    0.059870
    83  H    0.075718
    84  H    0.060579
    85  H    0.037970
    86  H    0.033738
    87  H    0.041057
    88  H    0.051586
    89  H    0.033674
    90  H    0.044863
    91  H    0.031472
    92  H    0.043782
    93  H    0.045558
    94  H    0.030597
    95  H    0.047932
    96  H    0.037209
    97  H    0.055809
    98  H    0.062434
    99  H    0.039163
   100  H    0.059035
   101  H    0.066152
   102  H    0.071168
   103  H    0.032131
   104  H    0.021658
   105  H    0.037523
   106  H    0.045188
   107  H    0.048558
   108  H    0.031218
   109  H    0.036792
   110  H    0.036860
   111  H    0.028193
   112  H    0.025399
   113  H    0.000982
   114  H    0.014992
   115  H    0.018146
   116  H    0.024602
   117  H    0.035595
   118  H    0.018129
   119  H    0.020870
   120  H    0.015095
   121  H    0.021727
   122  H    0.018857
   123  H    0.012200
   124  H    0.016276
   125  H    0.032263
   126  H    0.016723
   127  H    0.036085
   128  H    0.016740
   129  H    0.012762
   130  H    0.022484
   131  H    0.016299
   132  H    0.022792
   133  H    0.012481
   134  H    0.026038
   135  H    0.019493
   136  H    0.027555
   137  H    0.028176
   138  H    0.028413
   139  H    0.036579
   140  H    0.023809
 Sum of Mulliken charges =  -0.00000

 Dipole moment (field-independent basis, Debye):
    X=              0.3105    Y=              3.2013    Z=             -0.4346  Tot=              3.2456
 Quadrupole moment (field-independent basis, Debye-Ang):
   XX=           -355.2811   YY=           -445.1777   ZZ=           -391.2777
   XY=             26.1177   XZ=             18.8409   YZ=             32.9885

 Normal termination of Gaussian 16 at Wed May  4 11:54:14 2022.
