 Gaussian 16, Revision A.03,
 Gaussian 16:  ES64L-G16RevA.03 25-Dec-2016

 --------------------
 #p ZINDO=(nstates=5)
 --------------------

 -----------------------------
 step_1651_chromophore_5 ZINDO
 -----------------------------
 Symbolic Z-matrix:
 Charge =  0 Multiplicity = 1

                         Standard orientation:
 ---------------------------------------------------------------------
 Center     Atomic      Atomic             Coordinates (Angstroms)
 Number     Number       Type             X           Y           Z
 ---------------------------------------------------------------------
      1         12           0        5.372863    0.579391   -0.454017
      2          6           0        4.107186   -2.608582   -0.310055
      3          6           0        2.848842    1.581674   -2.430326
      4          6           0        6.271779    3.885241    0.208203
      5          6           0        7.535787   -0.312943    2.366449
      6          7           0        3.484575   -0.387984   -0.978983
      7          6           0        3.176840   -1.762075   -0.894797
      8          6           0        1.915306   -2.042433   -1.629992
      9          6           0        1.606163   -0.767989   -2.450279
     10          6           0        2.716073    0.249044   -1.964761
     11          6           0        1.603725   -0.937989   -3.979844
     12          6           0        0.846587   -2.623654   -0.697791
     13          6           0       -0.000581   -3.748265   -1.370034
     14          6           0       -1.442132   -3.766504   -0.723168
     15          8           0       -1.898997   -4.644294   -0.006774
     16          8           0       -2.125565   -2.583850   -1.078196
     17          7           0        4.823530    2.425275   -1.182551
     18          6           0        3.728494    2.574770   -2.031831
     19          6           0        3.769599    3.917509   -2.437718
     20          6           0        4.741495    4.665659   -1.697817
     21          6           0        5.368556    3.663218   -0.849965
     22          6           0        2.811720    4.427096   -3.512469
     23          6           0        5.004413    6.138107   -1.793471
     24          8           0        4.307474    6.793643   -2.614153
     25          6           0        6.283514    6.832407   -1.131220
     26          7           0        6.731321    1.656699    1.031907
     27          6           0        6.906229    2.970897    1.010775
     28          6           0        8.022792    3.337344    2.072674
     29          6           0        8.617041    1.999666    2.522795
     30          6           0        7.544238    1.057535    1.995423
     31          6           0        9.097906    4.478915    1.773074
     32          6           0        9.025060    1.817866    4.062239
     33          6           0       10.537946    1.578201    4.364358
     34          7           0        5.796894   -1.081954    0.767490
     35          6           0        6.704746   -1.314447    1.788257
     36          6           0        6.771561   -2.735023    2.037322
     37          6           0        5.781123   -3.251152    1.177929
     38          6           0        5.227574   -2.238281    0.470496
     39          6           0        7.687259   -3.405015    3.027972
     40          6           0        5.152815   -4.478596    0.758493
     41          8           0        5.192739   -5.641467    1.064681
     42          6           0        4.130613   -4.127966   -0.316832
     43          6           0        4.425427   -4.773928   -1.642408
     44          8           0        5.195362   -4.360589   -2.519460
     45          8           0        3.858525   -6.056281   -1.706109
     46          6           0        4.221513   -6.823858   -2.928859
     47          6           0       -3.471675   -2.440689   -0.441417
     48          6           0       -3.644323   -1.150423    0.371681
     49          6           0       -4.865283   -0.675304    0.850296
     50          6           0       -6.170006   -1.432403    0.559589
     51          6           0       -4.853044    0.615963    1.568457
     52          6           0       -5.610102    1.637113    0.629849
     53          6           0       -7.011970    2.027692    1.134334
     54          6           0       -7.949049    2.179804   -0.072706
     55          6           0       -7.805606    3.574583   -0.659450
     56          6           0       -9.464949    1.875312    0.269770
     57          6           0       -9.803595    0.360681    0.162486
     58          6           0      -10.013785   -0.264067    1.504556
     59          6           0      -11.454716   -0.811391    1.774573
     60          6           0      -11.616143   -1.527173    3.116543
     61          6           0      -12.550101    0.278760    1.343252
     62          6           0      -13.449845   -0.196776    0.255133
     63          6           0      -14.997988   -0.010712    0.492892
     64          6           0      -15.624091    1.068863   -0.406519
     65          6           0      -15.201532    2.468819    0.090490
     66          6           0      -17.134679    1.089131   -0.343271
     67          1           0        2.076734    1.768447   -3.179418
     68          1           0        6.495908    4.932032    0.418762
     69          1           0        8.302400   -0.646201    3.068927
     70          1           0        2.114339   -2.771572   -2.415286
     71          1           0        0.640012   -0.446525   -2.061545
     72          1           0        1.443654   -1.997827   -4.177506
     73          1           0        2.573284   -0.761544   -4.443345
     74          1           0        0.759885   -0.342360   -4.329081
     75          1           0        0.107603   -1.872205   -0.420865
     76          1           0        1.263178   -2.943635    0.257213
     77          1           0        0.473421   -4.654073   -0.992551
     78          1           0       -0.104549   -3.663394   -2.451684
     79          1           0        2.153677    5.182352   -3.083210
     80          1           0        2.266572    3.603546   -3.973278
     81          1           0        3.415418    4.878169   -4.301051
     82          1           0        7.143133    6.192894   -1.334277
     83          1           0        6.025789    6.879798   -0.073219
     84          1           0        6.599630    7.793796   -1.536174
     85          1           0        7.423163    3.667465    2.920894
     86          1           0        9.572914    1.776443    2.050794
     87          1           0        8.911397    5.161052    2.602910
     88          1           0        9.000084    4.845698    0.752228
     89          1           0       10.085818    4.046306    1.931878
     90          1           0        8.558688    0.900164    4.419827
     91          1           0        8.753185    2.797499    4.455228
     92          1           0       10.640185    0.523866    4.622185
     93          1           0       10.808802    2.288120    5.145082
     94          1           0       11.175312    1.781575    3.503958
     95          1           0        7.546964   -3.165064    4.081929
     96          1           0        8.690367   -3.055067    2.784708
     97          1           0        7.673942   -4.493602    2.971430
     98          1           0        3.134301   -4.437993   -0.001810
     99          1           0        3.332002   -7.389430   -3.207854
    100          1           0        4.948956   -7.597527   -2.679535
    101          1           0        4.503964   -6.317633   -3.851567
    102          1           0       -3.825854   -3.270916    0.169894
    103          1           0       -4.207260   -2.388093   -1.244479
    104          1           0       -2.710453   -0.598204    0.479191
    105          1           0       -6.130823   -2.520920    0.499471
    106          1           0       -6.282514   -1.267808   -0.512203
    107          1           0       -7.002666   -1.120286    1.188743
    108          1           0       -3.835849    0.919434    1.820885
    109          1           0       -5.427106    0.340444    2.453020
    110          1           0       -5.663051    1.326496   -0.413804
    111          1           0       -5.056345    2.575165    0.616026
    112          1           0       -6.840762    2.931480    1.718169
    113          1           0       -7.550186    1.346168    1.793337
    114          1           0       -7.793419    1.424555   -0.843600
    115          1           0       -6.861080    4.009695   -0.330074
    116          1           0       -8.608242    4.109212   -0.152037
    117          1           0       -7.883001    3.637760   -1.744298
    118          1           0      -10.122144    2.467330   -0.367676
    119          1           0       -9.648889    2.233801    1.282037
    120          1           0       -8.997828   -0.248548   -0.247840
    121          1           0      -10.611196    0.264976   -0.562861
    122          1           0       -9.508081    0.308190    2.281874
    123          1           0       -9.415014   -1.174645    1.526266
    124          1           0      -11.505209   -1.555156    0.979463
    125          1           0      -11.844835   -2.563237    2.866612
    126          1           0      -12.496157   -1.257926    3.701204
    127          1           0      -10.789634   -1.325635    3.798279
    128          1           0      -11.997987    1.137293    0.959734
    129          1           0      -13.131424    0.625501    2.197689
    130          1           0      -13.234389   -1.245931    0.048463
    131          1           0      -13.083408    0.409795   -0.573518
    132          1           0      -15.100802    0.155716    1.564357
    133          1           0      -15.397273   -0.959703    0.131924
    134          1           0      -15.230824    1.054209   -1.423074
    135          1           0      -14.365718    2.459051    0.789216
    136          1           0      -15.987250    3.001835    0.625906
    137          1           0      -14.885975    2.953101   -0.832915
    138          1           0      -17.432571    1.870414   -1.042667
    139          1           0      -17.537888    1.333221    0.640581
    140          1           0      -17.400269    0.098948   -0.712895
 ---------------------------------------------------------------------

 SCF Done:  E(RZINDO/S) =  -474.092255919     A.U. after   20 cycles

 Excitation energies and oscillator strengths:

 Excited State   1:      Singlet-A      1.2606 eV  983.57 nm  f=0.5600  <S**2>=0.000
     175 ->178         0.16397
     176 ->177         0.66934
 This state for optimization and/or second-order correction.
 Total Energy, E(CIS/TDA) =  -474.045931287
 Copying the excited state density for this state as the 1-particle RhoCI density.

 Excited State   2:      Singlet-A      1.9136 eV  647.92 nm  f=0.0699  <S**2>=0.000
     175 ->177         0.56782
     176 ->178        -0.37991

 Excited State   3:      Singlet-A      2.8492 eV  435.15 nm  f=0.0009  <S**2>=0.000
     167 ->177         0.13718
     167 ->178         0.10930
     167 ->179         0.20860
     167 ->181         0.10716
     168 ->177         0.30220
     168 ->178         0.20574
     168 ->179         0.38143
     168 ->181         0.19086
     168 ->184        -0.10860
     168 ->185        -0.16118

 Excited State   4:      Singlet-A      2.9620 eV  418.58 nm  f=0.1612  <S**2>=0.000
     170 ->177         0.24018
     170 ->179        -0.25404
     170 ->180        -0.12154
     170 ->181         0.30315
     170 ->184        -0.15451
     170 ->185         0.17498
     170 ->187         0.18446
     171 ->177         0.10707
     175 ->177        -0.14135
     176 ->178        -0.24546

 Excited State   5:      Singlet-A      3.0050 eV  412.59 nm  f=0.4929  <S**2>=0.000
     170 ->177         0.11406
     170 ->179        -0.11539
     170 ->181         0.15739
     171 ->177        -0.33679
     175 ->177         0.23417
     176 ->178         0.40126
     176 ->180        -0.19322

 The electronic state is 1-A.
 Alpha  occ. eigenvalues --   -1.85732  -1.81099  -1.78422  -1.71883  -1.70140
 Alpha  occ. eigenvalues --   -1.68824  -1.67827  -1.62629  -1.59833  -1.56474
 Alpha  occ. eigenvalues --   -1.56010  -1.51484  -1.48714  -1.48374  -1.46646
 Alpha  occ. eigenvalues --   -1.45312  -1.42316  -1.39861  -1.38832  -1.38379
 Alpha  occ. eigenvalues --   -1.35570  -1.33474  -1.33065  -1.31385  -1.29037
 Alpha  occ. eigenvalues --   -1.28657  -1.26608  -1.22671  -1.19153  -1.17901
 Alpha  occ. eigenvalues --   -1.17467  -1.16184  -1.14869  -1.14279  -1.13241
 Alpha  occ. eigenvalues --   -1.12530  -1.11266  -1.09761  -1.04471  -1.03984
 Alpha  occ. eigenvalues --   -1.01883  -1.00807  -0.98404  -0.97612  -0.95675
 Alpha  occ. eigenvalues --   -0.94870  -0.94077  -0.93629  -0.92854  -0.92412
 Alpha  occ. eigenvalues --   -0.91233  -0.90856  -0.89562  -0.88709  -0.87704
 Alpha  occ. eigenvalues --   -0.86362  -0.84301  -0.83496  -0.83027  -0.80580
 Alpha  occ. eigenvalues --   -0.79571  -0.79169  -0.77329  -0.76750  -0.76412
 Alpha  occ. eigenvalues --   -0.75894  -0.75169  -0.74741  -0.74105  -0.73683
 Alpha  occ. eigenvalues --   -0.73471  -0.72272  -0.71895  -0.71079  -0.70600
 Alpha  occ. eigenvalues --   -0.70305  -0.69894  -0.69593  -0.68421  -0.68318
 Alpha  occ. eigenvalues --   -0.68036  -0.66380  -0.66209  -0.65858  -0.65385
 Alpha  occ. eigenvalues --   -0.64930  -0.64204  -0.63844  -0.63703  -0.63082
 Alpha  occ. eigenvalues --   -0.62907  -0.62459  -0.62375  -0.61817  -0.61743
 Alpha  occ. eigenvalues --   -0.61521  -0.61407  -0.61091  -0.60793  -0.60476
 Alpha  occ. eigenvalues --   -0.60351  -0.59364  -0.58843  -0.58503  -0.58029
 Alpha  occ. eigenvalues --   -0.57932  -0.57461  -0.57242  -0.56644  -0.56155
 Alpha  occ. eigenvalues --   -0.55946  -0.55818  -0.55607  -0.55129  -0.54992
 Alpha  occ. eigenvalues --   -0.54636  -0.54003  -0.53578  -0.53175  -0.53152
 Alpha  occ. eigenvalues --   -0.52816  -0.52630  -0.52532  -0.52176  -0.51850
 Alpha  occ. eigenvalues --   -0.51736  -0.51428  -0.50798  -0.50727  -0.50587
 Alpha  occ. eigenvalues --   -0.50248  -0.49976  -0.49509  -0.49402  -0.49214
 Alpha  occ. eigenvalues --   -0.48745  -0.48656  -0.48456  -0.48134  -0.47505
 Alpha  occ. eigenvalues --   -0.47493  -0.47192  -0.46984  -0.46560  -0.46280
 Alpha  occ. eigenvalues --   -0.46200  -0.46123  -0.46022  -0.45757  -0.45444
 Alpha  occ. eigenvalues --   -0.45195  -0.44849  -0.44586  -0.44098  -0.43779
 Alpha  occ. eigenvalues --   -0.43241  -0.42842  -0.42554  -0.42272  -0.42121
 Alpha  occ. eigenvalues --   -0.41970  -0.41712  -0.41561  -0.39307  -0.38916
 Alpha  occ. eigenvalues --   -0.38660  -0.37150  -0.36208  -0.35028  -0.34057
 Alpha  occ. eigenvalues --   -0.33572  -0.32680  -0.32061  -0.30439  -0.26976
 Alpha  occ. eigenvalues --   -0.22248
 Alpha virt. eigenvalues --   -0.08977  -0.02234  -0.00725   0.00617   0.00771
 Alpha virt. eigenvalues --    0.01845   0.02373   0.02423   0.04546   0.04608
 Alpha virt. eigenvalues --    0.06059   0.06609   0.07546   0.07731   0.08123

 Mulliken charges:
               1
     1  Mg   0.435501
     2  C   -0.031204
     3  C   -0.065205
     4  C   -0.089014
     5  C   -0.063744
     6  N   -0.296606
     7  C    0.097812
     8  C    0.012229
     9  C    0.004290
    10  C    0.147090
    11  C   -0.049258
    12  C   -0.020252
    13  C   -0.000327
    14  C    0.454242
    15  O   -0.500405
    16  O   -0.281978
    17  N   -0.349002
    18  C    0.141293
    19  C    0.065633
    20  C   -0.041447
    21  C    0.148296
    22  C   -0.042132
    23  C    0.313820
    24  O   -0.528853
    25  C   -0.027190
    26  N   -0.275423
    27  C    0.170635
    28  C   -0.006984
    29  C   -0.007738
    30  C    0.084775
    31  C   -0.059640
    32  C   -0.049149
    33  C   -0.062740
    34  N   -0.318662
    35  C    0.066981
    36  C    0.005383
    37  C   -0.051594
    38  C    0.123283
    39  C   -0.036865
    40  C    0.339627
    41  O   -0.522694
    42  C    0.057300
    43  C    0.484536
    44  O   -0.522239
    45  O   -0.262223
    46  C    0.073673
    47  C    0.094493
    48  C   -0.125101
    49  C   -0.000424
    50  C   -0.047943
    51  C   -0.016155
    52  C   -0.028605
    53  C   -0.030045
    54  C   -0.017195
    55  C   -0.059410
    56  C   -0.043391
    57  C   -0.033992
    58  C   -0.033519
    59  C   -0.018069
    60  C   -0.055827
    61  C   -0.035997
    62  C   -0.043845
    63  C   -0.035644
    64  C   -0.012413
    65  C   -0.066353
    66  C   -0.053190
    67  H    0.032212
    68  H    0.026185
    69  H    0.034188
    70  H    0.026410
    71  H    0.034406
    72  H    0.018207
    73  H    0.034877
    74  H    0.027826
    75  H    0.025740
    76  H    0.034746
    77  H    0.042571
    78  H    0.053073
    79  H    0.045680
    80  H    0.020126
    81  H    0.039079
    82  H    0.031505
    83  H    0.041188
    84  H    0.043669
    85  H    0.026848
    86  H    0.032656
    87  H    0.026781
    88  H    0.033479
    89  H    0.023494
    90  H    0.037643
    91  H    0.026505
    92  H    0.025146
    93  H    0.022242
    94  H    0.019423
    95  H    0.028967
    96  H    0.022436
    97  H    0.029023
    98  H    0.049266
    99  H    0.019647
   100  H    0.043210
   101  H    0.054590
   102  H    0.061357
   103  H    0.032053
   104  H    0.032773
   105  H    0.030360
   106  H    0.029981
   107  H    0.032620
   108  H    0.031400
   109  H    0.030210
   110  H    0.029950
   111  H    0.013665
   112  H    0.021422
   113  H    0.020445
   114  H    0.021316
   115  H    0.014763
   116  H    0.019545
   117  H    0.022121
   118  H    0.015235
   119  H    0.016767
   120  H    0.013149
   121  H    0.021646
   122  H    0.024166
   123  H   -0.003052
   124  H    0.016837
   125  H    0.022358
   126  H    0.012743
   127  H    0.026725
   128  H    0.018601
   129  H    0.017469
   130  H    0.019617
   131  H    0.017062
   132  H    0.034359
   133  H    0.011724
   134  H    0.028958
   135  H    0.013314
   136  H    0.020658
   137  H    0.015772
   138  H    0.015205
   139  H    0.029179
   140  H    0.013279
 Sum of Mulliken charges =  -0.00000

 Dipole moment (field-independent basis, Debye):
    X=             -0.4368    Y=              6.1544    Z=             -0.9009  Tot=              6.2353
 N-N= 4.279748543109D+03 E-N= 0.000000000000D+00  KE=-9.233378957654D+03
 Leave Link  601 at Wed May  4 12:08:19 2022, MaxMem=  6710886400 cpu:               0.8 elap:               0.0
 (Enter /sw/apps/gaussian-16.0/g16/l9999.exe)
 1\1\GINC-BP1-COMPUTE122\SP\RZINDO CIS\STO-3G\C55H74Mg1N4O6\OF15641\04-
 May-2022\0\\#p ZINDO=(nstates=5)\\step_1651_chromophore_5 ZINDO\\0,1\M
 g,0,24.238,-6.785,46.734\C,0,26.707,-4.578,45.829\C,0,22.12,-5.467,44.
 485\C,0,22.198,-9.588,47.13\C,0,26.816,-8.723,48.474\N,0,24.575,-5.393
 ,45.083\C,0,25.66,-4.506,44.922\C,0,25.357,-3.529,43.843\C,0,23.849,-3
 .685,43.536\C,0,23.428,-4.923,44.426\C,0,22.976,-2.448,43.812\C,0,26.3
 78,-3.625,42.704\C,0,26.765,-2.233,42.115\C,0,27.164,-2.407,40.596\O,0

 Normal termination of Gaussian 16 at Wed May  4 12:08:19 2022.
