 Gaussian 16, Revision A.03,
 Gaussian 16:  ES64L-G16RevA.03 25-Dec-2016

 ------------------------------
 #p blyp/Def2SVP td=(nstates=5)
 ------------------------------

 ---------------------------------------------------
 step_1851_chromophore_19 TDDFT with blyp functional
 ---------------------------------------------------
 Symbolic Z-matrix:
 Charge =  0 Multiplicity = 1

                         Standard orientation:
 ---------------------------------------------------------------------
 Center     Atomic      Atomic             Coordinates (Angstroms)
 Number     Number       Type             X           Y           Z
 ---------------------------------------------------------------------
      1         12           0        5.916272    0.438530    0.288643
      2          6           0        3.696740   -2.275013    0.283263
      3          6           0        3.262426    2.558874   -0.037127
      4          6           0        8.011940    2.827949   -0.315504
      5          6           0        8.530620   -1.928333    0.247658
      6          7           0        3.678467    0.111453   -0.142925
      7          6           0        2.998696   -1.030020    0.132701
      8          6           0        1.505185   -0.822571   -0.150395
      9          6           0        1.362735    0.747765   -0.078039
     10          6           0        2.850372    1.194147   -0.143590
     11          6           0        0.502413    1.428669   -1.124075
     12          6           0        0.607596   -1.673146    0.820886
     13          6           0       -0.865101   -1.163239    1.048402
     14          6           0       -1.983990   -1.729023    0.158226
     15          8           0       -1.865225   -2.656437   -0.581709
     16          8           0       -3.064500   -0.988914    0.374251
     17          7           0        5.688371    2.455065   -0.075411
     18          6           0        4.546863    3.154814   -0.151775
     19          6           0        4.812818    4.540439   -0.370370
     20          6           0        6.250252    4.631042   -0.414896
     21          6           0        6.713687    3.284657   -0.254505
     22          6           0        3.743887    5.645854   -0.448717
     23          6           0        7.120073    5.899660   -0.546373
     24          8           0        8.310516    5.852012   -0.386038
     25          6           0        6.463449    7.168756   -0.892138
     26          7           0        7.933761    0.445661   -0.116096
     27          6           0        8.576089    1.556881   -0.214277
     28          6           0       10.056650    1.421586   -0.409166
     29          6           0       10.258336   -0.094501    0.081137
     30          6           0        8.792784   -0.601997    0.152190
     31          6           0       10.608573    1.605621   -1.890145
     32          6           0       11.176341   -0.267615    1.350081
     33          6           0       10.570444   -0.393597    2.744698
     34          7           0        6.115836   -1.608379    0.430104
     35          6           0        7.288073   -2.403364    0.432301
     36          6           0        6.990365   -3.755764    0.634138
     37          6           0        5.563388   -3.770919    0.575421
     38          6           0        5.105479   -2.447823    0.441507
     39          6           0        7.927888   -4.926785    0.596477
     40          6           0        4.419518   -4.672544    0.448774
     41          8           0        4.321015   -5.905856    0.555041
     42          6           0        3.210579   -3.755300    0.253213
     43          6           0        2.636735   -4.139592   -1.059106
     44          8           0        3.226592   -4.094911   -2.121474
     45          8           0        1.346522   -4.466238   -0.886239
     46          6           0        0.508162   -4.867742   -2.039821
     47          6           0       -4.322391   -1.541753   -0.263954
     48          6           0       -5.495710   -1.100014    0.572558
     49          6           0       -6.475688   -0.179174    0.266088
     50          6           0       -6.464926    0.669646   -0.988214
     51          6           0       -7.665160   -0.067496    1.249722
     52          6           0       -8.349450    1.213301    1.781118
     53          6           0       -8.630116    1.183660    3.310764
     54          6           0      -10.093463    1.643880    3.528806
     55          6           0      -10.224693    2.061977    5.046047
     56          6           0      -11.136284    0.524898    3.100871
     57          6           0      -12.223617    1.148073    2.218940
     58          6           0      -13.228047    0.135486    1.771429
     59          6           0      -13.619198    0.301171    0.293228
     60          6           0      -14.830911   -0.515298   -0.142540
     61          6           0      -12.401178    0.050197   -0.667588
     62          6           0      -12.409472    1.041411   -1.845504
     63          6           0      -12.759159    0.329016   -3.217722
     64          6           0      -11.488624    0.151133   -4.094165
     65          6           0      -10.343883   -0.707603   -3.391866
     66          6           0      -10.896160    1.430528   -4.756054
     67          1           0        2.473530    3.311765    0.016841
     68          1           0        8.752875    3.619806   -0.185442
     69          1           0        9.331539   -2.669248    0.201752
     70          1           0        1.394359   -1.106399   -1.196838
     71          1           0        0.997405    1.116745    0.880655
     72          1           0       -0.095324    0.735504   -1.715916
     73          1           0        1.076583    2.059819   -1.803029
     74          1           0       -0.216241    2.108482   -0.664792
     75          1           0        1.118662   -2.033394    1.714263
     76          1           0        0.452690   -2.552021    0.195608
     77          1           0       -1.043467   -0.088063    1.054390
     78          1           0       -1.028758   -1.414027    2.096214
     79          1           0        2.726451    5.306067   -0.260161
     80          1           0        3.649814    5.946035   -1.492010
     81          1           0        3.956663    6.313657    0.385320
     82          1           0        5.935201    7.615437   -0.049996
     83          1           0        5.768745    7.017255   -1.718677
     84          1           0        7.270644    7.843293   -1.175343
     85          1           0       10.616390    2.105326    0.228167
     86          1           0       10.695985   -0.701281   -0.712166
     87          1           0       10.915398    0.675929   -2.368971
     88          1           0       11.408970    2.339879   -1.809598
     89          1           0        9.931750    2.017185   -2.638453
     90          1           0       11.910840    0.535473    1.397891
     91          1           0       11.840458   -1.116843    1.189080
     92          1           0        9.529924   -0.072925    2.698795
     93          1           0       11.019846    0.276543    3.477244
     94          1           0       10.772751   -1.421762    3.043248
     95          1           0        8.657442   -4.905424    1.406457
     96          1           0        8.456186   -5.130700   -0.334852
     97          1           0        7.388756   -5.855145    0.781761
     98          1           0        2.488802   -3.872257    1.061891
     99          1           0       -0.391606   -4.291313   -1.821070
    100          1           0        0.274383   -5.932004   -2.059333
    101          1           0        0.975654   -4.593321   -2.986218
    102          1           0       -4.328403   -2.631525   -0.281006
    103          1           0       -4.426336   -1.127554   -1.267404
    104          1           0       -5.703083   -1.635552    1.498420
    105          1           0       -7.389861    1.239644   -0.901486
    106          1           0       -6.537803    0.192980   -1.965796
    107          1           0       -5.613609    1.349732   -0.973344
    108          1           0       -7.409486   -0.592509    2.169657
    109          1           0       -8.568196   -0.635428    1.028785
    110          1           0       -9.210817    1.380019    1.133939
    111          1           0       -7.686552    2.055623    1.581719
    112          1           0       -7.937732    1.864830    3.806547
    113          1           0       -8.600337    0.192761    3.763645
    114          1           0      -10.380325    2.527300    2.958381
    115          1           0      -10.498113    1.160380    5.593474
    116          1           0      -11.144657    2.644499    5.107251
    117          1           0       -9.335466    2.554598    5.439028
    118          1           0      -11.531850    0.006923    3.975072
    119          1           0      -10.596028   -0.171543    2.460142
    120          1           0      -11.696666    1.640302    1.400873
    121          1           0      -12.810980    1.865503    2.792072
    122          1           0      -14.085681    0.190265    2.441780
    123          1           0      -12.767098   -0.851048    1.823817
    124          1           0      -13.847680    1.364861    0.236841
    125          1           0      -14.561156   -1.442226   -0.648700
    126          1           0      -15.363334    0.091808   -0.874986
    127          1           0      -15.481154   -0.795937    0.685010
    128          1           0      -12.399111   -0.983747   -1.012327
    129          1           0      -11.476890    0.207446   -0.110517
    130          1           0      -11.368484    1.355902   -1.920468
    131          1           0      -12.970422    1.974672   -1.801209
    132          1           0      -13.351918    1.067878   -3.757710
    133          1           0      -13.393748   -0.549258   -3.101288
    134          1           0      -11.821396   -0.466611   -4.928657
    135          1           0      -10.711608   -1.036296   -2.419873
    136          1           0       -9.516719   -0.005954   -3.280966
    137          1           0      -10.119019   -1.565136   -4.024462
    138          1           0      -11.621758    2.081174   -5.244841
    139          1           0      -10.308769    0.973614   -5.552126
    140          1           0      -10.122331    1.988115   -4.228177
 ---------------------------------------------------------------------

 SCF Done:  E(RB-LYP) =  -3007.37516825     A.U. after   22 cycles

 Excitation energies and oscillator strengths:

 Excited State   1:      Singlet-A      1.8175 eV  682.16 nm  f=0.0587  <S**2>=0.000
     244 -> 247        0.63849
     246 -> 247        0.29444
 This state for optimization and/or second-order correction.
 Total Energy, E(TD-HF/TD-DFT) =  -3007.30837567
 Copying the excited state density for this state as the 1-particle RhoCI density.

 Excited State   2:      Singlet-A      1.8293 eV  677.76 nm  f=0.2325  <S**2>=0.000
     244 -> 247       -0.29969
     245 -> 247        0.11483
     245 -> 248       -0.18677
     246 -> 247        0.61055
     246 <- 247       -0.12726

 Excited State   3:      Singlet-A      1.9823 eV  625.47 nm  f=0.0988  <S**2>=0.000
     245 -> 247        0.64598
     246 -> 247       -0.11092
     246 -> 248        0.23531

 Excited State   4:      Singlet-A      2.1572 eV  574.75 nm  f=0.0003  <S**2>=0.000
     243 -> 247        0.70631

 Excited State   5:      Singlet-A      2.5090 eV  494.15 nm  f=0.0051  <S**2>=0.000
     242 -> 247        0.67916

 The electronic state is 1-A.
 Alpha  occ. eigenvalues --  -46.26412 -18.82905 -18.81155 -18.77442 -18.75747
 Alpha  occ. eigenvalues --  -18.75155 -18.74594 -14.02707 -14.02555 -14.00241
 Alpha  occ. eigenvalues --  -13.99899 -10.04214 -10.02546  -9.99701  -9.98899
 Alpha  occ. eigenvalues --   -9.98402  -9.96487  -9.96465  -9.96355  -9.95501
 Alpha  occ. eigenvalues --   -9.95313  -9.94927  -9.94762  -9.94496  -9.93917
 Alpha  occ. eigenvalues --   -9.93821  -9.93758  -9.93671  -9.93616  -9.93585
 Alpha  occ. eigenvalues --   -9.93515  -9.93302  -9.93268  -9.93114  -9.93015
 Alpha  occ. eigenvalues --   -9.92667  -9.92625  -9.92611  -9.92581  -9.92537
 Alpha  occ. eigenvalues --   -9.92468  -9.92371  -9.92263  -9.92189  -9.92138
 Alpha  occ. eigenvalues --   -9.92135  -9.92061  -9.92040  -9.91871  -9.91781
 Alpha  occ. eigenvalues --   -9.91758  -9.91750  -9.91730  -9.91587  -9.91533
 Alpha  occ. eigenvalues --   -9.91506  -9.91452  -9.91358  -9.91344  -9.91262
 Alpha  occ. eigenvalues --   -9.91188  -9.91107  -9.90922  -9.90701  -9.90605
 Alpha  occ. eigenvalues --   -9.90278  -2.91186  -1.71588  -1.71098  -1.70885
 Alpha  occ. eigenvalues --   -0.99592  -0.97069  -0.92891  -0.91699  -0.89368
 Alpha  occ. eigenvalues --   -0.88682  -0.87443  -0.86551  -0.85835  -0.85031
 Alpha  occ. eigenvalues --   -0.74580  -0.74044  -0.73388  -0.72235  -0.72120
 Alpha  occ. eigenvalues --   -0.71705  -0.71050  -0.70974  -0.70674  -0.70093
 Alpha  occ. eigenvalues --   -0.69717  -0.69136  -0.68240  -0.67326  -0.67087
 Alpha  occ. eigenvalues --   -0.66335  -0.65958  -0.65562  -0.64987  -0.64695
 Alpha  occ. eigenvalues --   -0.64232  -0.62483  -0.62298  -0.61494  -0.60939
 Alpha  occ. eigenvalues --   -0.60270  -0.60261  -0.59997  -0.59525  -0.59518
 Alpha  occ. eigenvalues --   -0.58394  -0.57589  -0.56680  -0.55812  -0.54806
 Alpha  occ. eigenvalues --   -0.53864  -0.53230  -0.52602  -0.52156  -0.51601
 Alpha  occ. eigenvalues --   -0.51141  -0.50819  -0.50251  -0.50171  -0.49619
 Alpha  occ. eigenvalues --   -0.49066  -0.48700  -0.47824  -0.47456  -0.46941
 Alpha  occ. eigenvalues --   -0.46872  -0.45516  -0.45138  -0.44891  -0.44339
 Alpha  occ. eigenvalues --   -0.43987  -0.43712  -0.43396  -0.43078  -0.42877
 Alpha  occ. eigenvalues --   -0.42110  -0.41798  -0.41683  -0.41676  -0.41423
 Alpha  occ. eigenvalues --   -0.41233  -0.40792  -0.40670  -0.40559  -0.40372
 Alpha  occ. eigenvalues --   -0.39746  -0.39691  -0.39375  -0.39263  -0.38955
 Alpha  occ. eigenvalues --   -0.38579  -0.38533  -0.38472  -0.38346  -0.38158
 Alpha  occ. eigenvalues --   -0.38070  -0.37813  -0.37648  -0.37548  -0.37322
 Alpha  occ. eigenvalues --   -0.37186  -0.36955  -0.36670  -0.36586  -0.36191
 Alpha  occ. eigenvalues --   -0.35933  -0.35851  -0.35703  -0.35466  -0.35405
 Alpha  occ. eigenvalues --   -0.35225  -0.35026  -0.34936  -0.34756  -0.34556
 Alpha  occ. eigenvalues --   -0.34426  -0.34272  -0.34082  -0.33938  -0.33723
 Alpha  occ. eigenvalues --   -0.33453  -0.33367  -0.33327  -0.33156  -0.33073
 Alpha  occ. eigenvalues --   -0.33020  -0.32684  -0.32431  -0.32344  -0.32211
 Alpha  occ. eigenvalues --   -0.31768  -0.31658  -0.31529  -0.31446  -0.31295
 Alpha  occ. eigenvalues --   -0.31100  -0.31057  -0.30894  -0.30848  -0.30707
 Alpha  occ. eigenvalues --   -0.30647  -0.30249  -0.30138  -0.29922  -0.29747
 Alpha  occ. eigenvalues --   -0.29244  -0.29215  -0.29055  -0.29014  -0.28941
 Alpha  occ. eigenvalues --   -0.28741  -0.28670  -0.28360  -0.28024  -0.27994
 Alpha  occ. eigenvalues --   -0.27384  -0.26909  -0.26860  -0.26726  -0.26681
 Alpha  occ. eigenvalues --   -0.26401  -0.26310  -0.25801  -0.25715  -0.25577
 Alpha  occ. eigenvalues --   -0.24919  -0.24691  -0.23982  -0.23965  -0.23698
 Alpha  occ. eigenvalues --   -0.23224  -0.22859  -0.21585  -0.20912  -0.20818
 Alpha  occ. eigenvalues --   -0.20464  -0.19780  -0.18972  -0.17716  -0.16658
 Alpha  occ. eigenvalues --   -0.15550
 Alpha virt. eigenvalues --   -0.11147  -0.06375  -0.05626  -0.04474  -0.03868
 Alpha virt. eigenvalues --   -0.02326  -0.01760  -0.01044  -0.00717   0.00328
 Alpha virt. eigenvalues --    0.00550   0.01547   0.02227   0.02621   0.02870

 Mulliken charges:
               1
     1  Mg   0.699014
     2  C    0.019696
     3  C   -0.061655
     4  C   -0.073948
     5  C   -0.139548
     6  N   -0.183933
     7  C   -0.123741
     8  C    0.071286
     9  C   -0.013602
    10  C    0.012253
    11  C    0.129185
    12  C    0.105658
    13  C    0.084063
    14  C    0.069980
    15  O   -0.157559
    16  O   -0.253157
    17  N   -0.246369
    18  C    0.112295
    19  C   -0.164332
    20  C    0.026202
    21  C    0.089355
    22  C    0.184780
    23  C   -0.093598
    24  O   -0.135336
    25  C    0.152067
    26  N   -0.213400
    27  C    0.024884
    28  C    0.009856
    29  C    0.039418
    30  C    0.078266
    31  C    0.117138
    32  C    0.064967
    33  C    0.081787
    34  N   -0.261703
    35  C    0.164374
    36  C   -0.160285
    37  C    0.067788
    38  C    0.061548
    39  C    0.164864
    40  C   -0.029411
    41  O   -0.155988
    42  C    0.074537
    43  C    0.099284
    44  O   -0.176716
    45  O   -0.254886
    46  C    0.187356
    47  C    0.334990
    48  C   -0.093203
    49  C   -0.121264
    50  C    0.129560
    51  C    0.080137
    52  C    0.052566
    53  C    0.112199
    54  C   -0.106805
    55  C    0.115806
    56  C    0.083380
    57  C    0.039328
    58  C    0.137038
    59  C   -0.076809
    60  C    0.135696
    61  C    0.075254
    62  C    0.061569
    63  C    0.100333
    64  C   -0.095508
    65  C    0.085533
    66  C    0.093034
    67  H   -0.080714
    68  H   -0.038513
    69  H   -0.059255
    70  H   -0.005955
    71  H   -0.021483
    72  H   -0.011278
    73  H   -0.008503
    74  H   -0.021052
    75  H   -0.016384
    76  H    0.005995
    77  H   -0.010193
    78  H   -0.000068
    79  H   -0.032642
    80  H    0.013203
    81  H    0.015506
    82  H    0.009284
    83  H    0.002933
    84  H   -0.009071
    85  H   -0.020842
    86  H   -0.029696
    87  H   -0.008026
    88  H   -0.001395
    89  H   -0.010743
    90  H   -0.030853
    91  H   -0.036464
    92  H    0.001555
    93  H   -0.016023
    94  H   -0.000464
    95  H   -0.014637
    96  H    0.007597
    97  H   -0.002609
    98  H   -0.013525
    99  H    0.031593
   100  H    0.020860
   101  H    0.020308
   102  H    0.013161
   103  H   -0.007558
   104  H   -0.038036
   105  H   -0.016324
   106  H    0.016639
   107  H    0.013385
   108  H   -0.042535
   109  H   -0.015986
   110  H   -0.015088
   111  H   -0.036010
   112  H   -0.027725
   113  H   -0.014791
   114  H   -0.030852
   115  H   -0.026174
   116  H   -0.026183
   117  H   -0.004945
   118  H   -0.026248
   119  H   -0.035678
   120  H   -0.018237
   121  H   -0.031817
   122  H   -0.036683
   123  H   -0.046265
   124  H   -0.043363
   125  H   -0.021334
   126  H   -0.016791
   127  H   -0.022386
   128  H   -0.012371
   129  H   -0.036717
   130  H   -0.041707
   131  H   -0.025023
   132  H   -0.050150
   133  H   -0.023788
   134  H   -0.039245
   135  H   -0.015997
   136  H   -0.013801
   137  H   -0.004355
   138  H   -0.010182
   139  H   -0.023556
   140  H   -0.009294
 Sum of Mulliken charges =  -0.00000

 Dipole moment (field-independent basis, Debye):
    X=             -5.6022    Y=              5.2362    Z=              1.2478  Tot=              7.7691
 Quadrupole moment (field-independent basis, Debye-Ang):
   XX=           -369.3566   YY=           -434.1327   ZZ=           -402.3865
   XY=              1.3874   XZ=             11.9559   YZ=             -1.9904

 Normal termination of Gaussian 16 at Fri Apr 29 03:59:32 2022.
