 Gaussian 16, Revision A.03,
 Gaussian 16:  ES64L-G16RevA.03 25-Dec-2016

 -----------------------------------
 #p cam-b3lyp/Def2SVP td=(nstates=5)
 -----------------------------------

 --------------------------------------------------------
 step_1851_chromophore_19 TDDFT with cam-b3lyp functional
 --------------------------------------------------------
 Symbolic Z-matrix:
 Charge =  0 Multiplicity = 1

                         Standard orientation:
 ---------------------------------------------------------------------
 Center     Atomic      Atomic             Coordinates (Angstroms)
 Number     Number       Type             X           Y           Z
 ---------------------------------------------------------------------
      1         12           0        5.916272    0.438530    0.288643
      2          6           0        3.696740   -2.275013    0.283263
      3          6           0        3.262426    2.558874   -0.037127
      4          6           0        8.011940    2.827949   -0.315504
      5          6           0        8.530620   -1.928333    0.247658
      6          7           0        3.678467    0.111453   -0.142925
      7          6           0        2.998696   -1.030020    0.132701
      8          6           0        1.505185   -0.822571   -0.150395
      9          6           0        1.362735    0.747765   -0.078039
     10          6           0        2.850372    1.194147   -0.143590
     11          6           0        0.502413    1.428669   -1.124075
     12          6           0        0.607596   -1.673146    0.820886
     13          6           0       -0.865101   -1.163239    1.048402
     14          6           0       -1.983990   -1.729023    0.158226
     15          8           0       -1.865225   -2.656437   -0.581709
     16          8           0       -3.064500   -0.988914    0.374251
     17          7           0        5.688371    2.455065   -0.075411
     18          6           0        4.546863    3.154814   -0.151775
     19          6           0        4.812818    4.540439   -0.370370
     20          6           0        6.250252    4.631042   -0.414896
     21          6           0        6.713687    3.284657   -0.254505
     22          6           0        3.743887    5.645854   -0.448717
     23          6           0        7.120073    5.899660   -0.546373
     24          8           0        8.310516    5.852012   -0.386038
     25          6           0        6.463449    7.168756   -0.892138
     26          7           0        7.933761    0.445661   -0.116096
     27          6           0        8.576089    1.556881   -0.214277
     28          6           0       10.056650    1.421586   -0.409166
     29          6           0       10.258336   -0.094501    0.081137
     30          6           0        8.792784   -0.601997    0.152190
     31          6           0       10.608573    1.605621   -1.890145
     32          6           0       11.176341   -0.267615    1.350081
     33          6           0       10.570444   -0.393597    2.744698
     34          7           0        6.115836   -1.608379    0.430104
     35          6           0        7.288073   -2.403364    0.432301
     36          6           0        6.990365   -3.755764    0.634138
     37          6           0        5.563388   -3.770919    0.575421
     38          6           0        5.105479   -2.447823    0.441507
     39          6           0        7.927888   -4.926785    0.596477
     40          6           0        4.419518   -4.672544    0.448774
     41          8           0        4.321015   -5.905856    0.555041
     42          6           0        3.210579   -3.755300    0.253213
     43          6           0        2.636735   -4.139592   -1.059106
     44          8           0        3.226592   -4.094911   -2.121474
     45          8           0        1.346522   -4.466238   -0.886239
     46          6           0        0.508162   -4.867742   -2.039821
     47          6           0       -4.322391   -1.541753   -0.263954
     48          6           0       -5.495710   -1.100014    0.572558
     49          6           0       -6.475688   -0.179174    0.266088
     50          6           0       -6.464926    0.669646   -0.988214
     51          6           0       -7.665160   -0.067496    1.249722
     52          6           0       -8.349450    1.213301    1.781118
     53          6           0       -8.630116    1.183660    3.310764
     54          6           0      -10.093463    1.643880    3.528806
     55          6           0      -10.224693    2.061977    5.046047
     56          6           0      -11.136284    0.524898    3.100871
     57          6           0      -12.223617    1.148073    2.218940
     58          6           0      -13.228047    0.135486    1.771429
     59          6           0      -13.619198    0.301171    0.293228
     60          6           0      -14.830911   -0.515298   -0.142540
     61          6           0      -12.401178    0.050197   -0.667588
     62          6           0      -12.409472    1.041411   -1.845504
     63          6           0      -12.759159    0.329016   -3.217722
     64          6           0      -11.488624    0.151133   -4.094165
     65          6           0      -10.343883   -0.707603   -3.391866
     66          6           0      -10.896160    1.430528   -4.756054
     67          1           0        2.473530    3.311765    0.016841
     68          1           0        8.752875    3.619806   -0.185442
     69          1           0        9.331539   -2.669248    0.201752
     70          1           0        1.394359   -1.106399   -1.196838
     71          1           0        0.997405    1.116745    0.880655
     72          1           0       -0.095324    0.735504   -1.715916
     73          1           0        1.076583    2.059819   -1.803029
     74          1           0       -0.216241    2.108482   -0.664792
     75          1           0        1.118662   -2.033394    1.714263
     76          1           0        0.452690   -2.552021    0.195608
     77          1           0       -1.043467   -0.088063    1.054390
     78          1           0       -1.028758   -1.414027    2.096214
     79          1           0        2.726451    5.306067   -0.260161
     80          1           0        3.649814    5.946035   -1.492010
     81          1           0        3.956663    6.313657    0.385320
     82          1           0        5.935201    7.615437   -0.049996
     83          1           0        5.768745    7.017255   -1.718677
     84          1           0        7.270644    7.843293   -1.175343
     85          1           0       10.616390    2.105326    0.228167
     86          1           0       10.695985   -0.701281   -0.712166
     87          1           0       10.915398    0.675929   -2.368971
     88          1           0       11.408970    2.339879   -1.809598
     89          1           0        9.931750    2.017185   -2.638453
     90          1           0       11.910840    0.535473    1.397891
     91          1           0       11.840458   -1.116843    1.189080
     92          1           0        9.529924   -0.072925    2.698795
     93          1           0       11.019846    0.276543    3.477244
     94          1           0       10.772751   -1.421762    3.043248
     95          1           0        8.657442   -4.905424    1.406457
     96          1           0        8.456186   -5.130700   -0.334852
     97          1           0        7.388756   -5.855145    0.781761
     98          1           0        2.488802   -3.872257    1.061891
     99          1           0       -0.391606   -4.291313   -1.821070
    100          1           0        0.274383   -5.932004   -2.059333
    101          1           0        0.975654   -4.593321   -2.986218
    102          1           0       -4.328403   -2.631525   -0.281006
    103          1           0       -4.426336   -1.127554   -1.267404
    104          1           0       -5.703083   -1.635552    1.498420
    105          1           0       -7.389861    1.239644   -0.901486
    106          1           0       -6.537803    0.192980   -1.965796
    107          1           0       -5.613609    1.349732   -0.973344
    108          1           0       -7.409486   -0.592509    2.169657
    109          1           0       -8.568196   -0.635428    1.028785
    110          1           0       -9.210817    1.380019    1.133939
    111          1           0       -7.686552    2.055623    1.581719
    112          1           0       -7.937732    1.864830    3.806547
    113          1           0       -8.600337    0.192761    3.763645
    114          1           0      -10.380325    2.527300    2.958381
    115          1           0      -10.498113    1.160380    5.593474
    116          1           0      -11.144657    2.644499    5.107251
    117          1           0       -9.335466    2.554598    5.439028
    118          1           0      -11.531850    0.006923    3.975072
    119          1           0      -10.596028   -0.171543    2.460142
    120          1           0      -11.696666    1.640302    1.400873
    121          1           0      -12.810980    1.865503    2.792072
    122          1           0      -14.085681    0.190265    2.441780
    123          1           0      -12.767098   -0.851048    1.823817
    124          1           0      -13.847680    1.364861    0.236841
    125          1           0      -14.561156   -1.442226   -0.648700
    126          1           0      -15.363334    0.091808   -0.874986
    127          1           0      -15.481154   -0.795937    0.685010
    128          1           0      -12.399111   -0.983747   -1.012327
    129          1           0      -11.476890    0.207446   -0.110517
    130          1           0      -11.368484    1.355902   -1.920468
    131          1           0      -12.970422    1.974672   -1.801209
    132          1           0      -13.351918    1.067878   -3.757710
    133          1           0      -13.393748   -0.549258   -3.101288
    134          1           0      -11.821396   -0.466611   -4.928657
    135          1           0      -10.711608   -1.036296   -2.419873
    136          1           0       -9.516719   -0.005954   -3.280966
    137          1           0      -10.119019   -1.565136   -4.024462
    138          1           0      -11.621758    2.081174   -5.244841
    139          1           0      -10.308769    0.973614   -5.552126
    140          1           0      -10.122331    1.988115   -4.228177
 ---------------------------------------------------------------------

 SCF Done:  E(RCAM-B3LYP) =  -3007.18113164     A.U. after   19 cycles

 Excitation energies and oscillator strengths:

 Excited State   1:      Singlet-A      1.7356 eV  714.37 nm  f=0.3717  <S**2>=0.000
     245 -> 248        0.18815
     246 -> 247        0.68227
     245 <- 248        0.10859
 This state for optimization and/or second-order correction.
 Total Energy, E(TD-HF/TD-DFT) =  -3007.11735012
 Copying the excited state density for this state as the 1-particle RhoCI density.

 Excited State   2:      Singlet-A      2.1870 eV  566.91 nm  f=0.1334  <S**2>=0.000
     245 -> 247        0.64718
     246 -> 248       -0.26999

 Excited State   3:      Singlet-A      3.3600 eV  369.00 nm  f=0.0006  <S**2>=0.000
     242 -> 247       -0.11254
     243 -> 247       -0.15269
     244 -> 247        0.65486

 Excited State   4:      Singlet-A      3.4306 eV  361.41 nm  f=0.0022  <S**2>=0.000
     242 -> 247       -0.19112
     243 -> 247        0.54353
     243 -> 249        0.25093
     243 -> 252       -0.17299
     244 -> 247        0.14153

 Excited State   5:      Singlet-A      3.5274 eV  351.49 nm  f=0.2981  <S**2>=0.000
     240 -> 247        0.23714
     242 -> 247        0.37727
     245 -> 247        0.17252
     246 -> 248        0.50643

 The electronic state is 1-A.
 Alpha  occ. eigenvalues --  -46.87932 -19.25823 -19.23964 -19.20323 -19.19184
 Alpha  occ. eigenvalues --  -19.18036 -19.17539 -14.41494 -14.41421 -14.38751
 Alpha  occ. eigenvalues --  -14.38124 -10.39338 -10.37750 -10.35049 -10.33533
 Alpha  occ. eigenvalues --  -10.33163 -10.31139 -10.30896 -10.30300 -10.29783
 Alpha  occ. eigenvalues --  -10.29637 -10.29486 -10.29033 -10.28997 -10.28491
 Alpha  occ. eigenvalues --  -10.27924 -10.27843 -10.27710 -10.27702 -10.27700
 Alpha  occ. eigenvalues --  -10.27654 -10.27240 -10.27218 -10.27003 -10.26836
 Alpha  occ. eigenvalues --  -10.26818 -10.26789 -10.26740 -10.26692 -10.26547
 Alpha  occ. eigenvalues --  -10.26390 -10.26372 -10.26130 -10.26000 -10.25993
 Alpha  occ. eigenvalues --  -10.25952 -10.25841 -10.25787 -10.25699 -10.25537
 Alpha  occ. eigenvalues --  -10.25497 -10.25475 -10.25447 -10.25321 -10.25300
 Alpha  occ. eigenvalues --  -10.25135 -10.25101 -10.25058 -10.24975 -10.24838
 Alpha  occ. eigenvalues --  -10.24828 -10.24741 -10.24737 -10.24509 -10.24328
 Alpha  occ. eigenvalues --  -10.24103  -3.16614  -1.91490  -1.91092  -1.90909
 Alpha  occ. eigenvalues --   -1.18100  -1.15484  -1.11573  -1.09556  -1.07470
 Alpha  occ. eigenvalues --   -1.06525  -1.05259  -1.04316  -1.03404  -1.02497
 Alpha  occ. eigenvalues --   -0.91561  -0.90942  -0.90223  -0.88954  -0.88828
 Alpha  occ. eigenvalues --   -0.88406  -0.87654  -0.87636  -0.87217  -0.86828
 Alpha  occ. eigenvalues --   -0.86245  -0.85437  -0.84538  -0.83460  -0.83214
 Alpha  occ. eigenvalues --   -0.82432  -0.82280  -0.81478  -0.80801  -0.80509
 Alpha  occ. eigenvalues --   -0.80074  -0.78323  -0.77879  -0.76947  -0.76336
 Alpha  occ. eigenvalues --   -0.75615  -0.75598  -0.75328  -0.74805  -0.74793
 Alpha  occ. eigenvalues --   -0.73453  -0.72592  -0.71621  -0.70636  -0.69399
 Alpha  occ. eigenvalues --   -0.68453  -0.67878  -0.66963  -0.66653  -0.65847
 Alpha  occ. eigenvalues --   -0.65185  -0.64838  -0.64322  -0.64250  -0.63478
 Alpha  occ. eigenvalues --   -0.62845  -0.62590  -0.61582  -0.61054  -0.60696
 Alpha  occ. eigenvalues --   -0.60467  -0.59033  -0.58598  -0.58290  -0.57712
 Alpha  occ. eigenvalues --   -0.57509  -0.57179  -0.56849  -0.56084  -0.55959
 Alpha  occ. eigenvalues --   -0.55416  -0.55174  -0.54585  -0.54523  -0.54349
 Alpha  occ. eigenvalues --   -0.54001  -0.53935  -0.53640  -0.53508  -0.53358
 Alpha  occ. eigenvalues --   -0.52569  -0.52212  -0.51824  -0.51773  -0.51356
 Alpha  occ. eigenvalues --   -0.51265  -0.51128  -0.50977  -0.50777  -0.50650
 Alpha  occ. eigenvalues --   -0.50500  -0.50163  -0.50010  -0.49904  -0.49749
 Alpha  occ. eigenvalues --   -0.49597  -0.49263  -0.49226  -0.48796  -0.48547
 Alpha  occ. eigenvalues --   -0.48359  -0.48056  -0.47796  -0.47760  -0.47455
 Alpha  occ. eigenvalues --   -0.47420  -0.47126  -0.46954  -0.46629  -0.46439
 Alpha  occ. eigenvalues --   -0.46347  -0.46082  -0.45936  -0.45718  -0.45382
 Alpha  occ. eigenvalues --   -0.45225  -0.45065  -0.45007  -0.44904  -0.44863
 Alpha  occ. eigenvalues --   -0.44660  -0.44475  -0.44328  -0.44079  -0.43946
 Alpha  occ. eigenvalues --   -0.43419  -0.43343  -0.43089  -0.42991  -0.42891
 Alpha  occ. eigenvalues --   -0.42630  -0.42571  -0.42458  -0.42413  -0.42155
 Alpha  occ. eigenvalues --   -0.42094  -0.41513  -0.41320  -0.41228  -0.40864
 Alpha  occ. eigenvalues --   -0.40807  -0.40526  -0.40306  -0.40063  -0.40020
 Alpha  occ. eigenvalues --   -0.39935  -0.39587  -0.39534  -0.39241  -0.38929
 Alpha  occ. eigenvalues --   -0.38227  -0.38110  -0.37891  -0.37639  -0.37594
 Alpha  occ. eigenvalues --   -0.37375  -0.37316  -0.36700  -0.36312  -0.36150
 Alpha  occ. eigenvalues --   -0.35559  -0.35416  -0.35209  -0.35074  -0.34389
 Alpha  occ. eigenvalues --   -0.33716  -0.33360  -0.33095  -0.31382  -0.30681
 Alpha  occ. eigenvalues --   -0.30542  -0.30035  -0.29615  -0.28863  -0.23335
 Alpha  occ. eigenvalues --   -0.20917
 Alpha virt. eigenvalues --   -0.08265  -0.01209   0.00904   0.02592   0.02804
 Alpha virt. eigenvalues --    0.03274   0.05803   0.06321   0.06554   0.07125
 Alpha virt. eigenvalues --    0.07417   0.08254   0.08847   0.09147   0.09158

 Mulliken charges:
               1
     1  Mg   0.833222
     2  C   -0.006513
     3  C   -0.078819
     4  C   -0.084742
     5  C   -0.133503
     6  N   -0.252775
     7  C   -0.075821
     8  C    0.021415
     9  C   -0.073187
    10  C    0.040664
    11  C    0.068617
    12  C    0.051463
    13  C    0.015214
    14  C    0.151505
    15  O   -0.203882
    16  O   -0.317011
    17  N   -0.339989
    18  C    0.123345
    19  C   -0.172036
    20  C   -0.039399
    21  C    0.110386
    22  C    0.126902
    23  C   -0.006316
    24  O   -0.175877
    25  C    0.064115
    26  N   -0.284415
    27  C    0.044415
    28  C   -0.047302
    29  C   -0.012286
    30  C    0.079366
    31  C    0.062125
    32  C    0.011675
    33  C    0.020682
    34  N   -0.353955
    35  C    0.159111
    36  C   -0.149908
    37  C   -0.014364
    38  C    0.100727
    39  C    0.107369
    40  C    0.066106
    41  O   -0.196772
    42  C   -0.004808
    43  C    0.188679
    44  O   -0.216477
    45  O   -0.320866
    46  C    0.155662
    47  C    0.299975
    48  C   -0.116737
    49  C   -0.139279
    50  C    0.068420
    51  C    0.027635
    52  C    0.000114
    53  C    0.056765
    54  C   -0.161785
    55  C    0.060359
    56  C    0.033949
    57  C   -0.013987
    58  C    0.084560
    59  C   -0.129738
    60  C    0.076480
    61  C    0.022641
    62  C    0.005063
    63  C    0.048283
    64  C   -0.153140
    65  C    0.032123
    66  C    0.032974
    67  H   -0.046768
    68  H    0.000622
    69  H   -0.020725
    70  H    0.028040
    71  H    0.013436
    72  H    0.014291
    73  H    0.018982
    74  H    0.004080
    75  H    0.014607
    76  H    0.038185
    77  H    0.020704
    78  H    0.033340
    79  H   -0.001467
    80  H    0.040619
    81  H    0.040921
    82  H    0.038370
    83  H    0.030549
    84  H    0.027347
    85  H    0.013626
    86  H    0.005496
    87  H    0.016253
    88  H    0.021592
    89  H    0.015351
    90  H   -0.002671
    91  H   -0.007514
    92  H    0.021958
    93  H    0.008644
    94  H    0.021701
    95  H    0.010992
    96  H    0.032941
    97  H    0.026747
    98  H    0.030838
    99  H    0.051867
   100  H    0.041668
   101  H    0.046146
   102  H    0.044589
   103  H    0.021821
   104  H   -0.004005
   105  H    0.006610
   106  H    0.039735
   107  H    0.038595
   108  H   -0.012132
   109  H    0.009701
   110  H    0.007015
   111  H   -0.006004
   112  H    0.002706
   113  H    0.011908
   114  H    0.001043
   115  H   -0.003080
   116  H   -0.001377
   117  H    0.018680
   118  H    0.002270
   119  H   -0.011731
   120  H    0.005742
   121  H   -0.003440
   122  H   -0.006623
   123  H   -0.017329
   124  H   -0.011665
   125  H    0.001329
   126  H    0.007521
   127  H    0.003444
   128  H    0.012907
   129  H   -0.012797
   130  H   -0.013620
   131  H    0.004585
   132  H   -0.019641
   133  H    0.003249
   134  H   -0.006112
   135  H    0.004723
   136  H    0.005613
   137  H    0.020044
   138  H    0.014435
   139  H    0.001282
   140  H    0.012822
 Sum of Mulliken charges =  -0.00000

 Dipole moment (field-independent basis, Debye):
    X=             -5.7766    Y=              6.2153    Z=              1.1733  Tot=              8.5660
 Quadrupole moment (field-independent basis, Debye-Ang):
   XX=           -368.0414   YY=           -429.8460   ZZ=           -402.0361
   XY=              6.2553   XZ=             11.7548   YZ=             -2.7572

 Normal termination of Gaussian 16 at Fri Apr 29 03:01:08 2022.
