 Gaussian 16, Revision A.03,
 Gaussian 16:  ES64L-G16RevA.03 25-Dec-2016

 ---------------------------------
 #p PBE1PBE/Def2SVP td=(nstates=5)
 ---------------------------------

 ------------------------------------------------------
 step_1851_chromophore_19 TDDFT with PBE1PBE functional
 ------------------------------------------------------
 Symbolic Z-matrix:
 Charge =  0 Multiplicity = 1

                         Standard orientation:
 ---------------------------------------------------------------------
 Center     Atomic      Atomic             Coordinates (Angstroms)
 Number     Number       Type             X           Y           Z
 ---------------------------------------------------------------------
      1         12           0        5.916272    0.438530    0.288643
      2          6           0        3.696740   -2.275013    0.283263
      3          6           0        3.262426    2.558874   -0.037127
      4          6           0        8.011940    2.827949   -0.315504
      5          6           0        8.530620   -1.928333    0.247658
      6          7           0        3.678467    0.111453   -0.142925
      7          6           0        2.998696   -1.030020    0.132701
      8          6           0        1.505185   -0.822571   -0.150395
      9          6           0        1.362735    0.747765   -0.078039
     10          6           0        2.850372    1.194147   -0.143590
     11          6           0        0.502413    1.428669   -1.124075
     12          6           0        0.607596   -1.673146    0.820886
     13          6           0       -0.865101   -1.163239    1.048402
     14          6           0       -1.983990   -1.729023    0.158226
     15          8           0       -1.865225   -2.656437   -0.581709
     16          8           0       -3.064500   -0.988914    0.374251
     17          7           0        5.688371    2.455065   -0.075411
     18          6           0        4.546863    3.154814   -0.151775
     19          6           0        4.812818    4.540439   -0.370370
     20          6           0        6.250252    4.631042   -0.414896
     21          6           0        6.713687    3.284657   -0.254505
     22          6           0        3.743887    5.645854   -0.448717
     23          6           0        7.120073    5.899660   -0.546373
     24          8           0        8.310516    5.852012   -0.386038
     25          6           0        6.463449    7.168756   -0.892138
     26          7           0        7.933761    0.445661   -0.116096
     27          6           0        8.576089    1.556881   -0.214277
     28          6           0       10.056650    1.421586   -0.409166
     29          6           0       10.258336   -0.094501    0.081137
     30          6           0        8.792784   -0.601997    0.152190
     31          6           0       10.608573    1.605621   -1.890145
     32          6           0       11.176341   -0.267615    1.350081
     33          6           0       10.570444   -0.393597    2.744698
     34          7           0        6.115836   -1.608379    0.430104
     35          6           0        7.288073   -2.403364    0.432301
     36          6           0        6.990365   -3.755764    0.634138
     37          6           0        5.563388   -3.770919    0.575421
     38          6           0        5.105479   -2.447823    0.441507
     39          6           0        7.927888   -4.926785    0.596477
     40          6           0        4.419518   -4.672544    0.448774
     41          8           0        4.321015   -5.905856    0.555041
     42          6           0        3.210579   -3.755300    0.253213
     43          6           0        2.636735   -4.139592   -1.059106
     44          8           0        3.226592   -4.094911   -2.121474
     45          8           0        1.346522   -4.466238   -0.886239
     46          6           0        0.508162   -4.867742   -2.039821
     47          6           0       -4.322391   -1.541753   -0.263954
     48          6           0       -5.495710   -1.100014    0.572558
     49          6           0       -6.475688   -0.179174    0.266088
     50          6           0       -6.464926    0.669646   -0.988214
     51          6           0       -7.665160   -0.067496    1.249722
     52          6           0       -8.349450    1.213301    1.781118
     53          6           0       -8.630116    1.183660    3.310764
     54          6           0      -10.093463    1.643880    3.528806
     55          6           0      -10.224693    2.061977    5.046047
     56          6           0      -11.136284    0.524898    3.100871
     57          6           0      -12.223617    1.148073    2.218940
     58          6           0      -13.228047    0.135486    1.771429
     59          6           0      -13.619198    0.301171    0.293228
     60          6           0      -14.830911   -0.515298   -0.142540
     61          6           0      -12.401178    0.050197   -0.667588
     62          6           0      -12.409472    1.041411   -1.845504
     63          6           0      -12.759159    0.329016   -3.217722
     64          6           0      -11.488624    0.151133   -4.094165
     65          6           0      -10.343883   -0.707603   -3.391866
     66          6           0      -10.896160    1.430528   -4.756054
     67          1           0        2.473530    3.311765    0.016841
     68          1           0        8.752875    3.619806   -0.185442
     69          1           0        9.331539   -2.669248    0.201752
     70          1           0        1.394359   -1.106399   -1.196838
     71          1           0        0.997405    1.116745    0.880655
     72          1           0       -0.095324    0.735504   -1.715916
     73          1           0        1.076583    2.059819   -1.803029
     74          1           0       -0.216241    2.108482   -0.664792
     75          1           0        1.118662   -2.033394    1.714263
     76          1           0        0.452690   -2.552021    0.195608
     77          1           0       -1.043467   -0.088063    1.054390
     78          1           0       -1.028758   -1.414027    2.096214
     79          1           0        2.726451    5.306067   -0.260161
     80          1           0        3.649814    5.946035   -1.492010
     81          1           0        3.956663    6.313657    0.385320
     82          1           0        5.935201    7.615437   -0.049996
     83          1           0        5.768745    7.017255   -1.718677
     84          1           0        7.270644    7.843293   -1.175343
     85          1           0       10.616390    2.105326    0.228167
     86          1           0       10.695985   -0.701281   -0.712166
     87          1           0       10.915398    0.675929   -2.368971
     88          1           0       11.408970    2.339879   -1.809598
     89          1           0        9.931750    2.017185   -2.638453
     90          1           0       11.910840    0.535473    1.397891
     91          1           0       11.840458   -1.116843    1.189080
     92          1           0        9.529924   -0.072925    2.698795
     93          1           0       11.019846    0.276543    3.477244
     94          1           0       10.772751   -1.421762    3.043248
     95          1           0        8.657442   -4.905424    1.406457
     96          1           0        8.456186   -5.130700   -0.334852
     97          1           0        7.388756   -5.855145    0.781761
     98          1           0        2.488802   -3.872257    1.061891
     99          1           0       -0.391606   -4.291313   -1.821070
    100          1           0        0.274383   -5.932004   -2.059333
    101          1           0        0.975654   -4.593321   -2.986218
    102          1           0       -4.328403   -2.631525   -0.281006
    103          1           0       -4.426336   -1.127554   -1.267404
    104          1           0       -5.703083   -1.635552    1.498420
    105          1           0       -7.389861    1.239644   -0.901486
    106          1           0       -6.537803    0.192980   -1.965796
    107          1           0       -5.613609    1.349732   -0.973344
    108          1           0       -7.409486   -0.592509    2.169657
    109          1           0       -8.568196   -0.635428    1.028785
    110          1           0       -9.210817    1.380019    1.133939
    111          1           0       -7.686552    2.055623    1.581719
    112          1           0       -7.937732    1.864830    3.806547
    113          1           0       -8.600337    0.192761    3.763645
    114          1           0      -10.380325    2.527300    2.958381
    115          1           0      -10.498113    1.160380    5.593474
    116          1           0      -11.144657    2.644499    5.107251
    117          1           0       -9.335466    2.554598    5.439028
    118          1           0      -11.531850    0.006923    3.975072
    119          1           0      -10.596028   -0.171543    2.460142
    120          1           0      -11.696666    1.640302    1.400873
    121          1           0      -12.810980    1.865503    2.792072
    122          1           0      -14.085681    0.190265    2.441780
    123          1           0      -12.767098   -0.851048    1.823817
    124          1           0      -13.847680    1.364861    0.236841
    125          1           0      -14.561156   -1.442226   -0.648700
    126          1           0      -15.363334    0.091808   -0.874986
    127          1           0      -15.481154   -0.795937    0.685010
    128          1           0      -12.399111   -0.983747   -1.012327
    129          1           0      -11.476890    0.207446   -0.110517
    130          1           0      -11.368484    1.355902   -1.920468
    131          1           0      -12.970422    1.974672   -1.801209
    132          1           0      -13.351918    1.067878   -3.757710
    133          1           0      -13.393748   -0.549258   -3.101288
    134          1           0      -11.821396   -0.466611   -4.928657
    135          1           0      -10.711608   -1.036296   -2.419873
    136          1           0       -9.516719   -0.005954   -3.280966
    137          1           0      -10.119019   -1.565136   -4.024462
    138          1           0      -11.621758    2.081174   -5.244841
    139          1           0      -10.308769    0.973614   -5.552126
    140          1           0      -10.122331    1.988115   -4.228177
 ---------------------------------------------------------------------

 SCF Done:  E(RPBE1PBE) =  -3005.36962492     A.U. after   15 cycles

 Excitation energies and oscillator strengths:

 Excited State   1:      Singlet-A      1.8817 eV  658.88 nm  f=0.3571  <S**2>=0.000
     245 -> 248        0.18406
     246 -> 247        0.68790
     246 <- 247       -0.10092
 This state for optimization and/or second-order correction.
 Total Energy, E(TD-HF/TD-DFT) =  -3005.30047262
 Copying the excited state density for this state as the 1-particle RhoCI density.

 Excited State   2:      Singlet-A      2.1956 eV  564.69 nm  f=0.1280  <S**2>=0.000
     245 -> 247        0.65611
     246 -> 248       -0.24788

 Excited State   3:      Singlet-A      2.8718 eV  431.73 nm  f=0.0001  <S**2>=0.000
     243 -> 247        0.30957
     244 -> 247        0.60373
     244 -> 249        0.12921

 Excited State   4:      Singlet-A      3.0311 eV  409.04 nm  f=0.0033  <S**2>=0.000
     243 -> 247        0.60820
     244 -> 247       -0.32546

 Excited State   5:      Singlet-A      3.2598 eV  380.34 nm  f=0.0006  <S**2>=0.000
     239 -> 247       -0.12562
     240 -> 247        0.66398
     240 -> 249       -0.15330

 The electronic state is 1-A.
 Alpha  occ. eigenvalues --  -46.91320 -19.26493 -19.24676 -19.20583 -19.19231
 Alpha  occ. eigenvalues --  -19.18329 -19.17939 -14.41042 -14.40866 -14.38291
 Alpha  occ. eigenvalues --  -14.37877 -10.36329 -10.34802 -10.32013 -10.30817
 Alpha  occ. eigenvalues --  -10.30518 -10.28759 -10.28725 -10.27573 -10.27545
 Alpha  occ. eigenvalues --  -10.27334 -10.26941 -10.26709 -10.26464 -10.25986
 Alpha  occ. eigenvalues --  -10.25756 -10.25656 -10.25617 -10.25550 -10.25459
 Alpha  occ. eigenvalues --  -10.25026 -10.25026 -10.24910 -10.24794 -10.24580
 Alpha  occ. eigenvalues --  -10.24508 -10.24473 -10.24348 -10.24105 -10.24076
 Alpha  occ. eigenvalues --  -10.24069 -10.24068 -10.23748 -10.23724 -10.23582
 Alpha  occ. eigenvalues --  -10.23447 -10.23354 -10.23200 -10.23150 -10.23108
 Alpha  occ. eigenvalues --  -10.23081 -10.23063 -10.23021 -10.22899 -10.22860
 Alpha  occ. eigenvalues --  -10.22617 -10.22541 -10.22536 -10.22499 -10.22372
 Alpha  occ. eigenvalues --  -10.22295 -10.22252 -10.22173 -10.22037 -10.21882
 Alpha  occ. eigenvalues --  -10.21871  -3.13578  -1.86395  -1.85976  -1.85796
 Alpha  occ. eigenvalues --   -1.12914  -1.10311  -1.06169  -1.04430  -1.02328
 Alpha  occ. eigenvalues --   -1.01406  -0.99856  -0.98920  -0.98119  -0.97235
 Alpha  occ. eigenvalues --   -0.85993  -0.85034  -0.84341  -0.83200  -0.83047
 Alpha  occ. eigenvalues --   -0.82614  -0.81913  -0.81749  -0.81502  -0.81033
 Alpha  occ. eigenvalues --   -0.80607  -0.79655  -0.78753  -0.77732  -0.77466
 Alpha  occ. eigenvalues --   -0.76629  -0.76369  -0.75707  -0.75085  -0.74707
 Alpha  occ. eigenvalues --   -0.74390  -0.72518  -0.72206  -0.71302  -0.70524
 Alpha  occ. eigenvalues --   -0.69982  -0.69670  -0.69452  -0.69117  -0.68969
 Alpha  occ. eigenvalues --   -0.67750  -0.67069  -0.66029  -0.64990  -0.63758
 Alpha  occ. eigenvalues --   -0.62649  -0.62296  -0.61267  -0.61028  -0.60120
 Alpha  occ. eigenvalues --   -0.59648  -0.59329  -0.58859  -0.58373  -0.58059
 Alpha  occ. eigenvalues --   -0.57383  -0.56791  -0.55835  -0.55675  -0.55156
 Alpha  occ. eigenvalues --   -0.54828  -0.53664  -0.53176  -0.52731  -0.52248
 Alpha  occ. eigenvalues --   -0.51994  -0.51634  -0.51341  -0.50639  -0.50265
 Alpha  occ. eigenvalues --   -0.49919  -0.49719  -0.49103  -0.48999  -0.48871
 Alpha  occ. eigenvalues --   -0.48555  -0.48311  -0.48048  -0.47871  -0.47805
 Alpha  occ. eigenvalues --   -0.47201  -0.46665  -0.46382  -0.46264  -0.45939
 Alpha  occ. eigenvalues --   -0.45903  -0.45586  -0.45490  -0.45335  -0.45253
 Alpha  occ. eigenvalues --   -0.45022  -0.44702  -0.44533  -0.44487  -0.44341
 Alpha  occ. eigenvalues --   -0.44148  -0.43799  -0.43788  -0.43430  -0.43152
 Alpha  occ. eigenvalues --   -0.42997  -0.42676  -0.42483  -0.42416  -0.42163
 Alpha  occ. eigenvalues --   -0.42039  -0.41750  -0.41615  -0.41282  -0.41156
 Alpha  occ. eigenvalues --   -0.41038  -0.40821  -0.40694  -0.40347  -0.40075
 Alpha  occ. eigenvalues --   -0.39905  -0.39804  -0.39683  -0.39600  -0.39475
 Alpha  occ. eigenvalues --   -0.39267  -0.39209  -0.39153  -0.38837  -0.38806
 Alpha  occ. eigenvalues --   -0.38218  -0.38147  -0.37915  -0.37755  -0.37610
 Alpha  occ. eigenvalues --   -0.37348  -0.37285  -0.37249  -0.37127  -0.37011
 Alpha  occ. eigenvalues --   -0.36920  -0.36403  -0.36187  -0.36021  -0.35678
 Alpha  occ. eigenvalues --   -0.35578  -0.35308  -0.35069  -0.35015  -0.34864
 Alpha  occ. eigenvalues --   -0.34829  -0.34485  -0.34390  -0.34170  -0.33714
 Alpha  occ. eigenvalues --   -0.33097  -0.32977  -0.32846  -0.32582  -0.32435
 Alpha  occ. eigenvalues --   -0.32303  -0.32188  -0.31799  -0.31225  -0.31093
 Alpha  occ. eigenvalues --   -0.30607  -0.30339  -0.30227  -0.29914  -0.29339
 Alpha  occ. eigenvalues --   -0.28976  -0.28846  -0.27967  -0.26263  -0.26000
 Alpha  occ. eigenvalues --   -0.25896  -0.25562  -0.24718  -0.24545  -0.20302
 Alpha  occ. eigenvalues --   -0.18514
 Alpha virt. eigenvalues --   -0.10733  -0.04713  -0.03283  -0.01610  -0.01218
 Alpha virt. eigenvalues --   -0.00098   0.01460   0.02029   0.02519   0.03185
 Alpha virt. eigenvalues --    0.03330   0.04584   0.05127   0.05521   0.05828

 Mulliken charges:
               1
     1  Mg   0.980056
     2  C   -0.009572
     3  C   -0.069794
     4  C   -0.065354
     5  C   -0.105674
     6  N   -0.350712
     7  C   -0.002859
     8  C   -0.048497
     9  C   -0.155032
    10  C    0.081823
    11  C    0.014202
    12  C   -0.007237
    13  C   -0.055503
    14  C    0.220085
    15  O   -0.240935
    16  O   -0.347146
    17  N   -0.463893
    18  C    0.144672
    19  C   -0.199462
    20  C   -0.085956
    21  C    0.136688
    22  C    0.064872
    23  C    0.049648
    24  O   -0.215831
    25  C   -0.009071
    26  N   -0.395412
    27  C    0.077600
    28  C   -0.122579
    29  C   -0.082849
    30  C    0.108818
    31  C    0.008828
    32  C   -0.046052
    33  C   -0.055146
    34  N   -0.485280
    35  C    0.156413
    36  C   -0.147339
    37  C   -0.067594
    38  C    0.159883
    39  C    0.051593
    40  C    0.155140
    41  O   -0.241675
    42  C   -0.118323
    43  C    0.286224
    44  O   -0.252778
    45  O   -0.356259
    46  C    0.100728
    47  C    0.251942
    48  C   -0.132774
    49  C   -0.178037
    50  C    0.004551
    51  C   -0.032846
    52  C   -0.066190
    53  C   -0.001608
    54  C   -0.246140
    55  C   -0.000968
    56  C   -0.019637
    57  C   -0.082091
    58  C    0.030499
    59  C   -0.215598
    60  C    0.019092
    61  C   -0.040069
    62  C   -0.053265
    63  C   -0.010747
    64  C   -0.243521
    65  C   -0.033144
    66  C   -0.028794
    67  H   -0.012103
    68  H    0.031027
    69  H    0.009187
    70  H    0.065416
    71  H    0.050933
    72  H    0.041926
    73  H    0.046697
    74  H    0.030856
    75  H    0.045657
    76  H    0.079465
    77  H    0.052728
    78  H    0.066005
    79  H    0.025234
    80  H    0.067086
    81  H    0.067851
    82  H    0.064657
    83  H    0.057234
    84  H    0.054326
    85  H    0.049165
    86  H    0.042942
    87  H    0.042070
    88  H    0.048309
    89  H    0.043062
    90  H    0.030317
    91  H    0.024746
    92  H    0.053059
    93  H    0.037063
    94  H    0.048357
    95  H    0.039536
    96  H    0.060204
    97  H    0.055209
    98  H    0.068580
    99  H    0.076345
   100  H    0.063490
   101  H    0.066571
   102  H    0.070595
   103  H    0.048578
   104  H    0.025691
   105  H    0.035889
   106  H    0.065776
   107  H    0.065927
   108  H    0.020761
   109  H    0.044149
   110  H    0.041764
   111  H    0.028859
   112  H    0.035218
   113  H    0.043404
   114  H    0.039247
   115  H    0.025390
   116  H    0.027832
   117  H    0.045450
   118  H    0.033810
   119  H    0.024835
   120  H    0.038617
   121  H    0.031267
   122  H    0.025722
   123  H    0.017004
   124  H    0.027644
   125  H    0.027900
   126  H    0.035712
   127  H    0.030713
   128  H    0.042938
   129  H    0.024932
   130  H    0.020741
   131  H    0.034594
   132  H    0.015429
   133  H    0.034947
   134  H    0.032945
   135  H    0.036677
   136  H    0.033339
   137  H    0.047577
   138  H    0.041642
   139  H    0.030596
   140  H    0.038568
 Sum of Mulliken charges =  -0.00000

 Dipole moment (field-independent basis, Debye):
    X=             -5.7433    Y=              5.8644    Z=              1.2113  Tot=              8.2972
 Quadrupole moment (field-independent basis, Debye-Ang):
   XX=           -361.0962   YY=           -427.5445   ZZ=           -399.3060
   XY=              3.2301   XZ=             11.8914   YZ=             -2.7006

 Normal termination of Gaussian 16 at Fri Apr 29 03:22:14 2022.
