 Gaussian 16, Revision A.03,
 Gaussian 16:  ES64L-G16RevA.03 25-Dec-2016

 --------------------------------
 #p wB97XD/Def2SVP td=(nstates=5)
 --------------------------------

 -----------------------------------------------------
 step_1851_chromophore_19 TDDFT with wB97XD functional
 -----------------------------------------------------
 Symbolic Z-matrix:
 Charge =  0 Multiplicity = 1

                         Standard orientation:
 ---------------------------------------------------------------------
 Center     Atomic      Atomic             Coordinates (Angstroms)
 Number     Number       Type             X           Y           Z
 ---------------------------------------------------------------------
      1         12           0        5.916272    0.438530    0.288643
      2          6           0        3.696740   -2.275013    0.283263
      3          6           0        3.262426    2.558874   -0.037127
      4          6           0        8.011940    2.827949   -0.315504
      5          6           0        8.530620   -1.928333    0.247658
      6          7           0        3.678467    0.111453   -0.142925
      7          6           0        2.998696   -1.030020    0.132701
      8          6           0        1.505185   -0.822571   -0.150395
      9          6           0        1.362735    0.747765   -0.078039
     10          6           0        2.850372    1.194147   -0.143590
     11          6           0        0.502413    1.428669   -1.124075
     12          6           0        0.607596   -1.673146    0.820886
     13          6           0       -0.865101   -1.163239    1.048402
     14          6           0       -1.983990   -1.729023    0.158226
     15          8           0       -1.865225   -2.656437   -0.581709
     16          8           0       -3.064500   -0.988914    0.374251
     17          7           0        5.688371    2.455065   -0.075411
     18          6           0        4.546863    3.154814   -0.151775
     19          6           0        4.812818    4.540439   -0.370370
     20          6           0        6.250252    4.631042   -0.414896
     21          6           0        6.713687    3.284657   -0.254505
     22          6           0        3.743887    5.645854   -0.448717
     23          6           0        7.120073    5.899660   -0.546373
     24          8           0        8.310516    5.852012   -0.386038
     25          6           0        6.463449    7.168756   -0.892138
     26          7           0        7.933761    0.445661   -0.116096
     27          6           0        8.576089    1.556881   -0.214277
     28          6           0       10.056650    1.421586   -0.409166
     29          6           0       10.258336   -0.094501    0.081137
     30          6           0        8.792784   -0.601997    0.152190
     31          6           0       10.608573    1.605621   -1.890145
     32          6           0       11.176341   -0.267615    1.350081
     33          6           0       10.570444   -0.393597    2.744698
     34          7           0        6.115836   -1.608379    0.430104
     35          6           0        7.288073   -2.403364    0.432301
     36          6           0        6.990365   -3.755764    0.634138
     37          6           0        5.563388   -3.770919    0.575421
     38          6           0        5.105479   -2.447823    0.441507
     39          6           0        7.927888   -4.926785    0.596477
     40          6           0        4.419518   -4.672544    0.448774
     41          8           0        4.321015   -5.905856    0.555041
     42          6           0        3.210579   -3.755300    0.253213
     43          6           0        2.636735   -4.139592   -1.059106
     44          8           0        3.226592   -4.094911   -2.121474
     45          8           0        1.346522   -4.466238   -0.886239
     46          6           0        0.508162   -4.867742   -2.039821
     47          6           0       -4.322391   -1.541753   -0.263954
     48          6           0       -5.495710   -1.100014    0.572558
     49          6           0       -6.475688   -0.179174    0.266088
     50          6           0       -6.464926    0.669646   -0.988214
     51          6           0       -7.665160   -0.067496    1.249722
     52          6           0       -8.349450    1.213301    1.781118
     53          6           0       -8.630116    1.183660    3.310764
     54          6           0      -10.093463    1.643880    3.528806
     55          6           0      -10.224693    2.061977    5.046047
     56          6           0      -11.136284    0.524898    3.100871
     57          6           0      -12.223617    1.148073    2.218940
     58          6           0      -13.228047    0.135486    1.771429
     59          6           0      -13.619198    0.301171    0.293228
     60          6           0      -14.830911   -0.515298   -0.142540
     61          6           0      -12.401178    0.050197   -0.667588
     62          6           0      -12.409472    1.041411   -1.845504
     63          6           0      -12.759159    0.329016   -3.217722
     64          6           0      -11.488624    0.151133   -4.094165
     65          6           0      -10.343883   -0.707603   -3.391866
     66          6           0      -10.896160    1.430528   -4.756054
     67          1           0        2.473530    3.311765    0.016841
     68          1           0        8.752875    3.619806   -0.185442
     69          1           0        9.331539   -2.669248    0.201752
     70          1           0        1.394359   -1.106399   -1.196838
     71          1           0        0.997405    1.116745    0.880655
     72          1           0       -0.095324    0.735504   -1.715916
     73          1           0        1.076583    2.059819   -1.803029
     74          1           0       -0.216241    2.108482   -0.664792
     75          1           0        1.118662   -2.033394    1.714263
     76          1           0        0.452690   -2.552021    0.195608
     77          1           0       -1.043467   -0.088063    1.054390
     78          1           0       -1.028758   -1.414027    2.096214
     79          1           0        2.726451    5.306067   -0.260161
     80          1           0        3.649814    5.946035   -1.492010
     81          1           0        3.956663    6.313657    0.385320
     82          1           0        5.935201    7.615437   -0.049996
     83          1           0        5.768745    7.017255   -1.718677
     84          1           0        7.270644    7.843293   -1.175343
     85          1           0       10.616390    2.105326    0.228167
     86          1           0       10.695985   -0.701281   -0.712166
     87          1           0       10.915398    0.675929   -2.368971
     88          1           0       11.408970    2.339879   -1.809598
     89          1           0        9.931750    2.017185   -2.638453
     90          1           0       11.910840    0.535473    1.397891
     91          1           0       11.840458   -1.116843    1.189080
     92          1           0        9.529924   -0.072925    2.698795
     93          1           0       11.019846    0.276543    3.477244
     94          1           0       10.772751   -1.421762    3.043248
     95          1           0        8.657442   -4.905424    1.406457
     96          1           0        8.456186   -5.130700   -0.334852
     97          1           0        7.388756   -5.855145    0.781761
     98          1           0        2.488802   -3.872257    1.061891
     99          1           0       -0.391606   -4.291313   -1.821070
    100          1           0        0.274383   -5.932004   -2.059333
    101          1           0        0.975654   -4.593321   -2.986218
    102          1           0       -4.328403   -2.631525   -0.281006
    103          1           0       -4.426336   -1.127554   -1.267404
    104          1           0       -5.703083   -1.635552    1.498420
    105          1           0       -7.389861    1.239644   -0.901486
    106          1           0       -6.537803    0.192980   -1.965796
    107          1           0       -5.613609    1.349732   -0.973344
    108          1           0       -7.409486   -0.592509    2.169657
    109          1           0       -8.568196   -0.635428    1.028785
    110          1           0       -9.210817    1.380019    1.133939
    111          1           0       -7.686552    2.055623    1.581719
    112          1           0       -7.937732    1.864830    3.806547
    113          1           0       -8.600337    0.192761    3.763645
    114          1           0      -10.380325    2.527300    2.958381
    115          1           0      -10.498113    1.160380    5.593474
    116          1           0      -11.144657    2.644499    5.107251
    117          1           0       -9.335466    2.554598    5.439028
    118          1           0      -11.531850    0.006923    3.975072
    119          1           0      -10.596028   -0.171543    2.460142
    120          1           0      -11.696666    1.640302    1.400873
    121          1           0      -12.810980    1.865503    2.792072
    122          1           0      -14.085681    0.190265    2.441780
    123          1           0      -12.767098   -0.851048    1.823817
    124          1           0      -13.847680    1.364861    0.236841
    125          1           0      -14.561156   -1.442226   -0.648700
    126          1           0      -15.363334    0.091808   -0.874986
    127          1           0      -15.481154   -0.795937    0.685010
    128          1           0      -12.399111   -0.983747   -1.012327
    129          1           0      -11.476890    0.207446   -0.110517
    130          1           0      -11.368484    1.355902   -1.920468
    131          1           0      -12.970422    1.974672   -1.801209
    132          1           0      -13.351918    1.067878   -3.757710
    133          1           0      -13.393748   -0.549258   -3.101288
    134          1           0      -11.821396   -0.466611   -4.928657
    135          1           0      -10.711608   -1.036296   -2.419873
    136          1           0       -9.516719   -0.005954   -3.280966
    137          1           0      -10.119019   -1.565136   -4.024462
    138          1           0      -11.621758    2.081174   -5.244841
    139          1           0      -10.308769    0.973614   -5.552126
    140          1           0      -10.122331    1.988115   -4.228177
 ---------------------------------------------------------------------

 SCF Done:  E(RwB97XD) =  -3007.88124002     A.U. after   20 cycles

 Excitation energies and oscillator strengths:

 Excited State   1:      Singlet-A      1.6833 eV  736.57 nm  f=0.3702  <S**2>=0.000
     245 -> 248        0.19297
     246 -> 247        0.68018
     245 <- 248        0.11749
 This state for optimization and/or second-order correction.
 Total Energy, E(TD-HF/TD-DFT) =  -3007.81938137
 Copying the excited state density for this state as the 1-particle RhoCI density.

 Excited State   2:      Singlet-A      2.1326 eV  581.37 nm  f=0.1301  <S**2>=0.000
     245 -> 247        0.64490
     246 -> 248       -0.27246

 Excited State   3:      Singlet-A      3.3863 eV  366.14 nm  f=0.0004  <S**2>=0.000
     242 -> 247       -0.17870
     244 -> 247        0.65122

 Excited State   4:      Singlet-A      3.4729 eV  357.00 nm  f=0.0099  <S**2>=0.000
     243 -> 247        0.55769
     243 -> 249        0.28859
     243 -> 251       -0.21252
     246 -> 248        0.11508

 Excited State   5:      Singlet-A      3.5379 eV  350.44 nm  f=0.2960  <S**2>=0.000
     240 -> 247        0.23129
     242 -> 247        0.38240
     245 -> 247        0.16862
     246 -> 248        0.49948

 The electronic state is 1-A.
 Alpha  occ. eigenvalues --  -46.94288 -19.31057 -19.29175 -19.25233 -19.24225
 Alpha  occ. eigenvalues --  -19.22969 -19.22573 -14.46069 -14.46000 -14.43359
 Alpha  occ. eigenvalues --  -14.42701 -10.43106 -10.41566 -10.39023 -10.37535
 Alpha  occ. eigenvalues --  -10.37067 -10.35215 -10.34914 -10.34039 -10.33780
 Alpha  occ. eigenvalues --  -10.33600 -10.33558 -10.33075 -10.33045 -10.32697
 Alpha  occ. eigenvalues --  -10.31984 -10.31843 -10.31787 -10.31749 -10.31693
 Alpha  occ. eigenvalues --  -10.31585 -10.31265 -10.31183 -10.31050 -10.30986
 Alpha  occ. eigenvalues --  -10.30888 -10.30815 -10.30814 -10.30524 -10.30497
 Alpha  occ. eigenvalues --  -10.30404 -10.30339 -10.30091 -10.30001 -10.29950
 Alpha  occ. eigenvalues --  -10.29834 -10.29798 -10.29648 -10.29603 -10.29449
 Alpha  occ. eigenvalues --  -10.29430 -10.29428 -10.29402 -10.29254 -10.29183
 Alpha  occ. eigenvalues --  -10.28976 -10.28966 -10.28918 -10.28887 -10.28809
 Alpha  occ. eigenvalues --  -10.28755 -10.28616 -10.28592 -10.28326 -10.28243
 Alpha  occ. eigenvalues --  -10.28107  -3.20391  -1.93958  -1.93542  -1.93360
 Alpha  occ. eigenvalues --   -1.20274  -1.17645  -1.13812  -1.11742  -1.09664
 Alpha  occ. eigenvalues --   -1.08707  -1.07281  -1.06377  -1.05403  -1.04515
 Alpha  occ. eigenvalues --   -0.93507  -0.92712  -0.92021  -0.90789  -0.90712
 Alpha  occ. eigenvalues --   -0.90249  -0.89573  -0.89419  -0.89084  -0.88781
 Alpha  occ. eigenvalues --   -0.88173  -0.87298  -0.86399  -0.85354  -0.85085
 Alpha  occ. eigenvalues --   -0.84321  -0.84185  -0.83356  -0.82690  -0.82363
 Alpha  occ. eigenvalues --   -0.82022  -0.80300  -0.79781  -0.78863  -0.78193
 Alpha  occ. eigenvalues --   -0.77548  -0.77380  -0.77139  -0.76704  -0.76639
 Alpha  occ. eigenvalues --   -0.75368  -0.74559  -0.73582  -0.72584  -0.71297
 Alpha  occ. eigenvalues --   -0.70304  -0.69875  -0.68854  -0.68648  -0.67733
 Alpha  occ. eigenvalues --   -0.67122  -0.66796  -0.66312  -0.66072  -0.65457
 Alpha  occ. eigenvalues --   -0.64821  -0.64434  -0.63437  -0.63019  -0.62725
 Alpha  occ. eigenvalues --   -0.62368  -0.61016  -0.60546  -0.60187  -0.59678
 Alpha  occ. eigenvalues --   -0.59438  -0.59140  -0.58787  -0.58051  -0.57814
 Alpha  occ. eigenvalues --   -0.57375  -0.57105  -0.56496  -0.56413  -0.56270
 Alpha  occ. eigenvalues --   -0.55914  -0.55798  -0.55578  -0.55408  -0.55249
 Alpha  occ. eigenvalues --   -0.54530  -0.54070  -0.53706  -0.53640  -0.53257
 Alpha  occ. eigenvalues --   -0.53213  -0.53100  -0.52894  -0.52653  -0.52562
 Alpha  occ. eigenvalues --   -0.52381  -0.52104  -0.51885  -0.51818  -0.51684
 Alpha  occ. eigenvalues --   -0.51518  -0.51181  -0.51120  -0.50702  -0.50455
 Alpha  occ. eigenvalues --   -0.50280  -0.49981  -0.49733  -0.49644  -0.49390
 Alpha  occ. eigenvalues --   -0.49335  -0.49052  -0.48860  -0.48505  -0.48359
 Alpha  occ. eigenvalues --   -0.48239  -0.47989  -0.47876  -0.47565  -0.47262
 Alpha  occ. eigenvalues --   -0.47107  -0.46965  -0.46867  -0.46777  -0.46717
 Alpha  occ. eigenvalues --   -0.46499  -0.46417  -0.46251  -0.45976  -0.45873
 Alpha  occ. eigenvalues --   -0.45338  -0.45276  -0.45045  -0.44885  -0.44827
 Alpha  occ. eigenvalues --   -0.44608  -0.44473  -0.44382  -0.44267  -0.44073
 Alpha  occ. eigenvalues --   -0.44010  -0.43420  -0.43240  -0.43089  -0.42802
 Alpha  occ. eigenvalues --   -0.42694  -0.42401  -0.42177  -0.42016  -0.41891
 Alpha  occ. eigenvalues --   -0.41856  -0.41432  -0.41408  -0.41119  -0.40790
 Alpha  occ. eigenvalues --   -0.40145  -0.40017  -0.39822  -0.39554  -0.39437
 Alpha  occ. eigenvalues --   -0.39292  -0.39213  -0.38748  -0.38163  -0.38011
 Alpha  occ. eigenvalues --   -0.37488  -0.37250  -0.37219  -0.36984  -0.36220
 Alpha  occ. eigenvalues --   -0.35717  -0.35576  -0.35034  -0.33346  -0.32904
 Alpha  occ. eigenvalues --   -0.32583  -0.32237  -0.31580  -0.31001  -0.25259
 Alpha  occ. eigenvalues --   -0.22732
 Alpha virt. eigenvalues --   -0.06614   0.00718   0.03005   0.05014   0.05296
 Alpha virt. eigenvalues --    0.05770   0.08244   0.08881   0.09374   0.09800
 Alpha virt. eigenvalues --    0.09953   0.11257   0.11791   0.12257   0.12537

 Mulliken charges:
               1
     1  Mg   0.971028
     2  C   -0.018028
     3  C   -0.088780
     4  C   -0.086346
     5  C   -0.129033
     6  N   -0.318934
     7  C   -0.032306
     8  C   -0.027696
     9  C   -0.128601
    10  C    0.070921
    11  C    0.021838
    12  C    0.018160
    13  C   -0.041163
    14  C    0.210391
    15  O   -0.237959
    16  O   -0.346792
    17  N   -0.429095
    18  C    0.139848
    19  C   -0.189701
    20  C   -0.081080
    21  C    0.132593
    22  C    0.077609
    23  C    0.045711
    24  O   -0.209077
    25  C    0.000763
    26  N   -0.357136
    27  C    0.064170
    28  C   -0.099553
    29  C   -0.055631
    30  C    0.092762
    31  C    0.017066
    32  C   -0.035255
    33  C   -0.035205
    34  N   -0.446521
    35  C    0.157762
    36  C   -0.150526
    37  C   -0.063890
    38  C    0.140344
    39  C    0.059945
    40  C    0.138193
    41  O   -0.232932
    42  C   -0.074603
    43  C    0.258665
    44  O   -0.247537
    45  O   -0.352594
    46  C    0.119424
    47  C    0.267750
    48  C   -0.138487
    49  C   -0.169211
    50  C    0.016952
    51  C   -0.008418
    52  C   -0.047759
    53  C    0.015681
    54  C   -0.215826
    55  C    0.013267
    56  C   -0.002846
    57  C   -0.059106
    58  C    0.045199
    59  C   -0.182261
    60  C    0.028495
    61  C   -0.018692
    62  C   -0.036568
    63  C    0.004075
    64  C   -0.213477
    65  C   -0.017853
    66  C   -0.017680
    67  H   -0.022317
    68  H    0.026394
    69  H    0.005874
    70  H    0.055653
    71  H    0.039861
    72  H    0.036918
    73  H    0.040519
    74  H    0.025924
    75  H    0.038962
    76  H    0.056107
    77  H    0.044064
    78  H    0.060921
    79  H    0.022750
    80  H    0.063444
    81  H    0.062763
    82  H    0.060878
    83  H    0.051293
    84  H    0.053773
    85  H    0.040124
    86  H    0.031012
    87  H    0.036914
    88  H    0.043228
    89  H    0.037163
    90  H    0.021626
    91  H    0.017736
    92  H    0.042009
    93  H    0.031776
    94  H    0.042942
    95  H    0.033719
    96  H    0.055360
    97  H    0.051586
    98  H    0.060685
    99  H    0.069834
   100  H    0.059454
   101  H    0.062932
   102  H    0.066995
   103  H    0.044098
   104  H    0.022743
   105  H    0.028616
   106  H    0.061505
   107  H    0.061248
   108  H    0.008343
   109  H    0.033836
   110  H    0.027665
   111  H    0.020456
   112  H    0.028171
   113  H    0.033044
   114  H    0.025840
   115  H    0.017268
   116  H    0.021293
   117  H    0.040339
   118  H    0.026176
   119  H    0.006577
   120  H    0.022577
   121  H    0.022543
   122  H    0.019161
   123  H    0.005548
   124  H    0.013180
   125  H    0.021329
   126  H    0.029772
   127  H    0.025961
   128  H    0.031548
   129  H    0.008608
   130  H    0.007875
   131  H    0.028599
   132  H    0.005966
   133  H    0.026754
   134  H    0.022444
   135  H    0.025888
   136  H    0.026163
   137  H    0.043184
   138  H    0.036868
   139  H    0.023128
   140  H    0.032356
 Sum of Mulliken charges =  -0.00000

 Dipole moment (field-independent basis, Debye):
    X=             -5.8257    Y=              6.4101    Z=              1.1678  Tot=              8.7402
 Quadrupole moment (field-independent basis, Debye-Ang):
   XX=           -362.6770   YY=           -425.4850   ZZ=           -398.8783
   XY=              6.6804   XZ=             11.6163   YZ=             -2.8900

 Normal termination of Gaussian 16 at Fri Apr 29 03:45:33 2022.
