 Gaussian 16, Revision A.03,
 Gaussian 16:  ES64L-G16RevA.03 25-Dec-2016

 --------------------
 #p ZINDO=(nstates=5)
 --------------------

 ------------------------------
 step_1851_chromophore_19 ZINDO
 ------------------------------
 Symbolic Z-matrix:
 Charge =  0 Multiplicity = 1

                         Standard orientation:
 ---------------------------------------------------------------------
 Center     Atomic      Atomic             Coordinates (Angstroms)
 Number     Number       Type             X           Y           Z
 ---------------------------------------------------------------------
      1         12           0        5.916272    0.438530    0.288643
      2          6           0        3.696740   -2.275013    0.283263
      3          6           0        3.262426    2.558874   -0.037127
      4          6           0        8.011940    2.827949   -0.315504
      5          6           0        8.530620   -1.928333    0.247658
      6          7           0        3.678467    0.111453   -0.142925
      7          6           0        2.998696   -1.030020    0.132701
      8          6           0        1.505185   -0.822571   -0.150395
      9          6           0        1.362735    0.747765   -0.078039
     10          6           0        2.850372    1.194147   -0.143590
     11          6           0        0.502413    1.428669   -1.124075
     12          6           0        0.607596   -1.673146    0.820886
     13          6           0       -0.865101   -1.163239    1.048402
     14          6           0       -1.983990   -1.729023    0.158226
     15          8           0       -1.865225   -2.656437   -0.581709
     16          8           0       -3.064500   -0.988914    0.374251
     17          7           0        5.688371    2.455065   -0.075411
     18          6           0        4.546863    3.154814   -0.151775
     19          6           0        4.812818    4.540439   -0.370370
     20          6           0        6.250252    4.631042   -0.414896
     21          6           0        6.713687    3.284657   -0.254505
     22          6           0        3.743887    5.645854   -0.448717
     23          6           0        7.120073    5.899660   -0.546373
     24          8           0        8.310516    5.852012   -0.386038
     25          6           0        6.463449    7.168756   -0.892138
     26          7           0        7.933761    0.445661   -0.116096
     27          6           0        8.576089    1.556881   -0.214277
     28          6           0       10.056650    1.421586   -0.409166
     29          6           0       10.258336   -0.094501    0.081137
     30          6           0        8.792784   -0.601997    0.152190
     31          6           0       10.608573    1.605621   -1.890145
     32          6           0       11.176341   -0.267615    1.350081
     33          6           0       10.570444   -0.393597    2.744698
     34          7           0        6.115836   -1.608379    0.430104
     35          6           0        7.288073   -2.403364    0.432301
     36          6           0        6.990365   -3.755764    0.634138
     37          6           0        5.563388   -3.770919    0.575421
     38          6           0        5.105479   -2.447823    0.441507
     39          6           0        7.927888   -4.926785    0.596477
     40          6           0        4.419518   -4.672544    0.448774
     41          8           0        4.321015   -5.905856    0.555041
     42          6           0        3.210579   -3.755300    0.253213
     43          6           0        2.636735   -4.139592   -1.059106
     44          8           0        3.226592   -4.094911   -2.121474
     45          8           0        1.346522   -4.466238   -0.886239
     46          6           0        0.508162   -4.867742   -2.039821
     47          6           0       -4.322391   -1.541753   -0.263954
     48          6           0       -5.495710   -1.100014    0.572558
     49          6           0       -6.475688   -0.179174    0.266088
     50          6           0       -6.464926    0.669646   -0.988214
     51          6           0       -7.665160   -0.067496    1.249722
     52          6           0       -8.349450    1.213301    1.781118
     53          6           0       -8.630116    1.183660    3.310764
     54          6           0      -10.093463    1.643880    3.528806
     55          6           0      -10.224693    2.061977    5.046047
     56          6           0      -11.136284    0.524898    3.100871
     57          6           0      -12.223617    1.148073    2.218940
     58          6           0      -13.228047    0.135486    1.771429
     59          6           0      -13.619198    0.301171    0.293228
     60          6           0      -14.830911   -0.515298   -0.142540
     61          6           0      -12.401178    0.050197   -0.667588
     62          6           0      -12.409472    1.041411   -1.845504
     63          6           0      -12.759159    0.329016   -3.217722
     64          6           0      -11.488624    0.151133   -4.094165
     65          6           0      -10.343883   -0.707603   -3.391866
     66          6           0      -10.896160    1.430528   -4.756054
     67          1           0        2.473530    3.311765    0.016841
     68          1           0        8.752875    3.619806   -0.185442
     69          1           0        9.331539   -2.669248    0.201752
     70          1           0        1.394359   -1.106399   -1.196838
     71          1           0        0.997405    1.116745    0.880655
     72          1           0       -0.095324    0.735504   -1.715916
     73          1           0        1.076583    2.059819   -1.803029
     74          1           0       -0.216241    2.108482   -0.664792
     75          1           0        1.118662   -2.033394    1.714263
     76          1           0        0.452690   -2.552021    0.195608
     77          1           0       -1.043467   -0.088063    1.054390
     78          1           0       -1.028758   -1.414027    2.096214
     79          1           0        2.726451    5.306067   -0.260161
     80          1           0        3.649814    5.946035   -1.492010
     81          1           0        3.956663    6.313657    0.385320
     82          1           0        5.935201    7.615437   -0.049996
     83          1           0        5.768745    7.017255   -1.718677
     84          1           0        7.270644    7.843293   -1.175343
     85          1           0       10.616390    2.105326    0.228167
     86          1           0       10.695985   -0.701281   -0.712166
     87          1           0       10.915398    0.675929   -2.368971
     88          1           0       11.408970    2.339879   -1.809598
     89          1           0        9.931750    2.017185   -2.638453
     90          1           0       11.910840    0.535473    1.397891
     91          1           0       11.840458   -1.116843    1.189080
     92          1           0        9.529924   -0.072925    2.698795
     93          1           0       11.019846    0.276543    3.477244
     94          1           0       10.772751   -1.421762    3.043248
     95          1           0        8.657442   -4.905424    1.406457
     96          1           0        8.456186   -5.130700   -0.334852
     97          1           0        7.388756   -5.855145    0.781761
     98          1           0        2.488802   -3.872257    1.061891
     99          1           0       -0.391606   -4.291313   -1.821070
    100          1           0        0.274383   -5.932004   -2.059333
    101          1           0        0.975654   -4.593321   -2.986218
    102          1           0       -4.328403   -2.631525   -0.281006
    103          1           0       -4.426336   -1.127554   -1.267404
    104          1           0       -5.703083   -1.635552    1.498420
    105          1           0       -7.389861    1.239644   -0.901486
    106          1           0       -6.537803    0.192980   -1.965796
    107          1           0       -5.613609    1.349732   -0.973344
    108          1           0       -7.409486   -0.592509    2.169657
    109          1           0       -8.568196   -0.635428    1.028785
    110          1           0       -9.210817    1.380019    1.133939
    111          1           0       -7.686552    2.055623    1.581719
    112          1           0       -7.937732    1.864830    3.806547
    113          1           0       -8.600337    0.192761    3.763645
    114          1           0      -10.380325    2.527300    2.958381
    115          1           0      -10.498113    1.160380    5.593474
    116          1           0      -11.144657    2.644499    5.107251
    117          1           0       -9.335466    2.554598    5.439028
    118          1           0      -11.531850    0.006923    3.975072
    119          1           0      -10.596028   -0.171543    2.460142
    120          1           0      -11.696666    1.640302    1.400873
    121          1           0      -12.810980    1.865503    2.792072
    122          1           0      -14.085681    0.190265    2.441780
    123          1           0      -12.767098   -0.851048    1.823817
    124          1           0      -13.847680    1.364861    0.236841
    125          1           0      -14.561156   -1.442226   -0.648700
    126          1           0      -15.363334    0.091808   -0.874986
    127          1           0      -15.481154   -0.795937    0.685010
    128          1           0      -12.399111   -0.983747   -1.012327
    129          1           0      -11.476890    0.207446   -0.110517
    130          1           0      -11.368484    1.355902   -1.920468
    131          1           0      -12.970422    1.974672   -1.801209
    132          1           0      -13.351918    1.067878   -3.757710
    133          1           0      -13.393748   -0.549258   -3.101288
    134          1           0      -11.821396   -0.466611   -4.928657
    135          1           0      -10.711608   -1.036296   -2.419873
    136          1           0       -9.516719   -0.005954   -3.280966
    137          1           0      -10.119019   -1.565136   -4.024462
    138          1           0      -11.621758    2.081174   -5.244841
    139          1           0      -10.308769    0.973614   -5.552126
    140          1           0      -10.122331    1.988115   -4.228177
 ---------------------------------------------------------------------

 SCF Done:  E(RZINDO/S) =  -474.552208329     A.U. after   20 cycles

 Excitation energies and oscillator strengths:

 Excited State   1:      Singlet-A      1.2610 eV  983.22 nm  f=0.5636  <S**2>=0.000
     175 ->178         0.19674
     176 ->177         0.66119
 This state for optimization and/or second-order correction.
 Total Energy, E(CIS/TDA) =  -474.505867533
 Copying the excited state density for this state as the 1-particle RhoCI density.

 Excited State   2:      Singlet-A      1.8609 eV  666.27 nm  f=0.0849  <S**2>=0.000
     175 ->177         0.57566
     176 ->178        -0.37756

 Excited State   3:      Singlet-A      2.9769 eV  416.48 nm  f=0.7356  <S**2>=0.000
     174 ->177        -0.13415
     175 ->177         0.30797
     176 ->178         0.52893
     176 ->179         0.21834
     176 ->180        -0.11414

 Excited State   4:      Singlet-A      2.9968 eV  413.72 nm  f=0.0009  <S**2>=0.000
     170 ->177         0.33094
     170 ->178         0.15283
     170 ->179         0.31948
     170 ->180        -0.32074
     170 ->186         0.19354
     170 ->187         0.17551
     174 ->177         0.13149

 Excited State   5:      Singlet-A      3.0304 eV  409.14 nm  f=0.0015  <S**2>=0.000
     167 ->179        -0.11386
     168 ->177         0.27126
     168 ->179        -0.33281
     168 ->180        -0.29082
     168 ->186        -0.20230
     169 ->177         0.17091
     169 ->179        -0.18062
     169 ->180        -0.16354
     169 ->186        -0.10527

 The electronic state is 1-A.
 Alpha  occ. eigenvalues --   -1.85680  -1.84643  -1.80812  -1.74761  -1.72247
 Alpha  occ. eigenvalues --   -1.71651  -1.67503  -1.61561  -1.60968  -1.57405
 Alpha  occ. eigenvalues --   -1.54856  -1.51771  -1.47896  -1.46602  -1.46222
 Alpha  occ. eigenvalues --   -1.43916  -1.43322  -1.40256  -1.39277  -1.38492
 Alpha  occ. eigenvalues --   -1.35579  -1.33809  -1.33003  -1.31674  -1.29727
 Alpha  occ. eigenvalues --   -1.28491  -1.25813  -1.23472  -1.22071  -1.18362
 Alpha  occ. eigenvalues --   -1.17434  -1.15940  -1.15466  -1.14038  -1.13658
 Alpha  occ. eigenvalues --   -1.12636  -1.11706  -1.11225  -1.06392  -1.03828
 Alpha  occ. eigenvalues --   -1.02955  -1.01729  -0.99150  -0.97972  -0.97899
 Alpha  occ. eigenvalues --   -0.96481  -0.95252  -0.94100  -0.93076  -0.91884
 Alpha  occ. eigenvalues --   -0.89923  -0.89219  -0.87836  -0.86022  -0.85108
 Alpha  occ. eigenvalues --   -0.83901  -0.82549  -0.81291  -0.81025  -0.80297
 Alpha  occ. eigenvalues --   -0.79655  -0.79171  -0.78806  -0.77678  -0.77023
 Alpha  occ. eigenvalues --   -0.76086  -0.75815  -0.74972  -0.74698  -0.74629
 Alpha  occ. eigenvalues --   -0.73986  -0.73445  -0.72244  -0.71793  -0.71429
 Alpha  occ. eigenvalues --   -0.70297  -0.69424  -0.68922  -0.68781  -0.68319
 Alpha  occ. eigenvalues --   -0.68002  -0.67267  -0.66802  -0.65471  -0.65271
 Alpha  occ. eigenvalues --   -0.64936  -0.64371  -0.63871  -0.63617  -0.63127
 Alpha  occ. eigenvalues --   -0.62887  -0.62777  -0.62111  -0.61719  -0.61540
 Alpha  occ. eigenvalues --   -0.61335  -0.60792  -0.60699  -0.60377  -0.59504
 Alpha  occ. eigenvalues --   -0.59272  -0.59200  -0.58861  -0.58033  -0.57985
 Alpha  occ. eigenvalues --   -0.57562  -0.57034  -0.56797  -0.56340  -0.56261
 Alpha  occ. eigenvalues --   -0.55861  -0.55659  -0.55304  -0.55177  -0.55090
 Alpha  occ. eigenvalues --   -0.54600  -0.53912  -0.53568  -0.53214  -0.53105
 Alpha  occ. eigenvalues --   -0.52476  -0.51979  -0.51835  -0.51814  -0.51336
 Alpha  occ. eigenvalues --   -0.51113  -0.50970  -0.50630  -0.50324  -0.49899
 Alpha  occ. eigenvalues --   -0.49736  -0.49641  -0.49288  -0.49085  -0.48828
 Alpha  occ. eigenvalues --   -0.48725  -0.48555  -0.48425  -0.47934  -0.47825
 Alpha  occ. eigenvalues --   -0.47783  -0.47456  -0.47231  -0.46855  -0.46510
 Alpha  occ. eigenvalues --   -0.46239  -0.46001  -0.45556  -0.45315  -0.45299
 Alpha  occ. eigenvalues --   -0.44910  -0.44564  -0.44099  -0.43989  -0.43815
 Alpha  occ. eigenvalues --   -0.43482  -0.43118  -0.43049  -0.42892  -0.41955
 Alpha  occ. eigenvalues --   -0.41942  -0.41296  -0.40113  -0.39332  -0.39009
 Alpha  occ. eigenvalues --   -0.37241  -0.36570  -0.35773  -0.35158  -0.33836
 Alpha  occ. eigenvalues --   -0.33475  -0.32910  -0.31827  -0.31776  -0.26053
 Alpha  occ. eigenvalues --   -0.21810
 Alpha virt. eigenvalues --   -0.08371  -0.01801  -0.00107   0.01791   0.02132
 Alpha virt. eigenvalues --    0.02389   0.03183   0.03513   0.04069   0.05026
 Alpha virt. eigenvalues --    0.06445   0.07170   0.07625   0.08074   0.08521

 Mulliken charges:
               1
     1  Mg   0.426847
     2  C   -0.061213
     3  C   -0.101152
     4  C   -0.075399
     5  C   -0.032888
     6  N   -0.285353
     7  C    0.109932
     8  C    0.009960
     9  C    0.006304
    10  C    0.145608
    11  C   -0.047768
    12  C   -0.039068
    13  C   -0.008498
    14  C    0.478948
    15  O   -0.512106
    16  O   -0.262445
    17  N   -0.320830
    18  C    0.134222
    19  C   -0.002967
    20  C   -0.050621
    21  C    0.150799
    22  C   -0.048653
    23  C    0.335843
    24  O   -0.508751
    25  C   -0.028489
    26  N   -0.242430
    27  C    0.177545
    28  C    0.000394
    29  C   -0.014721
    30  C    0.084901
    31  C   -0.052608
    32  C   -0.031143
    33  C   -0.054565
    34  N   -0.331425
    35  C    0.082321
    36  C    0.023963
    37  C   -0.065145
    38  C    0.133022
    39  C   -0.037152
    40  C    0.334169
    41  O   -0.538146
    42  C    0.059738
    43  C    0.502327
    44  O   -0.531249
    45  O   -0.270553
    46  C    0.070291
    47  C    0.107635
    48  C   -0.090749
    49  C   -0.001598
    50  C   -0.043056
    51  C   -0.038572
    52  C   -0.032153
    53  C   -0.028021
    54  C   -0.029026
    55  C   -0.069324
    56  C   -0.038189
    57  C   -0.033287
    58  C   -0.033158
    59  C   -0.014011
    60  C   -0.055115
    61  C   -0.030715
    62  C   -0.042089
    63  C   -0.038026
    64  C   -0.011709
    65  C   -0.065516
    66  C   -0.058303
    67  H    0.018752
    68  H    0.036381
    69  H    0.034245
    70  H    0.051028
    71  H    0.030495
    72  H    0.023026
    73  H    0.023270
    74  H    0.011860
    75  H    0.038620
    76  H    0.033294
    77  H    0.037299
    78  H    0.037462
    79  H    0.017274
    80  H    0.042122
    81  H    0.040546
    82  H    0.043092
    83  H    0.033715
    84  H    0.035677
    85  H    0.034799
    86  H    0.026516
    87  H    0.026694
    88  H    0.021712
    89  H    0.022925
    90  H    0.013165
    91  H    0.012162
    92  H    0.025961
    93  H    0.016943
    94  H    0.026186
    95  H    0.021702
    96  H    0.035284
    97  H    0.024971
    98  H    0.047613
    99  H    0.042293
   100  H    0.044114
   101  H    0.051225
   102  H    0.058506
   103  H    0.046767
   104  H    0.030805
   105  H    0.013643
   106  H    0.034617
   107  H    0.032016
   108  H    0.010842
   109  H    0.026588
   110  H    0.022992
   111  H    0.010222
   112  H    0.021830
   113  H    0.028578
   114  H    0.021184
   115  H    0.016760
   116  H    0.012673
   117  H    0.029991
   118  H    0.026744
   119  H    0.017804
   120  H    0.025113
   121  H    0.015574
   122  H    0.019035
   123  H    0.012262
   124  H    0.014636
   125  H    0.017868
   126  H    0.016009
   127  H    0.018697
   128  H    0.026303
   129  H    0.014674
   130  H    0.009368
   131  H    0.028843
   132  H    0.004464
   133  H    0.029607
   134  H    0.007513
   135  H    0.024248
   136  H    0.023616
   137  H    0.024463
   138  H    0.023225
   139  H    0.006269
   140  H    0.026414
 Sum of Mulliken charges =  -0.00000

 Dipole moment (field-independent basis, Debye):
    X=             -5.8967    Y=              9.4564    Z=              2.2588  Tot=             11.3709
 N-N= 4.286561188506D+03 E-N= 0.000000000000D+00  KE=-9.247887365080D+03
 Leave Link  601 at Fri Apr 29 03:59:39 2022, MaxMem=  6710886400 cpu:               0.8 elap:               0.1
 (Enter /sw/apps/gaussian-16.0/g16/l9999.exe)
 1\1\GINC-BP1-COMPUTE102\SP\RZINDO CIS\STO-3G\C55H74Mg1N4O6\OF15641\29-
 Apr-2022\0\\#p ZINDO=(nstates=5)\\step_1851_chromophore_19 ZINDO\\0,1\
 Mg,0,25.413,50.6,26.733\C,0,23.201,51.521,29.292\C,0,27.695,49.671,29.
 094\C,0,27.617,50.35,24.378\C,0,23.077,51.959,24.467\N,0,25.52,50.87,2
 9.017\C,0,24.443,51.038,29.825\C,0,24.892,51.03,31.292\C,0,26.274,50.2
 71,31.218\C,0,26.563,50.308,29.691\C,0,27.424,50.814,32.043\C,0,23.787
 ,50.425,32.233\C,0,24.278,49.832,33.607\C,0,24.271,50.744,34.845\O,0,2

 Normal termination of Gaussian 16 at Fri Apr 29 03:59:39 2022.
