 Gaussian 16, Revision A.03,
 Gaussian 16:  ES64L-G16RevA.03 25-Dec-2016

 ------------------------------
 #p blyp/Def2SVP td=(nstates=5)
 ------------------------------

 -------------------------------------------------
 step_451_chromophore_9 TDDFT with blyp functional
 -------------------------------------------------
 Symbolic Z-matrix:
 Charge =  0 Multiplicity = 1

                         Standard orientation:
 ---------------------------------------------------------------------
 Center     Atomic      Atomic             Coordinates (Angstroms)
 Number     Number       Type             X           Y           Z
 ---------------------------------------------------------------------
      1         12           0       -4.817522    0.841400   -0.109754
      2          6           0       -4.195198   -2.587240   -0.099158
      3          6           0       -1.425861    1.524591   -0.258684
      4          6           0       -5.591155    4.021081   -0.039609
      5          6           0       -8.205936    0.005793    0.540006
      6          7           0       -3.022848   -0.395426    0.131467
      7          6           0       -3.009315   -1.762217   -0.054461
      8          6           0       -1.547203   -2.198588   -0.169160
      9          6           0       -0.825613   -0.919248    0.477755
     10          6           0       -1.762680    0.206606    0.041674
     11          6           0       -0.560437   -1.049375    2.065160
     12          6           0       -1.113966   -2.558007   -1.613447
     13          6           0        0.314523   -2.928289   -1.771258
     14          6           0        1.263186   -3.216360   -0.596937
     15          8           0        1.166890   -4.218736    0.158453
     16          8           0        2.152382   -2.186453   -0.442564
     17          7           0       -3.654362    2.558275   -0.195482
     18          6           0       -2.284616    2.616670   -0.207319
     19          6           0       -1.908767    3.940456   -0.535696
     20          6           0       -3.098042    4.734309   -0.524911
     21          6           0       -4.218748    3.774378   -0.230754
     22          6           0       -0.492248    4.325939   -0.669810
     23          6           0       -3.228508    6.199731   -0.737245
     24          8           0       -4.339956    6.717094   -0.626646
     25          6           0       -1.984206    7.055112   -0.992627
     26          7           0       -6.679788    1.918408    0.227134
     27          6           0       -6.689053    3.277772    0.301367
     28          6           0       -8.125111    3.794781    0.669207
     29          6           0       -8.970277    2.466380    0.651670
     30          6           0       -7.918085    1.390016    0.418744
     31          6           0       -8.102213    4.552588    1.977648
     32          6           0      -10.151259    2.427215   -0.312561
     33          6           0       -9.886953    1.960561   -1.806649
     34          7           0       -6.025491   -0.920662    0.129835
     35          6           0       -7.391341   -1.079651    0.350659
     36          6           0       -7.724799   -2.485976    0.330933
     37          6           0       -6.501563   -3.177421    0.170054
     38          6           0       -5.502985   -2.125254    0.002365
     39          6           0       -9.000641   -3.055122    0.708036
     40          6           0       -5.798689   -4.429829    0.090814
     41          8           0       -6.133363   -5.589894    0.056708
     42          6           0       -4.251189   -4.110684   -0.065668
     43          6           0       -3.493325   -4.686298    1.067616
     44          8           0       -3.583726   -4.308106    2.248780
     45          8           0       -2.607401   -5.651172    0.669279
     46          6           0       -1.497329   -5.973476    1.594770
     47          6           0        3.214246   -2.433936    0.565963
     48          6           0        4.468526   -2.049789   -0.037123
     49          6           0        5.351289   -2.760322   -0.768024
     50          6           0        5.145980   -4.227878   -1.140358
     51          6           0        6.609387   -2.117120   -1.311301
     52          6           0        6.450175   -1.567638   -2.741297
     53          6           0        7.787070   -1.597611   -3.606094
     54          6           0        8.443786   -0.181376   -3.832845
     55          6           0        8.511190    0.166184   -5.347449
     56          6           0        9.750275    0.095270   -3.040424
     57          6           0        9.972257    1.592319   -2.570842
     58          6           0       11.036120    1.657301   -1.479635
     59          6           0       10.426916    2.103609   -0.209406
     60          6           0        9.698921    3.500903   -0.287312
     61          6           0       11.357835    2.083153    1.022122
     62          6           0       11.003131    1.132194    2.154964
     63          6           0       11.279151    1.782762    3.481470
     64          6           0       10.903826    0.822400    4.584389
     65          6           0        9.494472    1.136296    5.098740
     66          6           0       11.908963    1.010233    5.805530
     67          1           0       -0.340435    1.579181   -0.361995
     68          1           0       -5.824245    5.087764   -0.017899
     69          1           0       -9.264185   -0.193226    0.721903
     70          1           0       -1.456962   -3.161122    0.333702
     71          1           0        0.155852   -0.785888    0.025083
     72          1           0       -0.135037   -2.047843    2.166598
     73          1           0       -1.491021   -1.022755    2.632215
     74          1           0        0.178665   -0.326352    2.411680
     75          1           0       -1.244653   -1.626838   -2.164904
     76          1           0       -1.788352   -3.294974   -2.049446
     77          1           0        0.804372   -2.105612   -2.292346
     78          1           0        0.443040   -3.691542   -2.538341
     79          1           0       -0.293899    5.180695   -0.022461
     80          1           0       -0.297487    4.605664   -1.704691
     81          1           0        0.241316    3.591772   -0.335395
     82          1           0       -1.374154    7.060415   -0.089662
     83          1           0       -2.389381    8.059412   -1.115651
     84          1           0       -1.397358    6.795919   -1.874261
     85          1           0       -8.363090    4.476423   -0.146647
     86          1           0       -9.387297    2.278289    1.640791
     87          1           0       -7.152229    4.758132    2.471170
     88          1           0       -8.874959    4.190989    2.656499
     89          1           0       -8.369265    5.571213    1.696048
     90          1           0      -10.685731    3.352234   -0.528535
     91          1           0      -10.950464    1.838384    0.137234
     92          1           0      -10.534807    2.481847   -2.511452
     93          1           0      -10.168304    0.911104   -1.892942
     94          1           0       -8.828983    1.963538   -2.070961
     95          1           0       -9.793920   -2.623643    0.098855
     96          1           0       -9.170569   -2.968565    1.780785
     97          1           0       -8.858985   -4.108461    0.466392
     98          1           0       -3.885672   -4.555562   -0.991650
     99          1           0       -1.663958   -6.898548    2.146987
    100          1           0       -1.145574   -5.110981    2.160434
    101          1           0       -0.738513   -6.214605    0.849820
    102          1           0        3.225332   -3.462245    0.928386
    103          1           0        3.129260   -1.901609    1.513797
    104          1           0        4.760481   -1.000031   -0.049636
    105          1           0        5.815946   -4.850669   -0.547332
    106          1           0        5.061851   -4.437248   -2.206365
    107          1           0        4.139527   -4.502088   -0.823785
    108          1           0        7.431208   -2.829667   -1.247060
    109          1           0        6.806119   -1.255678   -0.673528
    110          1           0        6.067762   -0.577817   -2.493338
    111          1           0        5.723145   -2.010937   -3.421209
    112          1           0        7.709479   -2.206969   -4.506645
    113          1           0        8.493718   -2.138070   -2.976190
    114          1           0        7.632129    0.399358   -3.394632
    115          1           0        9.485052    0.562177   -5.634276
    116          1           0        7.672683    0.785492   -5.668630
    117          1           0        8.431405   -0.730069   -5.963577
    118          1           0       10.630400   -0.093551   -3.654247
    119          1           0        9.808505   -0.549481   -2.163987
    120          1           0        8.951367    1.960388   -2.469793
    121          1           0       10.436018    2.060500   -3.438827
    122          1           0       11.773704    2.412176   -1.753291
    123          1           0       11.502071    0.683091   -1.336566
    124          1           0        9.630930    1.365746   -0.102202
    125          1           0        8.795800    3.485604   -0.898306
    126          1           0       10.432133    4.165692   -0.743533
    127          1           0        9.460696    3.895900    0.700264
    128          1           0       11.447339    3.093154    1.422363
    129          1           0       12.356792    1.798593    0.693490
    130          1           0       11.609245    0.232641    2.047042
    131          1           0        9.990930    0.736153    2.067159
    132          1           0       10.944627    2.816588    3.565763
    133          1           0       12.357776    1.934258    3.463985
    134          1           0       10.993691   -0.227839    4.309789
    135          1           0        8.831812    0.339368    4.762598
    136          1           0        9.107668    2.088199    4.732915
    137          1           0        9.513292    1.063833    6.185988
    138          1           0       12.560558    0.137114    5.853128
    139          1           0       11.410960    1.080744    6.773216
    140          1           0       12.560436    1.840539    5.532862
 ---------------------------------------------------------------------

 SCF Done:  E(RB-LYP) =  -3007.37865476     A.U. after   21 cycles

 Excitation energies and oscillator strengths:

 Excited State   1:      Singlet-A      1.7782 eV  697.23 nm  f=0.2892  <S**2>=0.000
     245 -> 248        0.19283
     246 -> 247        0.68950
     246 <- 247       -0.14598
 This state for optimization and/or second-order correction.
 Total Energy, E(TD-HF/TD-DFT) =  -3007.31330537
 Copying the excited state density for this state as the 1-particle RhoCI density.

 Excited State   2:      Singlet-A      1.8982 eV  653.16 nm  f=0.0008  <S**2>=0.000
     244 -> 247        0.70229

 Excited State   3:      Singlet-A      1.9530 eV  634.83 nm  f=0.0331  <S**2>=0.000
     243 -> 247        0.48419
     245 -> 247        0.47644
     246 -> 248       -0.16066

 Excited State   4:      Singlet-A      2.0186 eV  614.22 nm  f=0.0295  <S**2>=0.000
     243 -> 247        0.51208
     245 -> 247       -0.43546
     246 -> 248        0.19215

 Excited State   5:      Singlet-A      2.4141 eV  513.58 nm  f=0.0004  <S**2>=0.000
     241 -> 247        0.62159
     242 -> 247       -0.32756

 The electronic state is 1-A.
 Alpha  occ. eigenvalues --  -46.27131 -18.84172 -18.81101 -18.78091 -18.75590
 Alpha  occ. eigenvalues --  -18.75188 -18.75020 -14.02923 -14.02800 -14.00865
 Alpha  occ. eigenvalues --  -14.00614 -10.05692 -10.02826  -9.99541  -9.99277
 Alpha  occ. eigenvalues --   -9.98359  -9.97037  -9.96599  -9.96540  -9.96151
 Alpha  occ. eigenvalues --   -9.95900  -9.95831  -9.95208  -9.94878  -9.94465
 Alpha  occ. eigenvalues --   -9.94149  -9.93971  -9.93968  -9.93918  -9.93888
 Alpha  occ. eigenvalues --   -9.93867  -9.93759  -9.93665  -9.93558  -9.93177
 Alpha  occ. eigenvalues --   -9.93044  -9.92991  -9.92832  -9.92744  -9.92725
 Alpha  occ. eigenvalues --   -9.92608  -9.92603  -9.92602  -9.92433  -9.92390
 Alpha  occ. eigenvalues --   -9.92158  -9.92025  -9.91923  -9.91920  -9.91899
 Alpha  occ. eigenvalues --   -9.91812  -9.91803  -9.91762  -9.91616  -9.91574
 Alpha  occ. eigenvalues --   -9.91549  -9.91517  -9.91335  -9.91268  -9.91200
 Alpha  occ. eigenvalues --   -9.91078  -9.90873  -9.90859  -9.90642  -9.90633
 Alpha  occ. eigenvalues --   -9.90579  -2.91638  -1.72085  -1.71495  -1.71361
 Alpha  occ. eigenvalues --   -0.98557  -0.96088  -0.91956  -0.90751  -0.89855
 Alpha  occ. eigenvalues --   -0.87545  -0.86414  -0.85844  -0.85346  -0.84316
 Alpha  occ. eigenvalues --   -0.74938  -0.74548  -0.73962  -0.73195  -0.72563
 Alpha  occ. eigenvalues --   -0.72489  -0.71779  -0.71403  -0.71255  -0.70790
 Alpha  occ. eigenvalues --   -0.69959  -0.69241  -0.68009  -0.67549  -0.67411
 Alpha  occ. eigenvalues --   -0.66708  -0.65864  -0.65410  -0.64934  -0.64388
 Alpha  occ. eigenvalues --   -0.64234  -0.62660  -0.62336  -0.61827  -0.61121
 Alpha  occ. eigenvalues --   -0.60479  -0.60101  -0.59886  -0.59793  -0.59210
 Alpha  occ. eigenvalues --   -0.58673  -0.57663  -0.56971  -0.56195  -0.55275
 Alpha  occ. eigenvalues --   -0.54552  -0.54108  -0.52884  -0.52659  -0.51622
 Alpha  occ. eigenvalues --   -0.51501  -0.50964  -0.50745  -0.50117  -0.50042
 Alpha  occ. eigenvalues --   -0.49990  -0.49695  -0.48659  -0.47629  -0.46881
 Alpha  occ. eigenvalues --   -0.46414  -0.45907  -0.45841  -0.44934  -0.43982
 Alpha  occ. eigenvalues --   -0.43684  -0.43621  -0.43247  -0.42840  -0.42806
 Alpha  occ. eigenvalues --   -0.42615  -0.42032  -0.41871  -0.41558  -0.41521
 Alpha  occ. eigenvalues --   -0.41320  -0.40855  -0.40404  -0.40353  -0.40185
 Alpha  occ. eigenvalues --   -0.39972  -0.39799  -0.39592  -0.39439  -0.39334
 Alpha  occ. eigenvalues --   -0.39065  -0.39014  -0.38901  -0.38660  -0.38543
 Alpha  occ. eigenvalues --   -0.38422  -0.37998  -0.37865  -0.37481  -0.37094
 Alpha  occ. eigenvalues --   -0.37064  -0.36908  -0.36824  -0.36543  -0.36450
 Alpha  occ. eigenvalues --   -0.36248  -0.36100  -0.35810  -0.35757  -0.35454
 Alpha  occ. eigenvalues --   -0.35405  -0.35215  -0.34985  -0.34695  -0.34552
 Alpha  occ. eigenvalues --   -0.34537  -0.34475  -0.34309  -0.34226  -0.34108
 Alpha  occ. eigenvalues --   -0.33883  -0.33527  -0.33481  -0.33344  -0.33093
 Alpha  occ. eigenvalues --   -0.32809  -0.32562  -0.32413  -0.32316  -0.32173
 Alpha  occ. eigenvalues --   -0.31874  -0.31645  -0.31639  -0.31614  -0.31307
 Alpha  occ. eigenvalues --   -0.31263  -0.31064  -0.30949  -0.30800  -0.30618
 Alpha  occ. eigenvalues --   -0.30541  -0.30513  -0.30289  -0.30160  -0.30073
 Alpha  occ. eigenvalues --   -0.29764  -0.29589  -0.29162  -0.29046  -0.28820
 Alpha  occ. eigenvalues --   -0.28729  -0.28525  -0.28227  -0.28154  -0.28057
 Alpha  occ. eigenvalues --   -0.27785  -0.27141  -0.27110  -0.26726  -0.26538
 Alpha  occ. eigenvalues --   -0.26462  -0.26289  -0.25935  -0.25725  -0.25595
 Alpha  occ. eigenvalues --   -0.25015  -0.24806  -0.24036  -0.23845  -0.23745
 Alpha  occ. eigenvalues --   -0.23120  -0.22827  -0.21611  -0.21344  -0.20841
 Alpha  occ. eigenvalues --   -0.20348  -0.20096  -0.18636  -0.18376  -0.17189
 Alpha  occ. eigenvalues --   -0.15726
 Alpha virt. eigenvalues --   -0.11474  -0.06995  -0.06077  -0.04913  -0.04453
 Alpha virt. eigenvalues --   -0.03626  -0.02415  -0.02016  -0.01646   0.00615
 Alpha virt. eigenvalues --    0.01377   0.01659   0.01866   0.02244   0.02804

 Mulliken charges:
               1
     1  Mg   0.666916
     2  C    0.020774
     3  C   -0.046451
     4  C   -0.010754
     5  C   -0.081927
     6  N   -0.258316
     7  C   -0.009962
     8  C   -0.058603
     9  C    0.004045
    10  C    0.016061
    11  C    0.129743
    12  C    0.162683
    13  C    0.142901
    14  C    0.104706
    15  O   -0.225853
    16  O   -0.255006
    17  N   -0.286456
    18  C    0.163163
    19  C   -0.155524
    20  C    0.069983
    21  C    0.091976
    22  C    0.191874
    23  C   -0.109436
    24  O   -0.174044
    25  C    0.123185
    26  N   -0.210629
    27  C   -0.031087
    28  C    0.044742
    29  C    0.093395
    30  C   -0.015100
    31  C    0.133976
    32  C    0.051942
    33  C    0.055568
    34  N   -0.218383
    35  C    0.151146
    36  C   -0.195839
    37  C    0.107959
    38  C    0.023070
    39  C    0.177040
    40  C   -0.065839
    41  O   -0.111588
    42  C    0.095280
    43  C    0.098521
    44  O   -0.207868
    45  O   -0.278920
    46  C    0.219447
    47  C    0.356070
    48  C   -0.090399
    49  C   -0.187183
    50  C    0.140659
    51  C    0.148599
    52  C    0.044170
    53  C    0.094969
    54  C   -0.057176
    55  C    0.114099
    56  C    0.064905
    57  C    0.067919
    58  C    0.142586
    59  C   -0.097673
    60  C    0.095376
    61  C    0.160846
    62  C    0.056544
    63  C    0.092566
    64  C   -0.094071
    65  C    0.130373
    66  C    0.096408
    67  H   -0.057234
    68  H   -0.048578
    69  H   -0.071487
    70  H   -0.020651
    71  H   -0.049142
    72  H   -0.000974
    73  H    0.011900
    74  H   -0.004291
    75  H   -0.033535
    76  H   -0.011790
    77  H   -0.024333
    78  H   -0.005776
    79  H   -0.009727
    80  H   -0.000215
    81  H   -0.016401
    82  H    0.012463
    83  H   -0.014401
    84  H    0.007846
    85  H   -0.012845
    86  H   -0.029036
    87  H    0.004843
    88  H   -0.008697
    89  H   -0.017012
    90  H   -0.023382
    91  H   -0.026275
    92  H   -0.006793
    93  H   -0.017615
    94  H    0.008841
    95  H   -0.001568
    96  H    0.018238
    97  H    0.006847
    98  H   -0.014335
    99  H    0.019486
   100  H    0.031304
   101  H    0.008873
   102  H   -0.003060
   103  H   -0.005676
   104  H   -0.053252
   105  H    0.008865
   106  H    0.004505
   107  H   -0.026691
   108  H   -0.023242
   109  H   -0.026582
   110  H   -0.022356
   111  H   -0.017916
   112  H   -0.028163
   113  H   -0.045681
   114  H   -0.040098
   115  H   -0.017780
   116  H   -0.010512
   117  H   -0.029037
   118  H   -0.031309
   119  H   -0.032715
   120  H   -0.021727
   121  H   -0.037254
   122  H   -0.042621
   123  H   -0.028853
   124  H   -0.048139
   125  H   -0.013817
   126  H   -0.023028
   127  H   -0.012267
   128  H   -0.043187
   129  H   -0.048537
   130  H   -0.036425
   131  H   -0.040240
   132  H   -0.026672
   133  H   -0.044076
   134  H   -0.034559
   135  H   -0.024912
   136  H   -0.009774
   137  H   -0.024276
   138  H   -0.024383
   139  H   -0.013961
   140  H   -0.017242
 Sum of Mulliken charges =  -0.00000

 Dipole moment (field-independent basis, Debye):
    X=              4.6353    Y=              2.4866    Z=             -2.3245  Tot=              5.7509
 Quadrupole moment (field-independent basis, Debye-Ang):
   XX=           -372.1510   YY=           -449.1612   ZZ=           -404.5085
   XY=            -27.1469   XZ=             -1.2955   YZ=             10.3551

 Normal termination of Gaussian 16 at Thu May  5 00:43:31 2022.
