 Gaussian 16, Revision A.03,
 Gaussian 16:  ES64L-G16RevA.03 25-Dec-2016

 -----------------------------------
 #p cam-b3lyp/Def2SVP td=(nstates=5)
 -----------------------------------

 ------------------------------------------------------
 step_451_chromophore_9 TDDFT with cam-b3lyp functional
 ------------------------------------------------------
 Symbolic Z-matrix:
 Charge =  0 Multiplicity = 1

                         Standard orientation:
 ---------------------------------------------------------------------
 Center     Atomic      Atomic             Coordinates (Angstroms)
 Number     Number       Type             X           Y           Z
 ---------------------------------------------------------------------
      1         12           0       -4.817522    0.841400   -0.109754
      2          6           0       -4.195198   -2.587240   -0.099158
      3          6           0       -1.425861    1.524591   -0.258684
      4          6           0       -5.591155    4.021081   -0.039609
      5          6           0       -8.205936    0.005793    0.540006
      6          7           0       -3.022848   -0.395426    0.131467
      7          6           0       -3.009315   -1.762217   -0.054461
      8          6           0       -1.547203   -2.198588   -0.169160
      9          6           0       -0.825613   -0.919248    0.477755
     10          6           0       -1.762680    0.206606    0.041674
     11          6           0       -0.560437   -1.049375    2.065160
     12          6           0       -1.113966   -2.558007   -1.613447
     13          6           0        0.314523   -2.928289   -1.771258
     14          6           0        1.263186   -3.216360   -0.596937
     15          8           0        1.166890   -4.218736    0.158453
     16          8           0        2.152382   -2.186453   -0.442564
     17          7           0       -3.654362    2.558275   -0.195482
     18          6           0       -2.284616    2.616670   -0.207319
     19          6           0       -1.908767    3.940456   -0.535696
     20          6           0       -3.098042    4.734309   -0.524911
     21          6           0       -4.218748    3.774378   -0.230754
     22          6           0       -0.492248    4.325939   -0.669810
     23          6           0       -3.228508    6.199731   -0.737245
     24          8           0       -4.339956    6.717094   -0.626646
     25          6           0       -1.984206    7.055112   -0.992627
     26          7           0       -6.679788    1.918408    0.227134
     27          6           0       -6.689053    3.277772    0.301367
     28          6           0       -8.125111    3.794781    0.669207
     29          6           0       -8.970277    2.466380    0.651670
     30          6           0       -7.918085    1.390016    0.418744
     31          6           0       -8.102213    4.552588    1.977648
     32          6           0      -10.151259    2.427215   -0.312561
     33          6           0       -9.886953    1.960561   -1.806649
     34          7           0       -6.025491   -0.920662    0.129835
     35          6           0       -7.391341   -1.079651    0.350659
     36          6           0       -7.724799   -2.485976    0.330933
     37          6           0       -6.501563   -3.177421    0.170054
     38          6           0       -5.502985   -2.125254    0.002365
     39          6           0       -9.000641   -3.055122    0.708036
     40          6           0       -5.798689   -4.429829    0.090814
     41          8           0       -6.133363   -5.589894    0.056708
     42          6           0       -4.251189   -4.110684   -0.065668
     43          6           0       -3.493325   -4.686298    1.067616
     44          8           0       -3.583726   -4.308106    2.248780
     45          8           0       -2.607401   -5.651172    0.669279
     46          6           0       -1.497329   -5.973476    1.594770
     47          6           0        3.214246   -2.433936    0.565963
     48          6           0        4.468526   -2.049789   -0.037123
     49          6           0        5.351289   -2.760322   -0.768024
     50          6           0        5.145980   -4.227878   -1.140358
     51          6           0        6.609387   -2.117120   -1.311301
     52          6           0        6.450175   -1.567638   -2.741297
     53          6           0        7.787070   -1.597611   -3.606094
     54          6           0        8.443786   -0.181376   -3.832845
     55          6           0        8.511190    0.166184   -5.347449
     56          6           0        9.750275    0.095270   -3.040424
     57          6           0        9.972257    1.592319   -2.570842
     58          6           0       11.036120    1.657301   -1.479635
     59          6           0       10.426916    2.103609   -0.209406
     60          6           0        9.698921    3.500903   -0.287312
     61          6           0       11.357835    2.083153    1.022122
     62          6           0       11.003131    1.132194    2.154964
     63          6           0       11.279151    1.782762    3.481470
     64          6           0       10.903826    0.822400    4.584389
     65          6           0        9.494472    1.136296    5.098740
     66          6           0       11.908963    1.010233    5.805530
     67          1           0       -0.340435    1.579181   -0.361995
     68          1           0       -5.824245    5.087764   -0.017899
     69          1           0       -9.264185   -0.193226    0.721903
     70          1           0       -1.456962   -3.161122    0.333702
     71          1           0        0.155852   -0.785888    0.025083
     72          1           0       -0.135037   -2.047843    2.166598
     73          1           0       -1.491021   -1.022755    2.632215
     74          1           0        0.178665   -0.326352    2.411680
     75          1           0       -1.244653   -1.626838   -2.164904
     76          1           0       -1.788352   -3.294974   -2.049446
     77          1           0        0.804372   -2.105612   -2.292346
     78          1           0        0.443040   -3.691542   -2.538341
     79          1           0       -0.293899    5.180695   -0.022461
     80          1           0       -0.297487    4.605664   -1.704691
     81          1           0        0.241316    3.591772   -0.335395
     82          1           0       -1.374154    7.060415   -0.089662
     83          1           0       -2.389381    8.059412   -1.115651
     84          1           0       -1.397358    6.795919   -1.874261
     85          1           0       -8.363090    4.476423   -0.146647
     86          1           0       -9.387297    2.278289    1.640791
     87          1           0       -7.152229    4.758132    2.471170
     88          1           0       -8.874959    4.190989    2.656499
     89          1           0       -8.369265    5.571213    1.696048
     90          1           0      -10.685731    3.352234   -0.528535
     91          1           0      -10.950464    1.838384    0.137234
     92          1           0      -10.534807    2.481847   -2.511452
     93          1           0      -10.168304    0.911104   -1.892942
     94          1           0       -8.828983    1.963538   -2.070961
     95          1           0       -9.793920   -2.623643    0.098855
     96          1           0       -9.170569   -2.968565    1.780785
     97          1           0       -8.858985   -4.108461    0.466392
     98          1           0       -3.885672   -4.555562   -0.991650
     99          1           0       -1.663958   -6.898548    2.146987
    100          1           0       -1.145574   -5.110981    2.160434
    101          1           0       -0.738513   -6.214605    0.849820
    102          1           0        3.225332   -3.462245    0.928386
    103          1           0        3.129260   -1.901609    1.513797
    104          1           0        4.760481   -1.000031   -0.049636
    105          1           0        5.815946   -4.850669   -0.547332
    106          1           0        5.061851   -4.437248   -2.206365
    107          1           0        4.139527   -4.502088   -0.823785
    108          1           0        7.431208   -2.829667   -1.247060
    109          1           0        6.806119   -1.255678   -0.673528
    110          1           0        6.067762   -0.577817   -2.493338
    111          1           0        5.723145   -2.010937   -3.421209
    112          1           0        7.709479   -2.206969   -4.506645
    113          1           0        8.493718   -2.138070   -2.976190
    114          1           0        7.632129    0.399358   -3.394632
    115          1           0        9.485052    0.562177   -5.634276
    116          1           0        7.672683    0.785492   -5.668630
    117          1           0        8.431405   -0.730069   -5.963577
    118          1           0       10.630400   -0.093551   -3.654247
    119          1           0        9.808505   -0.549481   -2.163987
    120          1           0        8.951367    1.960388   -2.469793
    121          1           0       10.436018    2.060500   -3.438827
    122          1           0       11.773704    2.412176   -1.753291
    123          1           0       11.502071    0.683091   -1.336566
    124          1           0        9.630930    1.365746   -0.102202
    125          1           0        8.795800    3.485604   -0.898306
    126          1           0       10.432133    4.165692   -0.743533
    127          1           0        9.460696    3.895900    0.700264
    128          1           0       11.447339    3.093154    1.422363
    129          1           0       12.356792    1.798593    0.693490
    130          1           0       11.609245    0.232641    2.047042
    131          1           0        9.990930    0.736153    2.067159
    132          1           0       10.944627    2.816588    3.565763
    133          1           0       12.357776    1.934258    3.463985
    134          1           0       10.993691   -0.227839    4.309789
    135          1           0        8.831812    0.339368    4.762598
    136          1           0        9.107668    2.088199    4.732915
    137          1           0        9.513292    1.063833    6.185988
    138          1           0       12.560558    0.137114    5.853128
    139          1           0       11.410960    1.080744    6.773216
    140          1           0       12.560436    1.840539    5.532862
 ---------------------------------------------------------------------

 SCF Done:  E(RCAM-B3LYP) =  -3007.17392188     A.U. after   19 cycles

 Excitation energies and oscillator strengths:

 Excited State   1:      Singlet-A      1.6982 eV  730.11 nm  f=0.3629  <S**2>=0.000
     245 -> 248        0.18035
     246 -> 247        0.68508
     245 <- 248        0.10711
 This state for optimization and/or second-order correction.
 Total Energy, E(TD-HF/TD-DFT) =  -3007.11151564
 Copying the excited state density for this state as the 1-particle RhoCI density.

 Excited State   2:      Singlet-A      2.2104 eV  560.90 nm  f=0.0855  <S**2>=0.000
     245 -> 247        0.63250
     246 -> 248       -0.30378

 Excited State   3:      Singlet-A      3.3798 eV  366.84 nm  f=0.1867  <S**2>=0.000
     240 -> 247        0.26351
     240 -> 249       -0.15341
     241 -> 247        0.22370
     241 -> 249       -0.11821
     243 -> 247        0.34805
     244 -> 247       -0.19653
     245 -> 247        0.15012
     246 -> 248        0.36040

 Excited State   4:      Singlet-A      3.4431 eV  360.09 nm  f=0.0953  <S**2>=0.000
     240 -> 247        0.26602
     240 -> 249       -0.15004
     241 -> 247        0.40381
     241 -> 249       -0.18375
     243 -> 247       -0.20659
     244 -> 247        0.25965
     245 -> 247       -0.10827
     246 -> 248       -0.23839

 Excited State   5:      Singlet-A      3.4568 eV  358.66 nm  f=0.1727  <S**2>=0.000
     244 -> 247        0.55960
     245 -> 247        0.15826
     246 -> 248        0.37265

 The electronic state is 1-A.
 Alpha  occ. eigenvalues --  -46.88692 -19.27115 -19.24123 -19.21049 -19.19162
 Alpha  occ. eigenvalues --  -19.18396 -19.17927 -14.41867 -14.41592 -14.39160
 Alpha  occ. eigenvalues --  -14.39135 -10.41131 -10.38396 -10.35189 -10.34209
 Alpha  occ. eigenvalues --  -10.32497 -10.31901 -10.31316 -10.30569 -10.30272
 Alpha  occ. eigenvalues --  -10.30054 -10.29872 -10.29818 -10.29152 -10.28798
 Alpha  occ. eigenvalues --  -10.28574 -10.28131 -10.28103 -10.27988 -10.27959
 Alpha  occ. eigenvalues --  -10.27857 -10.27797 -10.27753 -10.27703 -10.27552
 Alpha  occ. eigenvalues --  -10.27034 -10.26953 -10.26887 -10.26645 -10.26444
 Alpha  occ. eigenvalues --  -10.26315 -10.26277 -10.26266 -10.26168 -10.26167
 Alpha  occ. eigenvalues --  -10.26041 -10.26008 -10.25995 -10.25823 -10.25757
 Alpha  occ. eigenvalues --  -10.25638 -10.25487 -10.25472 -10.25438 -10.25329
 Alpha  occ. eigenvalues --  -10.25306 -10.25196 -10.25003 -10.24848 -10.24805
 Alpha  occ. eigenvalues --  -10.24695 -10.24468 -10.24452 -10.24279 -10.24185
 Alpha  occ. eigenvalues --  -10.24175  -3.17098  -1.92023  -1.91527  -1.91408
 Alpha  occ. eigenvalues --   -1.16961  -1.14686  -1.10747  -1.08856  -1.07700
 Alpha  occ. eigenvalues --   -1.05569  -1.04297  -1.03372  -1.02870  -1.01811
 Alpha  occ. eigenvalues --   -0.92252  -0.91433  -0.90809  -0.89969  -0.89269
 Alpha  occ. eigenvalues --   -0.89204  -0.88360  -0.88147  -0.87973  -0.87332
 Alpha  occ. eigenvalues --   -0.86326  -0.85479  -0.84245  -0.83754  -0.83603
 Alpha  occ. eigenvalues --   -0.82754  -0.81840  -0.81372  -0.80883  -0.80205
 Alpha  occ. eigenvalues --   -0.80036  -0.78459  -0.77872  -0.77296  -0.76500
 Alpha  occ. eigenvalues --   -0.75854  -0.75435  -0.75173  -0.75095  -0.74453
 Alpha  occ. eigenvalues --   -0.73708  -0.72765  -0.71841  -0.70997  -0.69992
 Alpha  occ. eigenvalues --   -0.69183  -0.68859  -0.67216  -0.67003  -0.65814
 Alpha  occ. eigenvalues --   -0.65549  -0.64929  -0.64757  -0.64066  -0.63972
 Alpha  occ. eigenvalues --   -0.63939  -0.63709  -0.62510  -0.61474  -0.60464
 Alpha  occ. eigenvalues --   -0.59889  -0.59455  -0.59291  -0.58403  -0.57554
 Alpha  occ. eigenvalues --   -0.57201  -0.56886  -0.56606  -0.55981  -0.55868
 Alpha  occ. eigenvalues --   -0.55537  -0.55141  -0.54818  -0.54728  -0.54312
 Alpha  occ. eigenvalues --   -0.54154  -0.53920  -0.53215  -0.53002  -0.52895
 Alpha  occ. eigenvalues --   -0.52743  -0.52346  -0.52200  -0.51958  -0.51893
 Alpha  occ. eigenvalues --   -0.51750  -0.51687  -0.51481  -0.51439  -0.51030
 Alpha  occ. eigenvalues --   -0.50812  -0.50193  -0.50085  -0.49754  -0.49534
 Alpha  occ. eigenvalues --   -0.49267  -0.49171  -0.49132  -0.48949  -0.48815
 Alpha  occ. eigenvalues --   -0.48493  -0.48327  -0.48194  -0.47881  -0.47788
 Alpha  occ. eigenvalues --   -0.47253  -0.47227  -0.46991  -0.46868  -0.46633
 Alpha  occ. eigenvalues --   -0.46490  -0.46174  -0.46106  -0.45982  -0.45853
 Alpha  occ. eigenvalues --   -0.45721  -0.45378  -0.45212  -0.45134  -0.44961
 Alpha  occ. eigenvalues --   -0.44660  -0.44432  -0.44248  -0.44218  -0.43792
 Alpha  occ. eigenvalues --   -0.43590  -0.43425  -0.43149  -0.43067  -0.42972
 Alpha  occ. eigenvalues --   -0.42577  -0.42456  -0.42360  -0.42052  -0.41945
 Alpha  occ. eigenvalues --   -0.41937  -0.41842  -0.41475  -0.41388  -0.41206
 Alpha  occ. eigenvalues --   -0.40980  -0.40870  -0.40677  -0.40267  -0.40175
 Alpha  occ. eigenvalues --   -0.39859  -0.39789  -0.39221  -0.39174  -0.39166
 Alpha  occ. eigenvalues --   -0.38672  -0.38108  -0.37875  -0.37700  -0.37348
 Alpha  occ. eigenvalues --   -0.37227  -0.36981  -0.36837  -0.36561  -0.36362
 Alpha  occ. eigenvalues --   -0.35730  -0.35424  -0.35373  -0.34768  -0.34260
 Alpha  occ. eigenvalues --   -0.33783  -0.33389  -0.32945  -0.31215  -0.31059
 Alpha  occ. eigenvalues --   -0.30829  -0.30399  -0.30261  -0.29095  -0.23992
 Alpha  occ. eigenvalues --   -0.20991
 Alpha virt. eigenvalues --   -0.08508  -0.01879   0.00316   0.02583   0.02761
 Alpha virt. eigenvalues --    0.03030   0.03925   0.05178   0.05518   0.06879
 Alpha virt. eigenvalues --    0.07631   0.07927   0.08664   0.08802   0.09314

 Mulliken charges:
               1
     1  Mg   0.799254
     2  C   -0.016537
     3  C   -0.062990
     4  C   -0.031787
     5  C   -0.089041
     6  N   -0.326838
     7  C    0.044828
     8  C   -0.115076
     9  C   -0.055668
    10  C    0.030177
    11  C    0.084786
    12  C    0.116815
    13  C    0.071383
    14  C    0.179212
    15  O   -0.268659
    16  O   -0.318530
    17  N   -0.372686
    18  C    0.169092
    19  C   -0.157678
    20  C   -0.004184
    21  C    0.116138
    22  C    0.125801
    23  C   -0.030188
    24  O   -0.219690
    25  C    0.043516
    26  N   -0.279506
    27  C   -0.011973
    28  C   -0.005949
    29  C    0.032651
    30  C    0.005133
    31  C    0.072700
    32  C   -0.002060
    33  C   -0.005293
    34  N   -0.308757
    35  C    0.155521
    36  C   -0.176533
    37  C    0.026537
    38  C    0.066106
    39  C    0.117448
    40  C    0.034841
    41  O   -0.147464
    42  C    0.019909
    43  C    0.187124
    44  O   -0.243874
    45  O   -0.342405
    46  C    0.180982
    47  C    0.316960
    48  C   -0.116112
    49  C   -0.201337
    50  C    0.082245
    51  C    0.087345
    52  C   -0.007050
    53  C    0.041969
    54  C   -0.114398
    55  C    0.055904
    56  C    0.020546
    57  C    0.008698
    58  C    0.089835
    59  C   -0.151660
    60  C    0.040089
    61  C    0.100915
    62  C    0.009044
    63  C    0.029949
    64  C   -0.158410
    65  C    0.071552
    66  C    0.040649
    67  H   -0.022296
    68  H   -0.009158
    69  H   -0.034449
    70  H    0.009589
    71  H   -0.013622
    72  H    0.016914
    73  H    0.035299
    74  H    0.019070
    75  H    0.000212
    76  H    0.016667
    77  H    0.012722
    78  H    0.028162
    79  H    0.014560
    80  H    0.025172
    81  H    0.011836
    82  H    0.039185
    83  H    0.020978
    84  H    0.035477
    85  H    0.021729
    86  H    0.008411
    87  H    0.032241
    88  H    0.014814
    89  H    0.007790
    90  H    0.007314
    91  H    0.001720
    92  H    0.018465
    93  H    0.005052
    94  H    0.030786
    95  H    0.024506
    96  H    0.047145
    97  H    0.035554
    98  H    0.030369
    99  H    0.042819
   100  H    0.052755
   101  H    0.034296
   102  H    0.032554
   103  H    0.021906
   104  H   -0.019794
   105  H    0.033488
   106  H    0.028621
   107  H   -0.003797
   108  H    0.004989
   109  H    0.002710
   110  H    0.003508
   111  H    0.010225
   112  H    0.001313
   113  H   -0.016506
   114  H   -0.008665
   115  H    0.005798
   116  H    0.013713
   117  H   -0.005056
   118  H   -0.003763
   119  H   -0.007490
   120  H    0.004350
   121  H   -0.007510
   122  H   -0.013388
   123  H    0.000366
   124  H   -0.018841
   125  H    0.010047
   126  H    0.000128
   127  H    0.011286
   128  H   -0.013469
   129  H   -0.017368
   130  H   -0.007911
   131  H   -0.012482
   132  H    0.001966
   133  H   -0.013886
   134  H   -0.000967
   135  H   -0.000731
   136  H    0.013680
   137  H   -0.000041
   138  H   -0.000143
   139  H    0.009408
   140  H    0.006353
 Sum of Mulliken charges =  -0.00000

 Dipole moment (field-independent basis, Debye):
    X=              4.4041    Y=              2.1867    Z=             -2.4725  Tot=              5.5038
 Quadrupole moment (field-independent basis, Debye-Ang):
   XX=           -365.6875   YY=           -447.3716   ZZ=           -404.3760
   XY=            -24.9237   XZ=             -1.2224   YZ=             10.4919

 Normal termination of Gaussian 16 at Wed May  4 23:12:48 2022.
