 Gaussian 16, Revision A.03,
 Gaussian 16:  ES64L-G16RevA.03 25-Dec-2016

 ---------------------------------
 #p PBE1PBE/Def2SVP td=(nstates=5)
 ---------------------------------

 ----------------------------------------------------
 step_451_chromophore_9 TDDFT with PBE1PBE functional
 ----------------------------------------------------
 Symbolic Z-matrix:
 Charge =  0 Multiplicity = 1

                         Standard orientation:
 ---------------------------------------------------------------------
 Center     Atomic      Atomic             Coordinates (Angstroms)
 Number     Number       Type             X           Y           Z
 ---------------------------------------------------------------------
      1         12           0       -4.817522    0.841400   -0.109754
      2          6           0       -4.195198   -2.587240   -0.099158
      3          6           0       -1.425861    1.524591   -0.258684
      4          6           0       -5.591155    4.021081   -0.039609
      5          6           0       -8.205936    0.005793    0.540006
      6          7           0       -3.022848   -0.395426    0.131467
      7          6           0       -3.009315   -1.762217   -0.054461
      8          6           0       -1.547203   -2.198588   -0.169160
      9          6           0       -0.825613   -0.919248    0.477755
     10          6           0       -1.762680    0.206606    0.041674
     11          6           0       -0.560437   -1.049375    2.065160
     12          6           0       -1.113966   -2.558007   -1.613447
     13          6           0        0.314523   -2.928289   -1.771258
     14          6           0        1.263186   -3.216360   -0.596937
     15          8           0        1.166890   -4.218736    0.158453
     16          8           0        2.152382   -2.186453   -0.442564
     17          7           0       -3.654362    2.558275   -0.195482
     18          6           0       -2.284616    2.616670   -0.207319
     19          6           0       -1.908767    3.940456   -0.535696
     20          6           0       -3.098042    4.734309   -0.524911
     21          6           0       -4.218748    3.774378   -0.230754
     22          6           0       -0.492248    4.325939   -0.669810
     23          6           0       -3.228508    6.199731   -0.737245
     24          8           0       -4.339956    6.717094   -0.626646
     25          6           0       -1.984206    7.055112   -0.992627
     26          7           0       -6.679788    1.918408    0.227134
     27          6           0       -6.689053    3.277772    0.301367
     28          6           0       -8.125111    3.794781    0.669207
     29          6           0       -8.970277    2.466380    0.651670
     30          6           0       -7.918085    1.390016    0.418744
     31          6           0       -8.102213    4.552588    1.977648
     32          6           0      -10.151259    2.427215   -0.312561
     33          6           0       -9.886953    1.960561   -1.806649
     34          7           0       -6.025491   -0.920662    0.129835
     35          6           0       -7.391341   -1.079651    0.350659
     36          6           0       -7.724799   -2.485976    0.330933
     37          6           0       -6.501563   -3.177421    0.170054
     38          6           0       -5.502985   -2.125254    0.002365
     39          6           0       -9.000641   -3.055122    0.708036
     40          6           0       -5.798689   -4.429829    0.090814
     41          8           0       -6.133363   -5.589894    0.056708
     42          6           0       -4.251189   -4.110684   -0.065668
     43          6           0       -3.493325   -4.686298    1.067616
     44          8           0       -3.583726   -4.308106    2.248780
     45          8           0       -2.607401   -5.651172    0.669279
     46          6           0       -1.497329   -5.973476    1.594770
     47          6           0        3.214246   -2.433936    0.565963
     48          6           0        4.468526   -2.049789   -0.037123
     49          6           0        5.351289   -2.760322   -0.768024
     50          6           0        5.145980   -4.227878   -1.140358
     51          6           0        6.609387   -2.117120   -1.311301
     52          6           0        6.450175   -1.567638   -2.741297
     53          6           0        7.787070   -1.597611   -3.606094
     54          6           0        8.443786   -0.181376   -3.832845
     55          6           0        8.511190    0.166184   -5.347449
     56          6           0        9.750275    0.095270   -3.040424
     57          6           0        9.972257    1.592319   -2.570842
     58          6           0       11.036120    1.657301   -1.479635
     59          6           0       10.426916    2.103609   -0.209406
     60          6           0        9.698921    3.500903   -0.287312
     61          6           0       11.357835    2.083153    1.022122
     62          6           0       11.003131    1.132194    2.154964
     63          6           0       11.279151    1.782762    3.481470
     64          6           0       10.903826    0.822400    4.584389
     65          6           0        9.494472    1.136296    5.098740
     66          6           0       11.908963    1.010233    5.805530
     67          1           0       -0.340435    1.579181   -0.361995
     68          1           0       -5.824245    5.087764   -0.017899
     69          1           0       -9.264185   -0.193226    0.721903
     70          1           0       -1.456962   -3.161122    0.333702
     71          1           0        0.155852   -0.785888    0.025083
     72          1           0       -0.135037   -2.047843    2.166598
     73          1           0       -1.491021   -1.022755    2.632215
     74          1           0        0.178665   -0.326352    2.411680
     75          1           0       -1.244653   -1.626838   -2.164904
     76          1           0       -1.788352   -3.294974   -2.049446
     77          1           0        0.804372   -2.105612   -2.292346
     78          1           0        0.443040   -3.691542   -2.538341
     79          1           0       -0.293899    5.180695   -0.022461
     80          1           0       -0.297487    4.605664   -1.704691
     81          1           0        0.241316    3.591772   -0.335395
     82          1           0       -1.374154    7.060415   -0.089662
     83          1           0       -2.389381    8.059412   -1.115651
     84          1           0       -1.397358    6.795919   -1.874261
     85          1           0       -8.363090    4.476423   -0.146647
     86          1           0       -9.387297    2.278289    1.640791
     87          1           0       -7.152229    4.758132    2.471170
     88          1           0       -8.874959    4.190989    2.656499
     89          1           0       -8.369265    5.571213    1.696048
     90          1           0      -10.685731    3.352234   -0.528535
     91          1           0      -10.950464    1.838384    0.137234
     92          1           0      -10.534807    2.481847   -2.511452
     93          1           0      -10.168304    0.911104   -1.892942
     94          1           0       -8.828983    1.963538   -2.070961
     95          1           0       -9.793920   -2.623643    0.098855
     96          1           0       -9.170569   -2.968565    1.780785
     97          1           0       -8.858985   -4.108461    0.466392
     98          1           0       -3.885672   -4.555562   -0.991650
     99          1           0       -1.663958   -6.898548    2.146987
    100          1           0       -1.145574   -5.110981    2.160434
    101          1           0       -0.738513   -6.214605    0.849820
    102          1           0        3.225332   -3.462245    0.928386
    103          1           0        3.129260   -1.901609    1.513797
    104          1           0        4.760481   -1.000031   -0.049636
    105          1           0        5.815946   -4.850669   -0.547332
    106          1           0        5.061851   -4.437248   -2.206365
    107          1           0        4.139527   -4.502088   -0.823785
    108          1           0        7.431208   -2.829667   -1.247060
    109          1           0        6.806119   -1.255678   -0.673528
    110          1           0        6.067762   -0.577817   -2.493338
    111          1           0        5.723145   -2.010937   -3.421209
    112          1           0        7.709479   -2.206969   -4.506645
    113          1           0        8.493718   -2.138070   -2.976190
    114          1           0        7.632129    0.399358   -3.394632
    115          1           0        9.485052    0.562177   -5.634276
    116          1           0        7.672683    0.785492   -5.668630
    117          1           0        8.431405   -0.730069   -5.963577
    118          1           0       10.630400   -0.093551   -3.654247
    119          1           0        9.808505   -0.549481   -2.163987
    120          1           0        8.951367    1.960388   -2.469793
    121          1           0       10.436018    2.060500   -3.438827
    122          1           0       11.773704    2.412176   -1.753291
    123          1           0       11.502071    0.683091   -1.336566
    124          1           0        9.630930    1.365746   -0.102202
    125          1           0        8.795800    3.485604   -0.898306
    126          1           0       10.432133    4.165692   -0.743533
    127          1           0        9.460696    3.895900    0.700264
    128          1           0       11.447339    3.093154    1.422363
    129          1           0       12.356792    1.798593    0.693490
    130          1           0       11.609245    0.232641    2.047042
    131          1           0        9.990930    0.736153    2.067159
    132          1           0       10.944627    2.816588    3.565763
    133          1           0       12.357776    1.934258    3.463985
    134          1           0       10.993691   -0.227839    4.309789
    135          1           0        8.831812    0.339368    4.762598
    136          1           0        9.107668    2.088199    4.732915
    137          1           0        9.513292    1.063833    6.185988
    138          1           0       12.560558    0.137114    5.853128
    139          1           0       11.410960    1.080744    6.773216
    140          1           0       12.560436    1.840539    5.532862
 ---------------------------------------------------------------------

 SCF Done:  E(RPBE1PBE) =  -3005.36311931     A.U. after   15 cycles

 Excitation energies and oscillator strengths:

 Excited State   1:      Singlet-A      1.8316 eV  676.93 nm  f=0.3535  <S**2>=0.000
     245 -> 248        0.17428
     246 -> 247        0.69225
     246 <- 247       -0.10306
 This state for optimization and/or second-order correction.
 Total Energy, E(TD-HF/TD-DFT) =  -3005.29581068
 Copying the excited state density for this state as the 1-particle RhoCI density.

 Excited State   2:      Singlet-A      2.2084 eV  561.42 nm  f=0.0846  <S**2>=0.000
     245 -> 247        0.64625
     246 -> 248       -0.27372

 Excited State   3:      Singlet-A      2.9653 eV  418.11 nm  f=0.0021  <S**2>=0.000
     242 -> 247        0.65608
     242 -> 249       -0.16852
     244 -> 247       -0.13886

 Excited State   4:      Singlet-A      3.0402 eV  407.82 nm  f=0.0026  <S**2>=0.000
     242 -> 247        0.10711
     243 -> 247        0.23432
     244 -> 247        0.63715

 Excited State   5:      Singlet-A      3.0862 eV  401.74 nm  f=0.0015  <S**2>=0.000
     243 -> 247        0.63298
     243 -> 249        0.11979
     244 -> 247       -0.23468

 The electronic state is 1-A.
 Alpha  occ. eigenvalues --  -46.92059 -19.27796 -19.24718 -19.21334 -19.19140
 Alpha  occ. eigenvalues --  -19.18557 -19.18356 -14.41306 -14.41197 -14.38895
 Alpha  occ. eigenvalues --  -14.38699 -10.38173 -10.35343 -10.32119 -10.31521
 Alpha  occ. eigenvalues --  -10.29871 -10.29475 -10.28861 -10.28237 -10.27949
 Alpha  occ. eigenvalues --  -10.27777 -10.27773 -10.27269 -10.26591 -10.26563
 Alpha  occ. eigenvalues --  -10.26078 -10.25999 -10.25819 -10.25784 -10.25716
 Alpha  occ. eigenvalues --  -10.25627 -10.25589 -10.25329 -10.25212 -10.25107
 Alpha  occ. eigenvalues --  -10.24991 -10.24698 -10.24350 -10.24220 -10.24061
 Alpha  occ. eigenvalues --  -10.24024 -10.23926 -10.23921 -10.23898 -10.23659
 Alpha  occ. eigenvalues --  -10.23624 -10.23519 -10.23322 -10.23288 -10.23239
 Alpha  occ. eigenvalues --  -10.23226 -10.23176 -10.23154 -10.22906 -10.22887
 Alpha  occ. eigenvalues --  -10.22850 -10.22834 -10.22595 -10.22352 -10.22267
 Alpha  occ. eigenvalues --  -10.22122 -10.22013 -10.21981 -10.21844 -10.21624
 Alpha  occ. eigenvalues --  -10.21573  -3.14052  -1.86918  -1.86399  -1.86283
 Alpha  occ. eigenvalues --   -1.11746  -1.09382  -1.05289  -1.03773  -1.02521
 Alpha  occ. eigenvalues --   -1.00294  -0.98801  -0.98088  -0.97556  -0.96452
 Alpha  occ. eigenvalues --   -0.86474  -0.85608  -0.84925  -0.84148  -0.83524
 Alpha  occ. eigenvalues --   -0.83394  -0.82673  -0.82320  -0.82127  -0.81666
 Alpha  occ. eigenvalues --   -0.80773  -0.79697  -0.78492  -0.77967  -0.77832
 Alpha  occ. eigenvalues --   -0.77063  -0.76094  -0.75602  -0.75124  -0.74494
 Alpha  occ. eigenvalues --   -0.74239  -0.72682  -0.72210  -0.71646  -0.70682
 Alpha  occ. eigenvalues --   -0.70167  -0.69757  -0.69309  -0.69206  -0.68630
 Alpha  occ. eigenvalues --   -0.68048  -0.67137  -0.66287  -0.65329  -0.64268
 Alpha  occ. eigenvalues --   -0.63469  -0.63230  -0.61743  -0.61301  -0.60119
 Alpha  occ. eigenvalues --   -0.59946  -0.59423  -0.59295  -0.58596  -0.58438
 Alpha  occ. eigenvalues --   -0.58157  -0.57914  -0.56703  -0.55962  -0.54844
 Alpha  occ. eigenvalues --   -0.54528  -0.53981  -0.53818  -0.52992  -0.52007
 Alpha  occ. eigenvalues --   -0.51646  -0.51349  -0.51105  -0.50535  -0.50399
 Alpha  occ. eigenvalues --   -0.50010  -0.49634  -0.49303  -0.49170  -0.48797
 Alpha  occ. eigenvalues --   -0.48564  -0.48415  -0.47775  -0.47641  -0.47394
 Alpha  occ. eigenvalues --   -0.47249  -0.46828  -0.46660  -0.46564  -0.46432
 Alpha  occ. eigenvalues --   -0.46294  -0.46146  -0.46074  -0.45929  -0.45595
 Alpha  occ. eigenvalues --   -0.45343  -0.44794  -0.44621  -0.44321  -0.44167
 Alpha  occ. eigenvalues --   -0.43847  -0.43801  -0.43729  -0.43614  -0.43428
 Alpha  occ. eigenvalues --   -0.43142  -0.42935  -0.42841  -0.42576  -0.42410
 Alpha  occ. eigenvalues --   -0.41970  -0.41869  -0.41688  -0.41434  -0.41366
 Alpha  occ. eigenvalues --   -0.41239  -0.40918  -0.40864  -0.40679  -0.40502
 Alpha  occ. eigenvalues --   -0.40446  -0.40064  -0.39907  -0.39719  -0.39545
 Alpha  occ. eigenvalues --   -0.39351  -0.39039  -0.38979  -0.38965  -0.38563
 Alpha  occ. eigenvalues --   -0.38323  -0.38168  -0.37958  -0.37777  -0.37710
 Alpha  occ. eigenvalues --   -0.37410  -0.37334  -0.37176  -0.36912  -0.36843
 Alpha  occ. eigenvalues --   -0.36798  -0.36686  -0.36363  -0.36165  -0.36017
 Alpha  occ. eigenvalues --   -0.35837  -0.35621  -0.35451  -0.35137  -0.34984
 Alpha  occ. eigenvalues --   -0.34720  -0.34605  -0.34130  -0.34033  -0.33935
 Alpha  occ. eigenvalues --   -0.33468  -0.32972  -0.32731  -0.32692  -0.32412
 Alpha  occ. eigenvalues --   -0.32090  -0.31867  -0.31852  -0.31402  -0.31164
 Alpha  occ. eigenvalues --   -0.30785  -0.30399  -0.30247  -0.29609  -0.29215
 Alpha  occ. eigenvalues --   -0.29131  -0.28852  -0.27610  -0.26619  -0.26471
 Alpha  occ. eigenvalues --   -0.25849  -0.25599  -0.25341  -0.24924  -0.20888
 Alpha  occ. eigenvalues --   -0.18635
 Alpha virt. eigenvalues --   -0.11025  -0.05369  -0.03845  -0.01878  -0.01733
 Alpha virt. eigenvalues --   -0.00622   0.00164   0.00634   0.01131   0.03521
 Alpha virt. eigenvalues --    0.04028   0.04445   0.05011   0.05161   0.05592

 Mulliken charges:
               1
     1  Mg   0.944539
     2  C   -0.024445
     3  C   -0.064796
     4  C   -0.037125
     5  C   -0.075353
     6  N   -0.420267
     7  C    0.125437
     8  C   -0.205906
     9  C   -0.136308
    10  C    0.066456
    11  C    0.028550
    12  C    0.069060
    13  C    0.001318
    14  C    0.237563
    15  O   -0.300843
    16  O   -0.347412
    17  N   -0.489239
    18  C    0.200555
    19  C   -0.184785
    20  C   -0.057153
    21  C    0.155241
    22  C    0.062083
    23  C    0.024041
    24  O   -0.255066
    25  C   -0.029028
    26  N   -0.384298
    27  C    0.032107
    28  C   -0.084844
    29  C   -0.044403
    30  C    0.044428
    31  C    0.018540
    32  C   -0.058018
    33  C   -0.078720
    34  N   -0.433854
    35  C    0.167342
    36  C   -0.188244
    37  C   -0.022709
    38  C    0.118164
    39  C    0.058721
    40  C    0.130478
    41  O   -0.196278
    42  C   -0.093965
    43  C    0.276026
    44  O   -0.277320
    45  O   -0.375725
    46  C    0.124781
    47  C    0.267828
    48  C   -0.129931
    49  C   -0.235967
    50  C    0.021132
    51  C    0.016685
    52  C   -0.065431
    53  C   -0.008942
    54  C   -0.200474
    55  C   -0.001743
    56  C   -0.033471
    57  C   -0.057066
    58  C    0.033808
    59  C   -0.237125
    60  C   -0.021940
    61  C    0.045590
    62  C   -0.047993
    63  C   -0.030454
    64  C   -0.255167
    65  C    0.014991
    66  C   -0.018601
    67  H    0.009903
    68  H    0.024143
    69  H   -0.002946
    70  H    0.059832
    71  H    0.027230
    72  H    0.046602
    73  H    0.062745
    74  H    0.046394
    75  H    0.034273
    76  H    0.049702
    77  H    0.044418
    78  H    0.059995
    79  H    0.044074
    80  H    0.055068
    81  H    0.039598
    82  H    0.066137
    83  H    0.049577
    84  H    0.062011
    85  H    0.058052
    86  H    0.045628
    87  H    0.058728
    88  H    0.042784
    89  H    0.035464
    90  H    0.039259
    91  H    0.033170
    92  H    0.045492
    93  H    0.033861
    94  H    0.060114
    95  H    0.050625
    96  H    0.073352
    97  H    0.063743
    98  H    0.067199
    99  H    0.065011
   100  H    0.072768
   101  H    0.057161
   102  H    0.058513
   103  H    0.048109
   104  H    0.010898
   105  H    0.061112
   106  H    0.055189
   107  H    0.026274
   108  H    0.036863
   109  H    0.035249
   110  H    0.034395
   111  H    0.042041
   112  H    0.032013
   113  H    0.017501
   114  H    0.031609
   115  H    0.032743
   116  H    0.040756
   117  H    0.022238
   118  H    0.029938
   119  H    0.025000
   120  H    0.035060
   121  H    0.027252
   122  H    0.019816
   123  H    0.032562
   124  H    0.021877
   125  H    0.037076
   126  H    0.028745
   127  H    0.039858
   128  H    0.018667
   129  H    0.016078
   130  H    0.025270
   131  H    0.020267
   132  H    0.032478
   133  H    0.021057
   134  H    0.035436
   135  H    0.027367
   136  H    0.040097
   137  H    0.027055
   138  H    0.028212
   139  H    0.035597
   140  H    0.033515
 Sum of Mulliken charges =  -0.00000

 Dipole moment (field-independent basis, Debye):
    X=              4.7293    Y=              2.6506    Z=             -2.4794  Tot=              5.9615
 Quadrupole moment (field-independent basis, Debye-Ang):
   XX=           -362.8804   YY=           -443.9694   ZZ=           -401.7694
   XY=            -27.6838   XZ=             -1.7888   YZ=             10.6533

 Normal termination of Gaussian 16 at Wed May  4 23:39:20 2022.
