 Gaussian 16, Revision A.03,
 Gaussian 16:  ES64L-G16RevA.03 25-Dec-2016

 --------------------------------
 #p wB97XD/Def2SVP td=(nstates=5)
 --------------------------------

 ---------------------------------------------------
 step_451_chromophore_9 TDDFT with wB97XD functional
 ---------------------------------------------------
 Symbolic Z-matrix:
 Charge =  0 Multiplicity = 1

                         Standard orientation:
 ---------------------------------------------------------------------
 Center     Atomic      Atomic             Coordinates (Angstroms)
 Number     Number       Type             X           Y           Z
 ---------------------------------------------------------------------
      1         12           0       -4.817522    0.841400   -0.109754
      2          6           0       -4.195198   -2.587240   -0.099158
      3          6           0       -1.425861    1.524591   -0.258684
      4          6           0       -5.591155    4.021081   -0.039609
      5          6           0       -8.205936    0.005793    0.540006
      6          7           0       -3.022848   -0.395426    0.131467
      7          6           0       -3.009315   -1.762217   -0.054461
      8          6           0       -1.547203   -2.198588   -0.169160
      9          6           0       -0.825613   -0.919248    0.477755
     10          6           0       -1.762680    0.206606    0.041674
     11          6           0       -0.560437   -1.049375    2.065160
     12          6           0       -1.113966   -2.558007   -1.613447
     13          6           0        0.314523   -2.928289   -1.771258
     14          6           0        1.263186   -3.216360   -0.596937
     15          8           0        1.166890   -4.218736    0.158453
     16          8           0        2.152382   -2.186453   -0.442564
     17          7           0       -3.654362    2.558275   -0.195482
     18          6           0       -2.284616    2.616670   -0.207319
     19          6           0       -1.908767    3.940456   -0.535696
     20          6           0       -3.098042    4.734309   -0.524911
     21          6           0       -4.218748    3.774378   -0.230754
     22          6           0       -0.492248    4.325939   -0.669810
     23          6           0       -3.228508    6.199731   -0.737245
     24          8           0       -4.339956    6.717094   -0.626646
     25          6           0       -1.984206    7.055112   -0.992627
     26          7           0       -6.679788    1.918408    0.227134
     27          6           0       -6.689053    3.277772    0.301367
     28          6           0       -8.125111    3.794781    0.669207
     29          6           0       -8.970277    2.466380    0.651670
     30          6           0       -7.918085    1.390016    0.418744
     31          6           0       -8.102213    4.552588    1.977648
     32          6           0      -10.151259    2.427215   -0.312561
     33          6           0       -9.886953    1.960561   -1.806649
     34          7           0       -6.025491   -0.920662    0.129835
     35          6           0       -7.391341   -1.079651    0.350659
     36          6           0       -7.724799   -2.485976    0.330933
     37          6           0       -6.501563   -3.177421    0.170054
     38          6           0       -5.502985   -2.125254    0.002365
     39          6           0       -9.000641   -3.055122    0.708036
     40          6           0       -5.798689   -4.429829    0.090814
     41          8           0       -6.133363   -5.589894    0.056708
     42          6           0       -4.251189   -4.110684   -0.065668
     43          6           0       -3.493325   -4.686298    1.067616
     44          8           0       -3.583726   -4.308106    2.248780
     45          8           0       -2.607401   -5.651172    0.669279
     46          6           0       -1.497329   -5.973476    1.594770
     47          6           0        3.214246   -2.433936    0.565963
     48          6           0        4.468526   -2.049789   -0.037123
     49          6           0        5.351289   -2.760322   -0.768024
     50          6           0        5.145980   -4.227878   -1.140358
     51          6           0        6.609387   -2.117120   -1.311301
     52          6           0        6.450175   -1.567638   -2.741297
     53          6           0        7.787070   -1.597611   -3.606094
     54          6           0        8.443786   -0.181376   -3.832845
     55          6           0        8.511190    0.166184   -5.347449
     56          6           0        9.750275    0.095270   -3.040424
     57          6           0        9.972257    1.592319   -2.570842
     58          6           0       11.036120    1.657301   -1.479635
     59          6           0       10.426916    2.103609   -0.209406
     60          6           0        9.698921    3.500903   -0.287312
     61          6           0       11.357835    2.083153    1.022122
     62          6           0       11.003131    1.132194    2.154964
     63          6           0       11.279151    1.782762    3.481470
     64          6           0       10.903826    0.822400    4.584389
     65          6           0        9.494472    1.136296    5.098740
     66          6           0       11.908963    1.010233    5.805530
     67          1           0       -0.340435    1.579181   -0.361995
     68          1           0       -5.824245    5.087764   -0.017899
     69          1           0       -9.264185   -0.193226    0.721903
     70          1           0       -1.456962   -3.161122    0.333702
     71          1           0        0.155852   -0.785888    0.025083
     72          1           0       -0.135037   -2.047843    2.166598
     73          1           0       -1.491021   -1.022755    2.632215
     74          1           0        0.178665   -0.326352    2.411680
     75          1           0       -1.244653   -1.626838   -2.164904
     76          1           0       -1.788352   -3.294974   -2.049446
     77          1           0        0.804372   -2.105612   -2.292346
     78          1           0        0.443040   -3.691542   -2.538341
     79          1           0       -0.293899    5.180695   -0.022461
     80          1           0       -0.297487    4.605664   -1.704691
     81          1           0        0.241316    3.591772   -0.335395
     82          1           0       -1.374154    7.060415   -0.089662
     83          1           0       -2.389381    8.059412   -1.115651
     84          1           0       -1.397358    6.795919   -1.874261
     85          1           0       -8.363090    4.476423   -0.146647
     86          1           0       -9.387297    2.278289    1.640791
     87          1           0       -7.152229    4.758132    2.471170
     88          1           0       -8.874959    4.190989    2.656499
     89          1           0       -8.369265    5.571213    1.696048
     90          1           0      -10.685731    3.352234   -0.528535
     91          1           0      -10.950464    1.838384    0.137234
     92          1           0      -10.534807    2.481847   -2.511452
     93          1           0      -10.168304    0.911104   -1.892942
     94          1           0       -8.828983    1.963538   -2.070961
     95          1           0       -9.793920   -2.623643    0.098855
     96          1           0       -9.170569   -2.968565    1.780785
     97          1           0       -8.858985   -4.108461    0.466392
     98          1           0       -3.885672   -4.555562   -0.991650
     99          1           0       -1.663958   -6.898548    2.146987
    100          1           0       -1.145574   -5.110981    2.160434
    101          1           0       -0.738513   -6.214605    0.849820
    102          1           0        3.225332   -3.462245    0.928386
    103          1           0        3.129260   -1.901609    1.513797
    104          1           0        4.760481   -1.000031   -0.049636
    105          1           0        5.815946   -4.850669   -0.547332
    106          1           0        5.061851   -4.437248   -2.206365
    107          1           0        4.139527   -4.502088   -0.823785
    108          1           0        7.431208   -2.829667   -1.247060
    109          1           0        6.806119   -1.255678   -0.673528
    110          1           0        6.067762   -0.577817   -2.493338
    111          1           0        5.723145   -2.010937   -3.421209
    112          1           0        7.709479   -2.206969   -4.506645
    113          1           0        8.493718   -2.138070   -2.976190
    114          1           0        7.632129    0.399358   -3.394632
    115          1           0        9.485052    0.562177   -5.634276
    116          1           0        7.672683    0.785492   -5.668630
    117          1           0        8.431405   -0.730069   -5.963577
    118          1           0       10.630400   -0.093551   -3.654247
    119          1           0        9.808505   -0.549481   -2.163987
    120          1           0        8.951367    1.960388   -2.469793
    121          1           0       10.436018    2.060500   -3.438827
    122          1           0       11.773704    2.412176   -1.753291
    123          1           0       11.502071    0.683091   -1.336566
    124          1           0        9.630930    1.365746   -0.102202
    125          1           0        8.795800    3.485604   -0.898306
    126          1           0       10.432133    4.165692   -0.743533
    127          1           0        9.460696    3.895900    0.700264
    128          1           0       11.447339    3.093154    1.422363
    129          1           0       12.356792    1.798593    0.693490
    130          1           0       11.609245    0.232641    2.047042
    131          1           0        9.990930    0.736153    2.067159
    132          1           0       10.944627    2.816588    3.565763
    133          1           0       12.357776    1.934258    3.463985
    134          1           0       10.993691   -0.227839    4.309789
    135          1           0        8.831812    0.339368    4.762598
    136          1           0        9.107668    2.088199    4.732915
    137          1           0        9.513292    1.063833    6.185988
    138          1           0       12.560558    0.137114    5.853128
    139          1           0       11.410960    1.080744    6.773216
    140          1           0       12.560436    1.840539    5.532862
 ---------------------------------------------------------------------

 SCF Done:  E(RwB97XD) =  -3007.87288127     A.U. after   19 cycles

 Excitation energies and oscillator strengths:

 Excited State   1:      Singlet-A      1.6524 eV  750.34 nm  f=0.3611  <S**2>=0.000
     245 -> 248        0.18521
     246 -> 247        0.68279
     245 <- 248        0.11568
 This state for optimization and/or second-order correction.
 Total Energy, E(TD-HF/TD-DFT) =  -3007.81215749
 Copying the excited state density for this state as the 1-particle RhoCI density.

 Excited State   2:      Singlet-A      2.1550 eV  575.33 nm  f=0.0838  <S**2>=0.000
     245 -> 247        0.63106
     246 -> 248       -0.30494

 Excited State   3:      Singlet-A      3.3843 eV  366.35 nm  f=0.2293  <S**2>=0.000
     239 -> 247       -0.10913
     240 -> 247        0.14155
     241 -> 247        0.21339
     241 -> 249       -0.13804
     242 -> 247        0.38740
     244 -> 247       -0.14571
     245 -> 247        0.16434
     246 -> 248        0.40324

 Excited State   4:      Singlet-A      3.4537 eV  358.99 nm  f=0.1188  <S**2>=0.000
     239 -> 247       -0.10059
     240 -> 247        0.10444
     241 -> 247        0.50405
     241 -> 249       -0.25605
     241 -> 250        0.10920
     242 -> 247       -0.14020
     245 -> 247       -0.12109
     246 -> 248       -0.28029

 Excited State   5:      Singlet-A      3.5028 eV  353.96 nm  f=0.1198  <S**2>=0.000
     242 -> 247       -0.15560
     244 -> 247        0.58753
     244 -> 249        0.10904
     245 -> 247        0.13239
     246 -> 248        0.29417

 The electronic state is 1-A.
 Alpha  occ. eigenvalues --  -46.95017 -19.32315 -19.29382 -19.25974 -19.24293
 Alpha  occ. eigenvalues --  -19.23397 -19.22877 -14.46465 -14.46188 -14.43786
 Alpha  occ. eigenvalues --  -14.43682 -10.44949 -10.42289 -10.39279 -10.38097
 Alpha  occ. eigenvalues --  -10.36364 -10.36007 -10.35384 -10.34338 -10.34254
 Alpha  occ. eigenvalues --  -10.34022 -10.33979 -10.33765 -10.33229 -10.33024
 Alpha  occ. eigenvalues --  -10.32478 -10.32158 -10.32127 -10.32068 -10.32016
 Alpha  occ. eigenvalues --  -10.31953 -10.31796 -10.31774 -10.31742 -10.31497
 Alpha  occ. eigenvalues --  -10.31044 -10.30948 -10.30938 -10.30598 -10.30372
 Alpha  occ. eigenvalues --  -10.30327 -10.30210 -10.30174 -10.30171 -10.30099
 Alpha  occ. eigenvalues --  -10.30015 -10.29980 -10.29829 -10.29657 -10.29636
 Alpha  occ. eigenvalues --  -10.29596 -10.29452 -10.29422 -10.29312 -10.29250
 Alpha  occ. eigenvalues --  -10.29160 -10.29148 -10.28938 -10.28713 -10.28675
 Alpha  occ. eigenvalues --  -10.28534 -10.28359 -10.28344 -10.28190 -10.28004
 Alpha  occ. eigenvalues --  -10.27970  -3.20872  -1.94486  -1.93967  -1.93850
 Alpha  occ. eigenvalues --   -1.19111  -1.16893  -1.13069  -1.10988  -1.09862
 Alpha  occ. eigenvalues --   -1.07796  -1.06363  -1.05378  -1.04850  -1.03809
 Alpha  occ. eigenvalues --   -0.94282  -0.93248  -0.92560  -0.91796  -0.91112
 Alpha  occ. eigenvalues --   -0.91028  -0.90293  -0.90095  -0.89762  -0.89250
 Alpha  occ. eigenvalues --   -0.88211  -0.87322  -0.86105  -0.85655  -0.85448
 Alpha  occ. eigenvalues --   -0.84643  -0.83729  -0.83243  -0.82825  -0.82101
 Alpha  occ. eigenvalues --   -0.81889  -0.80413  -0.79757  -0.79186  -0.78341
 Alpha  occ. eigenvalues --   -0.77805  -0.77363  -0.76977  -0.76879  -0.76274
 Alpha  occ. eigenvalues --   -0.75626  -0.74765  -0.73796  -0.72912  -0.71900
 Alpha  occ. eigenvalues --   -0.71073  -0.70855  -0.69153  -0.68885  -0.67650
 Alpha  occ. eigenvalues --   -0.67516  -0.66860  -0.66748  -0.66057  -0.65891
 Alpha  occ. eigenvalues --   -0.65791  -0.65540  -0.64327  -0.63506  -0.62354
 Alpha  occ. eigenvalues --   -0.61863  -0.61431  -0.61244  -0.60423  -0.59538
 Alpha  occ. eigenvalues --   -0.59186  -0.58789  -0.58527  -0.57943  -0.57781
 Alpha  occ. eigenvalues --   -0.57465  -0.57081  -0.56747  -0.56638  -0.56207
 Alpha  occ. eigenvalues --   -0.56022  -0.55840  -0.55109  -0.54952  -0.54752
 Alpha  occ. eigenvalues --   -0.54614  -0.54212  -0.54142  -0.53869  -0.53798
 Alpha  occ. eigenvalues --   -0.53705  -0.53570  -0.53459  -0.53323  -0.52911
 Alpha  occ. eigenvalues --   -0.52681  -0.52068  -0.51938  -0.51741  -0.51441
 Alpha  occ. eigenvalues --   -0.51215  -0.51065  -0.51019  -0.50845  -0.50713
 Alpha  occ. eigenvalues --   -0.50366  -0.50250  -0.50092  -0.49774  -0.49663
 Alpha  occ. eigenvalues --   -0.49218  -0.49088  -0.48912  -0.48833  -0.48533
 Alpha  occ. eigenvalues --   -0.48397  -0.48061  -0.48015  -0.47852  -0.47734
 Alpha  occ. eigenvalues --   -0.47608  -0.47295  -0.47126  -0.46977  -0.46889
 Alpha  occ. eigenvalues --   -0.46520  -0.46420  -0.46139  -0.46105  -0.45751
 Alpha  occ. eigenvalues --   -0.45526  -0.45384  -0.45066  -0.44925  -0.44819
 Alpha  occ. eigenvalues --   -0.44455  -0.44325  -0.44238  -0.43959  -0.43879
 Alpha  occ. eigenvalues --   -0.43803  -0.43738  -0.43406  -0.43244  -0.43078
 Alpha  occ. eigenvalues --   -0.42952  -0.42816  -0.42527  -0.42179  -0.42023
 Alpha  occ. eigenvalues --   -0.41747  -0.41639  -0.41116  -0.41032  -0.41008
 Alpha  occ. eigenvalues --   -0.40511  -0.39998  -0.39713  -0.39680  -0.39462
 Alpha  occ. eigenvalues --   -0.39062  -0.38824  -0.38776  -0.38410  -0.38185
 Alpha  occ. eigenvalues --   -0.37659  -0.37419  -0.37280  -0.36670  -0.36071
 Alpha  occ. eigenvalues --   -0.35850  -0.35564  -0.34910  -0.33301  -0.33172
 Alpha  occ. eigenvalues --   -0.32949  -0.32471  -0.32251  -0.31206  -0.25927
 Alpha  occ. eigenvalues --   -0.22804
 Alpha virt. eigenvalues --   -0.06849   0.00042   0.02353   0.04697   0.05080
 Alpha virt. eigenvalues --    0.06024   0.06171   0.07258   0.07876   0.09790
 Alpha virt. eigenvalues --    0.10613   0.11151   0.11747   0.12071   0.12265

 Mulliken charges:
               1
     1  Mg   0.935569
     2  C   -0.032973
     3  C   -0.075548
     4  C   -0.045789
     5  C   -0.096147
     6  N   -0.393282
     7  C    0.092177
     8  C   -0.158441
     9  C   -0.104129
    10  C    0.048816
    11  C    0.039789
    12  C    0.076256
    13  C    0.015972
    14  C    0.223991
    15  O   -0.296794
    16  O   -0.345569
    17  N   -0.455415
    18  C    0.185798
    19  C   -0.173456
    20  C   -0.050803
    21  C    0.139629
    22  C    0.075121
    23  C    0.017147
    24  O   -0.252007
    25  C   -0.017754
    26  N   -0.349107
    27  C    0.012905
    28  C   -0.058593
    29  C   -0.019043
    30  C    0.032176
    31  C    0.025833
    32  C   -0.049038
    33  C   -0.059996
    34  N   -0.396603
    35  C    0.165234
    36  C   -0.181392
    37  C   -0.020241
    38  C    0.104109
    39  C    0.067996
    40  C    0.113672
    41  O   -0.184471
    42  C   -0.052517
    43  C    0.253887
    44  O   -0.271752
    45  O   -0.373638
    46  C    0.138587
    47  C    0.284059
    48  C   -0.137804
    49  C   -0.226229
    50  C    0.035221
    51  C    0.039738
    52  C   -0.051925
    53  C    0.006464
    54  C   -0.169360
    55  C    0.009490
    56  C   -0.015672
    57  C   -0.038333
    58  C    0.047059
    59  C   -0.202711
    60  C   -0.007785
    61  C    0.059309
    62  C   -0.032621
    63  C   -0.012489
    64  C   -0.226592
    65  C    0.025074
    66  C   -0.004152
    67  H    0.003312
    68  H    0.018517
    69  H   -0.007928
    70  H    0.030437
    71  H    0.011379
    72  H    0.037618
    73  H    0.057081
    74  H    0.041393
    75  H    0.026136
    76  H    0.042013
    77  H    0.038953
    78  H    0.055605
    79  H    0.035651
    80  H    0.048420
    81  H    0.034507
    82  H    0.060341
    83  H    0.047002
    84  H    0.057184
    85  H    0.048861
    86  H    0.035899
    87  H    0.053984
    88  H    0.036432
    89  H    0.029769
    90  H    0.032661
    91  H    0.026450
    92  H    0.041799
    93  H    0.025937
    94  H    0.051068
    95  H    0.047058
    96  H    0.071054
    97  H    0.060620
    98  H    0.061902
    99  H    0.062352
   100  H    0.069922
   101  H    0.054478
   102  H    0.052776
   103  H    0.044938
   104  H    0.006626
   105  H    0.056383
   106  H    0.050536
   107  H    0.016748
   108  H    0.028202
   109  H    0.027032
   110  H    0.025077
   111  H    0.034921
   112  H    0.025462
   113  H    0.004571
   114  H    0.013812
   115  H    0.026631
   116  H    0.036052
   117  H    0.015246
   118  H    0.020657
   119  H    0.012645
   120  H    0.023217
   121  H    0.018672
   122  H    0.011071
   123  H    0.023636
   124  H    0.004362
   125  H    0.031665
   126  H    0.020808
   127  H    0.033221
   128  H    0.007839
   129  H    0.008250
   130  H    0.016872
   131  H    0.010008
   132  H    0.023803
   133  H    0.009251
   134  H    0.025958
   135  H    0.021489
   136  H    0.034382
   137  H    0.020308
   138  H    0.022228
   139  H    0.029518
   140  H    0.026358
 Sum of Mulliken charges =  -0.00000

 Dipole moment (field-independent basis, Debye):
    X=              4.3364    Y=              2.0812    Z=             -2.4960  Tot=              5.4190
 Quadrupole moment (field-independent basis, Debye-Ang):
   XX=           -359.4473   YY=           -443.6194   ZZ=           -401.2579
   XY=            -24.3510   XZ=             -1.5935   YZ=             10.5258

 Normal termination of Gaussian 16 at Thu May  5 00:22:45 2022.
