 Gaussian 16, Revision A.03,
 Gaussian 16:  ES64L-G16RevA.03 25-Dec-2016

 --------------------
 #p ZINDO=(nstates=5)
 --------------------

 ----------------------------
 step_451_chromophore_9 ZINDO
 ----------------------------
 Symbolic Z-matrix:
 Charge =  0 Multiplicity = 1

                         Standard orientation:
 ---------------------------------------------------------------------
 Center     Atomic      Atomic             Coordinates (Angstroms)
 Number     Number       Type             X           Y           Z
 ---------------------------------------------------------------------
      1         12           0       -4.817522    0.841400   -0.109754
      2          6           0       -4.195198   -2.587240   -0.099158
      3          6           0       -1.425861    1.524591   -0.258684
      4          6           0       -5.591155    4.021081   -0.039609
      5          6           0       -8.205936    0.005793    0.540006
      6          7           0       -3.022848   -0.395426    0.131467
      7          6           0       -3.009315   -1.762217   -0.054461
      8          6           0       -1.547203   -2.198588   -0.169160
      9          6           0       -0.825613   -0.919248    0.477755
     10          6           0       -1.762680    0.206606    0.041674
     11          6           0       -0.560437   -1.049375    2.065160
     12          6           0       -1.113966   -2.558007   -1.613447
     13          6           0        0.314523   -2.928289   -1.771258
     14          6           0        1.263186   -3.216360   -0.596937
     15          8           0        1.166890   -4.218736    0.158453
     16          8           0        2.152382   -2.186453   -0.442564
     17          7           0       -3.654362    2.558275   -0.195482
     18          6           0       -2.284616    2.616670   -0.207319
     19          6           0       -1.908767    3.940456   -0.535696
     20          6           0       -3.098042    4.734309   -0.524911
     21          6           0       -4.218748    3.774378   -0.230754
     22          6           0       -0.492248    4.325939   -0.669810
     23          6           0       -3.228508    6.199731   -0.737245
     24          8           0       -4.339956    6.717094   -0.626646
     25          6           0       -1.984206    7.055112   -0.992627
     26          7           0       -6.679788    1.918408    0.227134
     27          6           0       -6.689053    3.277772    0.301367
     28          6           0       -8.125111    3.794781    0.669207
     29          6           0       -8.970277    2.466380    0.651670
     30          6           0       -7.918085    1.390016    0.418744
     31          6           0       -8.102213    4.552588    1.977648
     32          6           0      -10.151259    2.427215   -0.312561
     33          6           0       -9.886953    1.960561   -1.806649
     34          7           0       -6.025491   -0.920662    0.129835
     35          6           0       -7.391341   -1.079651    0.350659
     36          6           0       -7.724799   -2.485976    0.330933
     37          6           0       -6.501563   -3.177421    0.170054
     38          6           0       -5.502985   -2.125254    0.002365
     39          6           0       -9.000641   -3.055122    0.708036
     40          6           0       -5.798689   -4.429829    0.090814
     41          8           0       -6.133363   -5.589894    0.056708
     42          6           0       -4.251189   -4.110684   -0.065668
     43          6           0       -3.493325   -4.686298    1.067616
     44          8           0       -3.583726   -4.308106    2.248780
     45          8           0       -2.607401   -5.651172    0.669279
     46          6           0       -1.497329   -5.973476    1.594770
     47          6           0        3.214246   -2.433936    0.565963
     48          6           0        4.468526   -2.049789   -0.037123
     49          6           0        5.351289   -2.760322   -0.768024
     50          6           0        5.145980   -4.227878   -1.140358
     51          6           0        6.609387   -2.117120   -1.311301
     52          6           0        6.450175   -1.567638   -2.741297
     53          6           0        7.787070   -1.597611   -3.606094
     54          6           0        8.443786   -0.181376   -3.832845
     55          6           0        8.511190    0.166184   -5.347449
     56          6           0        9.750275    0.095270   -3.040424
     57          6           0        9.972257    1.592319   -2.570842
     58          6           0       11.036120    1.657301   -1.479635
     59          6           0       10.426916    2.103609   -0.209406
     60          6           0        9.698921    3.500903   -0.287312
     61          6           0       11.357835    2.083153    1.022122
     62          6           0       11.003131    1.132194    2.154964
     63          6           0       11.279151    1.782762    3.481470
     64          6           0       10.903826    0.822400    4.584389
     65          6           0        9.494472    1.136296    5.098740
     66          6           0       11.908963    1.010233    5.805530
     67          1           0       -0.340435    1.579181   -0.361995
     68          1           0       -5.824245    5.087764   -0.017899
     69          1           0       -9.264185   -0.193226    0.721903
     70          1           0       -1.456962   -3.161122    0.333702
     71          1           0        0.155852   -0.785888    0.025083
     72          1           0       -0.135037   -2.047843    2.166598
     73          1           0       -1.491021   -1.022755    2.632215
     74          1           0        0.178665   -0.326352    2.411680
     75          1           0       -1.244653   -1.626838   -2.164904
     76          1           0       -1.788352   -3.294974   -2.049446
     77          1           0        0.804372   -2.105612   -2.292346
     78          1           0        0.443040   -3.691542   -2.538341
     79          1           0       -0.293899    5.180695   -0.022461
     80          1           0       -0.297487    4.605664   -1.704691
     81          1           0        0.241316    3.591772   -0.335395
     82          1           0       -1.374154    7.060415   -0.089662
     83          1           0       -2.389381    8.059412   -1.115651
     84          1           0       -1.397358    6.795919   -1.874261
     85          1           0       -8.363090    4.476423   -0.146647
     86          1           0       -9.387297    2.278289    1.640791
     87          1           0       -7.152229    4.758132    2.471170
     88          1           0       -8.874959    4.190989    2.656499
     89          1           0       -8.369265    5.571213    1.696048
     90          1           0      -10.685731    3.352234   -0.528535
     91          1           0      -10.950464    1.838384    0.137234
     92          1           0      -10.534807    2.481847   -2.511452
     93          1           0      -10.168304    0.911104   -1.892942
     94          1           0       -8.828983    1.963538   -2.070961
     95          1           0       -9.793920   -2.623643    0.098855
     96          1           0       -9.170569   -2.968565    1.780785
     97          1           0       -8.858985   -4.108461    0.466392
     98          1           0       -3.885672   -4.555562   -0.991650
     99          1           0       -1.663958   -6.898548    2.146987
    100          1           0       -1.145574   -5.110981    2.160434
    101          1           0       -0.738513   -6.214605    0.849820
    102          1           0        3.225332   -3.462245    0.928386
    103          1           0        3.129260   -1.901609    1.513797
    104          1           0        4.760481   -1.000031   -0.049636
    105          1           0        5.815946   -4.850669   -0.547332
    106          1           0        5.061851   -4.437248   -2.206365
    107          1           0        4.139527   -4.502088   -0.823785
    108          1           0        7.431208   -2.829667   -1.247060
    109          1           0        6.806119   -1.255678   -0.673528
    110          1           0        6.067762   -0.577817   -2.493338
    111          1           0        5.723145   -2.010937   -3.421209
    112          1           0        7.709479   -2.206969   -4.506645
    113          1           0        8.493718   -2.138070   -2.976190
    114          1           0        7.632129    0.399358   -3.394632
    115          1           0        9.485052    0.562177   -5.634276
    116          1           0        7.672683    0.785492   -5.668630
    117          1           0        8.431405   -0.730069   -5.963577
    118          1           0       10.630400   -0.093551   -3.654247
    119          1           0        9.808505   -0.549481   -2.163987
    120          1           0        8.951367    1.960388   -2.469793
    121          1           0       10.436018    2.060500   -3.438827
    122          1           0       11.773704    2.412176   -1.753291
    123          1           0       11.502071    0.683091   -1.336566
    124          1           0        9.630930    1.365746   -0.102202
    125          1           0        8.795800    3.485604   -0.898306
    126          1           0       10.432133    4.165692   -0.743533
    127          1           0        9.460696    3.895900    0.700264
    128          1           0       11.447339    3.093154    1.422363
    129          1           0       12.356792    1.798593    0.693490
    130          1           0       11.609245    0.232641    2.047042
    131          1           0        9.990930    0.736153    2.067159
    132          1           0       10.944627    2.816588    3.565763
    133          1           0       12.357776    1.934258    3.463985
    134          1           0       10.993691   -0.227839    4.309789
    135          1           0        8.831812    0.339368    4.762598
    136          1           0        9.107668    2.088199    4.732915
    137          1           0        9.513292    1.063833    6.185988
    138          1           0       12.560558    0.137114    5.853128
    139          1           0       11.410960    1.080744    6.773216
    140          1           0       12.560436    1.840539    5.532862
 ---------------------------------------------------------------------

 SCF Done:  E(RZINDO/S) =  -474.421263596     A.U. after   19 cycles

 Excitation energies and oscillator strengths:

 Excited State   1:      Singlet-A      1.2704 eV  975.97 nm  f=0.5728  <S**2>=0.000
     175 ->178         0.17600
     176 ->177         0.66842
 This state for optimization and/or second-order correction.
 Total Energy, E(CIS/TDA) =  -474.374578633
 Copying the excited state density for this state as the 1-particle RhoCI density.

 Excited State   2:      Singlet-A      1.9324 eV  641.61 nm  f=0.0291  <S**2>=0.000
     175 ->177         0.53654
     176 ->178        -0.43296

 Excited State   3:      Singlet-A      2.8929 eV  428.57 nm  f=0.1251  <S**2>=0.000
     167 ->177         0.10860
     167 ->179        -0.14971
     168 ->177         0.35955
     168 ->179        -0.37200
     168 ->181         0.15817
     168 ->186        -0.18636
     175 ->177         0.13374
     176 ->178         0.18454
     176 ->179         0.10993

 Excited State   4:      Singlet-A      2.9629 eV  418.46 nm  f=0.7727  <S**2>=0.000
     168 ->177        -0.12988
     168 ->179         0.16011
     170 ->177         0.12569
     173 ->177        -0.15010
     175 ->177         0.33757
     176 ->178         0.44710
     176 ->179         0.19246

 Excited State   5:      Singlet-A      3.0102 eV  411.88 nm  f=0.0944  <S**2>=0.000
     170 ->181         0.11596
     171 ->177        -0.12620
     171 ->179        -0.12051
     171 ->181        -0.21348
     171 ->188        -0.10767
     176 ->178        -0.11631
     176 ->179         0.50048
     176 ->181         0.23244

 The electronic state is 1-A.
 Alpha  occ. eigenvalues --   -1.84354  -1.80925  -1.79940  -1.73611  -1.71316
 Alpha  occ. eigenvalues --   -1.70325  -1.66627  -1.61228  -1.59870  -1.57324
 Alpha  occ. eigenvalues --   -1.57127  -1.51840  -1.48539  -1.47914  -1.46213
 Alpha  occ. eigenvalues --   -1.43218  -1.42376  -1.40838  -1.40329  -1.39267
 Alpha  occ. eigenvalues --   -1.36858  -1.33657  -1.32760  -1.31507  -1.29233
 Alpha  occ. eigenvalues --   -1.27414  -1.25468  -1.22137  -1.20735  -1.18571
 Alpha  occ. eigenvalues --   -1.17103  -1.15847  -1.14904  -1.14528  -1.13830
 Alpha  occ. eigenvalues --   -1.13716  -1.11161  -1.09992  -1.05653  -1.04241
 Alpha  occ. eigenvalues --   -1.02998  -1.00798  -0.99643  -0.98563  -0.97963
 Alpha  occ. eigenvalues --   -0.96493  -0.95726  -0.94074  -0.93593  -0.92785
 Alpha  occ. eigenvalues --   -0.90482  -0.90012  -0.87905  -0.87108  -0.86759
 Alpha  occ. eigenvalues --   -0.85285  -0.84596  -0.83355  -0.81910  -0.80373
 Alpha  occ. eigenvalues --   -0.79762  -0.79033  -0.77194  -0.76747  -0.76725
 Alpha  occ. eigenvalues --   -0.75992  -0.75674  -0.75362  -0.74431  -0.74237
 Alpha  occ. eigenvalues --   -0.73713  -0.73210  -0.72166  -0.71835  -0.71568
 Alpha  occ. eigenvalues --   -0.70282  -0.69589  -0.68743  -0.68387  -0.67601
 Alpha  occ. eigenvalues --   -0.66988  -0.66697  -0.66071  -0.65959  -0.65949
 Alpha  occ. eigenvalues --   -0.65620  -0.65366  -0.65205  -0.64532  -0.64326
 Alpha  occ. eigenvalues --   -0.63227  -0.62846  -0.62482  -0.62061  -0.61927
 Alpha  occ. eigenvalues --   -0.61280  -0.61086  -0.60689  -0.60304  -0.59862
 Alpha  occ. eigenvalues --   -0.59545  -0.59269  -0.58977  -0.58259  -0.58022
 Alpha  occ. eigenvalues --   -0.57976  -0.57215  -0.56524  -0.56228  -0.56068
 Alpha  occ. eigenvalues --   -0.55913  -0.55616  -0.55461  -0.55107  -0.54422
 Alpha  occ. eigenvalues --   -0.54135  -0.53928  -0.53666  -0.53080  -0.52856
 Alpha  occ. eigenvalues --   -0.52538  -0.52005  -0.52000  -0.51353  -0.51216
 Alpha  occ. eigenvalues --   -0.50751  -0.50639  -0.50458  -0.50348  -0.50255
 Alpha  occ. eigenvalues --   -0.50046  -0.49742  -0.49529  -0.49256  -0.49030
 Alpha  occ. eigenvalues --   -0.48938  -0.48253  -0.47946  -0.47602  -0.47403
 Alpha  occ. eigenvalues --   -0.47310  -0.47020  -0.46550  -0.46467  -0.46196
 Alpha  occ. eigenvalues --   -0.46083  -0.46044  -0.45844  -0.45538  -0.44959
 Alpha  occ. eigenvalues --   -0.44618  -0.44333  -0.44120  -0.44014  -0.43596
 Alpha  occ. eigenvalues --   -0.43250  -0.43203  -0.43012  -0.42434  -0.42053
 Alpha  occ. eigenvalues --   -0.41277  -0.41252  -0.40990  -0.39365  -0.39068
 Alpha  occ. eigenvalues --   -0.38148  -0.36326  -0.35744  -0.35117  -0.33941
 Alpha  occ. eigenvalues --   -0.33916  -0.32592  -0.32063  -0.31308  -0.26797
 Alpha  occ. eigenvalues --   -0.21613
 Alpha virt. eigenvalues --   -0.08319  -0.01984  -0.00696   0.00515   0.01701
 Alpha virt. eigenvalues --    0.02294   0.02617   0.02985   0.04407   0.04957
 Alpha virt. eigenvalues --    0.06594   0.06827   0.07456   0.07854   0.08329

 Mulliken charges:
               1
     1  Mg   0.420058
     2  C   -0.071192
     3  C   -0.066965
     4  C   -0.044284
     5  C   -0.064258
     6  N   -0.296712
     7  C    0.164131
     8  C    0.003895
     9  C    0.007009
    10  C    0.086686
    11  C   -0.047373
    12  C   -0.004340
    13  C    0.010231
    14  C    0.473308
    15  O   -0.532597
    16  O   -0.249330
    17  N   -0.304510
    18  C    0.073385
    19  C   -0.004816
    20  C   -0.073769
    21  C    0.128032
    22  C   -0.041736
    23  C    0.321222
    24  O   -0.542394
    25  C   -0.034470
    26  N   -0.267541
    27  C    0.101561
    28  C    0.010778
    29  C    0.018660
    30  C    0.157801
    31  C   -0.051094
    32  C   -0.031736
    33  C   -0.061504
    34  N   -0.336386
    35  C    0.122482
    36  C    0.067952
    37  C   -0.052655
    38  C    0.148617
    39  C   -0.035181
    40  C    0.346616
    41  O   -0.503219
    42  C    0.057972
    43  C    0.493344
    44  O   -0.540879
    45  O   -0.271664
    46  C    0.074782
    47  C    0.112455
    48  C   -0.089323
    49  C   -0.005206
    50  C   -0.051992
    51  C   -0.014769
    52  C   -0.034668
    53  C   -0.046437
    54  C   -0.017125
    55  C   -0.057598
    56  C   -0.038703
    57  C   -0.046552
    58  C   -0.016013
    59  C   -0.010842
    60  C   -0.060649
    61  C   -0.037960
    62  C   -0.029775
    63  C   -0.023687
    64  C   -0.014035
    65  C   -0.058217
    66  C   -0.072918
    67  H    0.028961
    68  H    0.034639
    69  H    0.019641
    70  H    0.040002
    71  H    0.013650
    72  H    0.021637
    73  H    0.036100
    74  H    0.025857
    75  H    0.019808
    76  H    0.027883
    77  H    0.019825
    78  H    0.038546
    79  H    0.020459
    80  H    0.028931
    81  H    0.022169
    82  H    0.039157
    83  H    0.029338
    84  H    0.038350
    85  H    0.037902
    86  H    0.030090
    87  H    0.036704
    88  H    0.021172
    89  H    0.011714
    90  H    0.020450
    91  H    0.014950
    92  H    0.024868
    93  H    0.009744
    94  H    0.029907
    95  H    0.033264
    96  H    0.045857
    97  H    0.031364
    98  H    0.050422
    99  H    0.051057
   100  H    0.058158
   101  H    0.028336
   102  H    0.052766
   103  H    0.039432
   104  H    0.021087
   105  H    0.034849
   106  H    0.035344
   107  H    0.013114
   108  H    0.024504
   109  H    0.020640
   110  H    0.021670
   111  H    0.022528
   112  H    0.026693
   113  H    0.009523
   114  H    0.017835
   115  H    0.020541
   116  H    0.021619
   117  H    0.012514
   118  H    0.016816
   119  H    0.017761
   120  H    0.036162
   121  H    0.009835
   122  H    0.015390
   123  H    0.023415
   124  H    0.009706
   125  H    0.019366
   126  H    0.016220
   127  H    0.018508
   128  H    0.017993
   129  H    0.011677
   130  H    0.014153
   131  H    0.016231
   132  H    0.029532
   133  H    0.004807
   134  H    0.028729
   135  H    0.009897
   136  H    0.025279
   137  H    0.020688
   138  H    0.009195
   139  H    0.026753
   140  H    0.022414
 Sum of Mulliken charges =  -0.00000

 Dipole moment (field-independent basis, Debye):
    X=              3.6204    Y=              0.9967    Z=             -3.8490  Tot=              5.3773
 N-N= 4.398847617228D+03 E-N= 0.000000000000D+00  KE=-9.472230097415D+03
 Leave Link  601 at Thu May  5 00:43:39 2022, MaxMem=  6710886400 cpu:               0.8 elap:               0.0
 (Enter /sw/apps/gaussian-16.0/g16/l9999.exe)
 1\1\GINC-BP1-COMPUTE192\SP\RZINDO CIS\STO-3G\C55H74Mg1N4O6\OF15641\05-
 May-2022\0\\#p ZINDO=(nstates=5)\\step_451_chromophore_9 ZINDO\\0,1\Mg
 ,0,35.209,2.004,30.386\C,0,32.718,2.89,32.656\C,0,37.574,1.913,32.914\
 C,0,37.427,1.247,28.101\C,0,32.806,2.617,27.846\N,0,35.197,2.655,32.48
 \C,0,34.045,2.809,33.223\C,0,34.453,2.899,34.695\C,0,36.008,3.26,34.52
 9\C,0,36.357,2.503,33.248\C,0,36.316,4.845,34.525\C,0,34.142,1.617,35.
 509\C,0,34.579,1.647,36.927\C,0,35.054,2.915,37.654\O,0,34.305,3.884,3

 Normal termination of Gaussian 16 at Thu May  5 00:43:40 2022.
