 Gaussian 16, Revision A.03,
 Gaussian 16:  ES64L-G16RevA.03 25-Dec-2016

 ------------------------------
 #p blyp/Def2SVP td=(nstates=5)
 ------------------------------

 ---------------------------------------------------
 step_1501_chromophore_11 TDDFT with blyp functional
 ---------------------------------------------------
 Symbolic Z-matrix:
 Charge =  0 Multiplicity = 1

                         Standard orientation:
 ---------------------------------------------------------------------
 Center     Atomic      Atomic             Coordinates (Angstroms)
 Number     Number       Type             X           Y           Z
 ---------------------------------------------------------------------
      1         12           0       -4.349368    1.425476    0.667945
      2          6           0       -5.616390   -1.896333    0.050187
      3          6           0       -2.490925    0.303199    3.129409
      4          6           0       -2.995290    4.454066    0.664705
      5          6           0       -6.546352    2.401308   -2.105464
      6          7           0       -3.848931   -0.663036    1.328670
      7          6           0       -4.649357   -1.833172    1.088696
      8          6           0       -4.264477   -2.862465    2.146980
      9          6           0       -3.788310   -1.970475    3.337089
     10          6           0       -3.304690   -0.740425    2.543480
     11          6           0       -4.840435   -1.598093    4.416781
     12          6           0       -3.359825   -4.033731    1.742241
     13          6           0       -2.490070   -3.757571    0.554840
     14          6           0       -1.104087   -4.496666    0.528391
     15          8           0       -0.803451   -5.481436   -0.125622
     16          8           0       -0.169213   -3.814752    1.282382
     17          7           0       -2.766253    2.228885    1.604678
     18          6           0       -2.149693    1.636499    2.670451
     19          6           0       -1.175813    2.503788    3.151999
     20          6           0       -1.368733    3.753670    2.506271
     21          6           0       -2.446762    3.496738    1.542846
     22          6           0       -0.405934    2.243653    4.485687
     23          6           0       -0.602193    5.074813    2.738328
     24          8           0        0.292448    5.062681    3.596112
     25          6           0       -0.861732    6.430411    2.063821
     26          7           0       -4.596054    3.131844   -0.661757
     27          6           0       -4.023395    4.311187   -0.314481
     28          6           0       -4.585768    5.441277   -1.139007
     29          6           0       -5.494188    4.734677   -2.210986
     30          6           0       -5.555278    3.300778   -1.609024
     31          6           0       -5.278733    6.464434   -0.288823
     32          6           0       -4.763877    4.659007   -3.569637
     33          6           0       -5.350491    5.744393   -4.526693
     34          7           0       -5.927551    0.487197   -0.638695
     35          6           0       -6.692490    1.032589   -1.629626
     36          6           0       -7.707380    0.072242   -2.036246
     37          6           0       -7.289619   -1.112081   -1.458587
     38          6           0       -6.105923   -0.851663   -0.665459
     39          6           0       -8.943854    0.336066   -2.879809
     40          6           0       -7.565643   -2.528990   -1.318231
     41          8           0       -8.426834   -3.286109   -1.735376
     42          6           0       -6.383477   -3.091388   -0.505417
     43          6           0       -5.567309   -3.890365   -1.430252
     44          8           0       -4.694231   -3.479893   -2.155277
     45          8           0       -5.859895   -5.238104   -1.352627
     46          6           0       -4.908517   -6.153162   -2.041976
     47          6           0        1.181613   -4.356498    1.319904
     48          6           0        1.967845   -3.676984    0.166271
     49          6           0        3.260545   -4.007353   -0.165056
     50          6           0        4.194348   -4.787368    0.670280
     51          6           0        3.899787   -3.257599   -1.287668
     52          6           0        4.461999   -1.802743   -1.135506
     53          6           0        6.007663   -1.626544   -1.188506
     54          6           0        6.401079   -0.151883   -1.430926
     55          6           0        6.861359    0.119833   -2.905564
     56          6           0        7.468886    0.349972   -0.413115
     57          6           0        8.935413   -0.015803   -0.683293
     58          6           0        9.935753    0.692305    0.273589
     59          6           0       11.006342   -0.251824    0.807109
     60          6           0       10.602969   -0.680759    2.369847
     61          6           0       12.373010    0.533751    0.745074
     62          6           0       12.977866    0.449091   -0.719379
     63          6           0       14.505340    0.098071   -0.692333
     64          6           0       15.366612    1.096289   -1.454771
     65          6           0       15.205441    2.519849   -0.877142
     66          6           0       15.005759    0.960453   -2.981660
     67          1           0       -2.166759   -0.007629    4.124852
     68          1           0       -2.603980    5.473753    0.685556
     69          1           0       -7.239475    2.643574   -2.913945
     70          1           0       -5.218169   -3.345445    2.359336
     71          1           0       -2.895058   -2.382544    3.806282
     72          1           0       -5.792124   -2.000828    4.070998
     73          1           0       -4.947669   -0.515201    4.491287
     74          1           0       -4.625200   -2.088665    5.366044
     75          1           0       -4.005618   -4.891110    1.551118
     76          1           0       -2.677331   -4.271888    2.557135
     77          1           0       -2.268752   -2.710890    0.349002
     78          1           0       -2.967277   -4.144972   -0.345051
     79          1           0       -0.132644    1.213638    4.716600
     80          1           0       -1.032492    2.494099    5.341556
     81          1           0        0.551053    2.764030    4.433207
     82          1           0       -0.138047    7.200085    2.333587
     83          1           0       -1.875898    6.824632    2.114196
     84          1           0       -0.621635    6.235748    1.018495
     85          1           0       -3.758735    6.022682   -1.546549
     86          1           0       -6.474843    5.212642   -2.222198
     87          1           0       -4.551865    7.211127    0.033847
     88          1           0       -5.837770    5.940914    0.486659
     89          1           0       -6.055295    6.987566   -0.847691
     90          1           0       -4.841337    3.655563   -3.987286
     91          1           0       -3.719865    4.855915   -3.327044
     92          1           0       -6.426246    5.907175   -4.457996
     93          1           0       -5.261953    5.396764   -5.556007
     94          1           0       -4.894988    6.733244   -4.480418
     95          1           0       -9.776998   -0.171294   -2.392006
     96          1           0       -8.854533   -0.164399   -3.844191
     97          1           0       -9.301352    1.366172   -2.875497
     98          1           0       -6.820523   -3.697411    0.287488
     99          1           0       -4.348307   -6.551677   -1.196327
    100          1           0       -4.164049   -5.711934   -2.705319
    101          1           0       -5.339160   -7.083268   -2.412450
    102          1           0        1.278074   -5.432188    1.170692
    103          1           0        1.575638   -4.124713    2.309044
    104          1           0        1.381440   -3.000448   -0.455937
    105          1           0        5.194508   -4.354160    0.665534
    106          1           0        4.388583   -5.783038    0.270244
    107          1           0        3.869827   -4.771694    1.710338
    108          1           0        3.250175   -3.268545   -2.162868
    109          1           0        4.577091   -4.019945   -1.671213
    110          1           0        4.158951   -1.482673   -0.138752
    111          1           0        3.930520   -1.152125   -1.829855
    112          1           0        6.402240   -2.351759   -1.899929
    113          1           0        6.257199   -2.000070   -0.195962
    114          1           0        5.511921    0.464949   -1.294809
    115          1           0        7.387051    1.074516   -2.858903
    116          1           0        5.991702    0.288851   -3.540092
    117          1           0        7.501933   -0.659580   -3.317997
    118          1           0        7.189473    0.039916    0.594218
    119          1           0        7.328500    1.426404   -0.317531
    120          1           0        9.164576    0.315728   -1.696609
    121          1           0        9.059469   -1.097133   -0.748228
    122          1           0        9.394619    1.164044    1.093991
    123          1           0       10.412026    1.513007   -0.262397
    124          1           0       11.055806   -1.168372    0.219186
    125          1           0       10.859262   -1.736092    2.470621
    126          1           0        9.539866   -0.529409    2.554001
    127          1           0       11.239450   -0.210910    3.118665
    128          1           0       13.008248   -0.005473    1.448169
    129          1           0       12.316503    1.559265    1.110696
    130          1           0       12.709316    1.389715   -1.199813
    131          1           0       12.559951   -0.429975   -1.210614
    132          1           0       14.770795   -0.808395   -1.237628
    133          1           0       14.998133   -0.018842    0.271838
    134          1           0       16.444784    1.029751   -1.305614
    135          1           0       14.341568    3.037725   -1.294031
    136          1           0       15.949951    3.214271   -1.267162
    137          1           0       15.162857    2.635382    0.205077
    138          1           0       14.175310    0.266733   -3.114206
    139          1           0       15.804881    0.494381   -3.558049
    140          1           0       14.740317    1.896907   -3.471578
 ---------------------------------------------------------------------

 SCF Done:  E(RB-LYP) =  -3007.36875705     A.U. after   22 cycles

 Excitation energies and oscillator strengths:

 Excited State   1:      Singlet-A      1.7478 eV  709.36 nm  f=0.0061  <S**2>=0.000
     244 -> 247        0.69965
 This state for optimization and/or second-order correction.
 Total Energy, E(TD-HF/TD-DFT) =  -3007.30452544
 Copying the excited state density for this state as the 1-particle RhoCI density.

 Excited State   2:      Singlet-A      1.7853 eV  694.48 nm  f=0.2910  <S**2>=0.000
     245 -> 248        0.20447
     246 -> 247        0.68063
     246 <- 247       -0.14700

 Excited State   3:      Singlet-A      1.9222 eV  645.01 nm  f=0.0238  <S**2>=0.000
     243 -> 247        0.53911
     245 -> 247        0.42769
     246 -> 248       -0.13163

 Excited State   4:      Singlet-A      1.9350 eV  640.74 nm  f=0.0002  <S**2>=0.000
     242 -> 247        0.70671

 Excited State   5:      Singlet-A      2.0067 eV  617.84 nm  f=0.0439  <S**2>=0.000
     243 -> 247       -0.45153
     245 -> 247        0.48496
     246 -> 248       -0.22101

 The electronic state is 1-A.
 Alpha  occ. eigenvalues --  -46.28707 -18.81367 -18.81349 -18.76294 -18.76273
 Alpha  occ. eigenvalues --  -18.75932 -18.75340 -14.03785 -14.03762 -14.01236
 Alpha  occ. eigenvalues --  -14.01099 -10.03514 -10.03480 -10.00466  -9.99762
 Alpha  occ. eigenvalues --   -9.97453  -9.97432  -9.97230  -9.97105  -9.97020
 Alpha  occ. eigenvalues --   -9.96926  -9.96065  -9.96058  -9.95775  -9.94742
 Alpha  occ. eigenvalues --   -9.94660  -9.94474  -9.94147  -9.94014  -9.93887
 Alpha  occ. eigenvalues --   -9.93883  -9.93792  -9.93764  -9.93748  -9.93438
 Alpha  occ. eigenvalues --   -9.93359  -9.93350  -9.93227  -9.93213  -9.93012
 Alpha  occ. eigenvalues --   -9.92972  -9.92741  -9.92695  -9.92601  -9.92287
 Alpha  occ. eigenvalues --   -9.92038  -9.91873  -9.91853  -9.91840  -9.91756
 Alpha  occ. eigenvalues --   -9.91605  -9.91553  -9.91533  -9.91303  -9.91302
 Alpha  occ. eigenvalues --   -9.91040  -9.90926  -9.90842  -9.90817  -9.90797
 Alpha  occ. eigenvalues --   -9.90748  -9.90682  -9.90641  -9.90619  -9.90418
 Alpha  occ. eigenvalues --   -9.90224  -2.93154  -1.73559  -1.73047  -1.72872
 Alpha  occ. eigenvalues --   -0.97312  -0.97073  -0.91740  -0.90679  -0.89288
 Alpha  occ. eigenvalues --   -0.89113  -0.87773  -0.86736  -0.86299  -0.85521
 Alpha  occ. eigenvalues --   -0.76385  -0.73369  -0.72856  -0.72840  -0.72288
 Alpha  occ. eigenvalues --   -0.72099  -0.71569  -0.70751  -0.70196  -0.70164
 Alpha  occ. eigenvalues --   -0.69535  -0.68974  -0.67798  -0.67602  -0.66984
 Alpha  occ. eigenvalues --   -0.65818  -0.65471  -0.64917  -0.64836  -0.64413
 Alpha  occ. eigenvalues --   -0.62942  -0.62663  -0.62068  -0.61488  -0.60808
 Alpha  occ. eigenvalues --   -0.60396  -0.60236  -0.60141  -0.59012  -0.58532
 Alpha  occ. eigenvalues --   -0.58392  -0.57757  -0.57285  -0.55849  -0.54887
 Alpha  occ. eigenvalues --   -0.54455  -0.54257  -0.52758  -0.52641  -0.52197
 Alpha  occ. eigenvalues --   -0.51838  -0.51482  -0.51245  -0.50444  -0.49203
 Alpha  occ. eigenvalues --   -0.48841  -0.48054  -0.47755  -0.47486  -0.46753
 Alpha  occ. eigenvalues --   -0.46318  -0.45937  -0.45911  -0.45596  -0.45293
 Alpha  occ. eigenvalues --   -0.44452  -0.43749  -0.43352  -0.42932  -0.42494
 Alpha  occ. eigenvalues --   -0.42031  -0.41583  -0.41093  -0.41041  -0.40972
 Alpha  occ. eigenvalues --   -0.40488  -0.40257  -0.40103  -0.39839  -0.39719
 Alpha  occ. eigenvalues --   -0.39576  -0.39373  -0.39263  -0.39123  -0.38943
 Alpha  occ. eigenvalues --   -0.38919  -0.38582  -0.38388  -0.38150  -0.37991
 Alpha  occ. eigenvalues --   -0.37902  -0.37724  -0.37445  -0.37377  -0.37251
 Alpha  occ. eigenvalues --   -0.37186  -0.36804  -0.36609  -0.36457  -0.36383
 Alpha  occ. eigenvalues --   -0.36255  -0.36040  -0.35909  -0.35613  -0.35375
 Alpha  occ. eigenvalues --   -0.35222  -0.35044  -0.34840  -0.34691  -0.34579
 Alpha  occ. eigenvalues --   -0.34541  -0.34270  -0.34030  -0.33618  -0.33541
 Alpha  occ. eigenvalues --   -0.33437  -0.33389  -0.33184  -0.33078  -0.32881
 Alpha  occ. eigenvalues --   -0.32826  -0.32655  -0.32390  -0.32278  -0.32203
 Alpha  occ. eigenvalues --   -0.32038  -0.31915  -0.31785  -0.31736  -0.31613
 Alpha  occ. eigenvalues --   -0.31549  -0.31471  -0.31270  -0.31092  -0.30867
 Alpha  occ. eigenvalues --   -0.30533  -0.30198  -0.30144  -0.29813  -0.29687
 Alpha  occ. eigenvalues --   -0.29672  -0.29552  -0.29421  -0.29112  -0.28992
 Alpha  occ. eigenvalues --   -0.28845  -0.28356  -0.28270  -0.28205  -0.27907
 Alpha  occ. eigenvalues --   -0.27412  -0.27089  -0.26845  -0.26672  -0.26471
 Alpha  occ. eigenvalues --   -0.26212  -0.25798  -0.25691  -0.25556  -0.25040
 Alpha  occ. eigenvalues --   -0.24269  -0.24254  -0.23931  -0.23863  -0.23608
 Alpha  occ. eigenvalues --   -0.23278  -0.22341  -0.21870  -0.21158  -0.20981
 Alpha  occ. eigenvalues --   -0.20628  -0.19113  -0.19039  -0.18340  -0.17642
 Alpha  occ. eigenvalues --   -0.16232
 Alpha virt. eigenvalues --   -0.12002  -0.07508  -0.06772  -0.04871  -0.03769
 Alpha virt. eigenvalues --   -0.02451  -0.02012  -0.01847  -0.01677  -0.00361
 Alpha virt. eigenvalues --    0.00899   0.01802   0.01944   0.02603   0.02990

 Mulliken charges:
               1
     1  Mg   0.665466
     2  C    0.029885
     3  C   -0.033191
     4  C   -0.055659
     5  C   -0.049579
     6  N   -0.220336
     7  C   -0.103690
     8  C    0.049477
     9  C    0.006677
    10  C   -0.040713
    11  C    0.153637
    12  C    0.152434
    13  C    0.121519
    14  C    0.048156
    15  O   -0.182883
    16  O   -0.280670
    17  N   -0.285098
    18  C    0.164087
    19  C   -0.131452
    20  C    0.023603
    21  C    0.145420
    22  C    0.146956
    23  C   -0.067312
    24  O   -0.179242
    25  C    0.154081
    26  N   -0.194628
    27  C   -0.010277
    28  C    0.006091
    29  C    0.007029
    30  C    0.038390
    31  C    0.134906
    32  C    0.124646
    33  C    0.063183
    34  N   -0.219763
    35  C    0.061952
    36  C   -0.199163
    37  C    0.116332
    38  C    0.076557
    39  C    0.175302
    40  C   -0.079820
    41  O   -0.121522
    42  C    0.075400
    43  C    0.127130
    44  O   -0.167837
    45  O   -0.279908
    46  C    0.209887
    47  C    0.300934
    48  C   -0.106391
    49  C   -0.149913
    50  C    0.152411
    51  C    0.122436
    52  C    0.068772
    53  C    0.119347
    54  C   -0.031363
    55  C    0.096854
    56  C    0.056855
    57  C    0.080289
    58  C    0.136470
    59  C   -0.098026
    60  C    0.079802
    61  C    0.085092
    62  C    0.087764
    63  C    0.101289
    64  C   -0.086816
    65  C    0.081164
    66  C    0.095816
    67  H   -0.057158
    68  H   -0.108827
    69  H   -0.051077
    70  H   -0.050545
    71  H   -0.028563
    72  H   -0.011607
    73  H   -0.000620
    74  H    0.003967
    75  H   -0.012360
    76  H   -0.020181
    77  H    0.019713
    78  H   -0.005487
    79  H   -0.027535
    80  H    0.003669
    81  H    0.014706
    82  H   -0.012291
    83  H    0.024443
    84  H    0.003339
    85  H   -0.030789
    86  H   -0.028110
    87  H   -0.001234
    88  H   -0.014739
    89  H   -0.018160
    90  H   -0.009659
    91  H   -0.016268
    92  H   -0.015816
    93  H   -0.014508
    94  H   -0.005944
    95  H   -0.001975
    96  H    0.016717
    97  H   -0.008467
    98  H   -0.013323
    99  H    0.001551
   100  H    0.040971
   101  H    0.014909
   102  H    0.010654
   103  H    0.000746
   104  H   -0.024621
   105  H   -0.015306
   106  H    0.002266
   107  H   -0.014468
   108  H   -0.039736
   109  H   -0.055435
   110  H   -0.029325
   111  H   -0.024753
   112  H   -0.031954
   113  H   -0.033998
   114  H   -0.039787
   115  H   -0.015088
   116  H   -0.019672
   117  H   -0.002268
   118  H   -0.042562
   119  H   -0.042644
   120  H   -0.039989
   121  H   -0.032124
   122  H   -0.033187
   123  H   -0.038301
   124  H   -0.024976
   125  H   -0.021747
   126  H   -0.003060
   127  H   -0.013385
   128  H   -0.042587
   129  H   -0.022069
   130  H    0.000422
   131  H   -0.020853
   132  H   -0.035654
   133  H   -0.032459
   134  H   -0.034125
   135  H   -0.037046
   136  H   -0.030407
   137  H   -0.011479
   138  H   -0.017596
   139  H   -0.017940
   140  H   -0.020474
 Sum of Mulliken charges =  -0.00000

 Dipole moment (field-independent basis, Debye):
    X=             -1.0601    Y=              3.5070    Z=              1.3971  Tot=              3.9211
 Quadrupole moment (field-independent basis, Debye-Ang):
   XX=           -402.0831   YY=           -395.1743   ZZ=           -402.9141
   XY=            -44.9121   XZ=            -18.8379   YZ=            -33.2060

 Normal termination of Gaussian 16 at Thu Apr 28 07:11:25 2022.
