 Gaussian 16, Revision A.03,
 Gaussian 16:  ES64L-G16RevA.03 25-Dec-2016

 -----------------------------------
 #p cam-b3lyp/Def2SVP td=(nstates=5)
 -----------------------------------

 --------------------------------------------------------
 step_1501_chromophore_11 TDDFT with cam-b3lyp functional
 --------------------------------------------------------
 Symbolic Z-matrix:
 Charge =  0 Multiplicity = 1

                         Standard orientation:
 ---------------------------------------------------------------------
 Center     Atomic      Atomic             Coordinates (Angstroms)
 Number     Number       Type             X           Y           Z
 ---------------------------------------------------------------------
      1         12           0       -4.349368    1.425476    0.667945
      2          6           0       -5.616390   -1.896333    0.050187
      3          6           0       -2.490925    0.303199    3.129409
      4          6           0       -2.995290    4.454066    0.664705
      5          6           0       -6.546352    2.401308   -2.105464
      6          7           0       -3.848931   -0.663036    1.328670
      7          6           0       -4.649357   -1.833172    1.088696
      8          6           0       -4.264477   -2.862465    2.146980
      9          6           0       -3.788310   -1.970475    3.337089
     10          6           0       -3.304690   -0.740425    2.543480
     11          6           0       -4.840435   -1.598093    4.416781
     12          6           0       -3.359825   -4.033731    1.742241
     13          6           0       -2.490070   -3.757571    0.554840
     14          6           0       -1.104087   -4.496666    0.528391
     15          8           0       -0.803451   -5.481436   -0.125622
     16          8           0       -0.169213   -3.814752    1.282382
     17          7           0       -2.766253    2.228885    1.604678
     18          6           0       -2.149693    1.636499    2.670451
     19          6           0       -1.175813    2.503788    3.151999
     20          6           0       -1.368733    3.753670    2.506271
     21          6           0       -2.446762    3.496738    1.542846
     22          6           0       -0.405934    2.243653    4.485687
     23          6           0       -0.602193    5.074813    2.738328
     24          8           0        0.292448    5.062681    3.596112
     25          6           0       -0.861732    6.430411    2.063821
     26          7           0       -4.596054    3.131844   -0.661757
     27          6           0       -4.023395    4.311187   -0.314481
     28          6           0       -4.585768    5.441277   -1.139007
     29          6           0       -5.494188    4.734677   -2.210986
     30          6           0       -5.555278    3.300778   -1.609024
     31          6           0       -5.278733    6.464434   -0.288823
     32          6           0       -4.763877    4.659007   -3.569637
     33          6           0       -5.350491    5.744393   -4.526693
     34          7           0       -5.927551    0.487197   -0.638695
     35          6           0       -6.692490    1.032589   -1.629626
     36          6           0       -7.707380    0.072242   -2.036246
     37          6           0       -7.289619   -1.112081   -1.458587
     38          6           0       -6.105923   -0.851663   -0.665459
     39          6           0       -8.943854    0.336066   -2.879809
     40          6           0       -7.565643   -2.528990   -1.318231
     41          8           0       -8.426834   -3.286109   -1.735376
     42          6           0       -6.383477   -3.091388   -0.505417
     43          6           0       -5.567309   -3.890365   -1.430252
     44          8           0       -4.694231   -3.479893   -2.155277
     45          8           0       -5.859895   -5.238104   -1.352627
     46          6           0       -4.908517   -6.153162   -2.041976
     47          6           0        1.181613   -4.356498    1.319904
     48          6           0        1.967845   -3.676984    0.166271
     49          6           0        3.260545   -4.007353   -0.165056
     50          6           0        4.194348   -4.787368    0.670280
     51          6           0        3.899787   -3.257599   -1.287668
     52          6           0        4.461999   -1.802743   -1.135506
     53          6           0        6.007663   -1.626544   -1.188506
     54          6           0        6.401079   -0.151883   -1.430926
     55          6           0        6.861359    0.119833   -2.905564
     56          6           0        7.468886    0.349972   -0.413115
     57          6           0        8.935413   -0.015803   -0.683293
     58          6           0        9.935753    0.692305    0.273589
     59          6           0       11.006342   -0.251824    0.807109
     60          6           0       10.602969   -0.680759    2.369847
     61          6           0       12.373010    0.533751    0.745074
     62          6           0       12.977866    0.449091   -0.719379
     63          6           0       14.505340    0.098071   -0.692333
     64          6           0       15.366612    1.096289   -1.454771
     65          6           0       15.205441    2.519849   -0.877142
     66          6           0       15.005759    0.960453   -2.981660
     67          1           0       -2.166759   -0.007629    4.124852
     68          1           0       -2.603980    5.473753    0.685556
     69          1           0       -7.239475    2.643574   -2.913945
     70          1           0       -5.218169   -3.345445    2.359336
     71          1           0       -2.895058   -2.382544    3.806282
     72          1           0       -5.792124   -2.000828    4.070998
     73          1           0       -4.947669   -0.515201    4.491287
     74          1           0       -4.625200   -2.088665    5.366044
     75          1           0       -4.005618   -4.891110    1.551118
     76          1           0       -2.677331   -4.271888    2.557135
     77          1           0       -2.268752   -2.710890    0.349002
     78          1           0       -2.967277   -4.144972   -0.345051
     79          1           0       -0.132644    1.213638    4.716600
     80          1           0       -1.032492    2.494099    5.341556
     81          1           0        0.551053    2.764030    4.433207
     82          1           0       -0.138047    7.200085    2.333587
     83          1           0       -1.875898    6.824632    2.114196
     84          1           0       -0.621635    6.235748    1.018495
     85          1           0       -3.758735    6.022682   -1.546549
     86          1           0       -6.474843    5.212642   -2.222198
     87          1           0       -4.551865    7.211127    0.033847
     88          1           0       -5.837770    5.940914    0.486659
     89          1           0       -6.055295    6.987566   -0.847691
     90          1           0       -4.841337    3.655563   -3.987286
     91          1           0       -3.719865    4.855915   -3.327044
     92          1           0       -6.426246    5.907175   -4.457996
     93          1           0       -5.261953    5.396764   -5.556007
     94          1           0       -4.894988    6.733244   -4.480418
     95          1           0       -9.776998   -0.171294   -2.392006
     96          1           0       -8.854533   -0.164399   -3.844191
     97          1           0       -9.301352    1.366172   -2.875497
     98          1           0       -6.820523   -3.697411    0.287488
     99          1           0       -4.348307   -6.551677   -1.196327
    100          1           0       -4.164049   -5.711934   -2.705319
    101          1           0       -5.339160   -7.083268   -2.412450
    102          1           0        1.278074   -5.432188    1.170692
    103          1           0        1.575638   -4.124713    2.309044
    104          1           0        1.381440   -3.000448   -0.455937
    105          1           0        5.194508   -4.354160    0.665534
    106          1           0        4.388583   -5.783038    0.270244
    107          1           0        3.869827   -4.771694    1.710338
    108          1           0        3.250175   -3.268545   -2.162868
    109          1           0        4.577091   -4.019945   -1.671213
    110          1           0        4.158951   -1.482673   -0.138752
    111          1           0        3.930520   -1.152125   -1.829855
    112          1           0        6.402240   -2.351759   -1.899929
    113          1           0        6.257199   -2.000070   -0.195962
    114          1           0        5.511921    0.464949   -1.294809
    115          1           0        7.387051    1.074516   -2.858903
    116          1           0        5.991702    0.288851   -3.540092
    117          1           0        7.501933   -0.659580   -3.317997
    118          1           0        7.189473    0.039916    0.594218
    119          1           0        7.328500    1.426404   -0.317531
    120          1           0        9.164576    0.315728   -1.696609
    121          1           0        9.059469   -1.097133   -0.748228
    122          1           0        9.394619    1.164044    1.093991
    123          1           0       10.412026    1.513007   -0.262397
    124          1           0       11.055806   -1.168372    0.219186
    125          1           0       10.859262   -1.736092    2.470621
    126          1           0        9.539866   -0.529409    2.554001
    127          1           0       11.239450   -0.210910    3.118665
    128          1           0       13.008248   -0.005473    1.448169
    129          1           0       12.316503    1.559265    1.110696
    130          1           0       12.709316    1.389715   -1.199813
    131          1           0       12.559951   -0.429975   -1.210614
    132          1           0       14.770795   -0.808395   -1.237628
    133          1           0       14.998133   -0.018842    0.271838
    134          1           0       16.444784    1.029751   -1.305614
    135          1           0       14.341568    3.037725   -1.294031
    136          1           0       15.949951    3.214271   -1.267162
    137          1           0       15.162857    2.635382    0.205077
    138          1           0       14.175310    0.266733   -3.114206
    139          1           0       15.804881    0.494381   -3.558049
    140          1           0       14.740317    1.896907   -3.471578
 ---------------------------------------------------------------------

 SCF Done:  E(RCAM-B3LYP) =  -3007.15674724     A.U. after   17 cycles

 Excitation energies and oscillator strengths:

 Excited State   1:      Singlet-A      1.6717 eV  741.67 nm  f=0.3682  <S**2>=0.000
     245 -> 248        0.18700
     246 -> 247        0.68446
     245 <- 248        0.11114
 This state for optimization and/or second-order correction.
 Total Energy, E(TD-HF/TD-DFT) =  -3007.09531395
 Copying the excited state density for this state as the 1-particle RhoCI density.

 Excited State   2:      Singlet-A      2.1967 eV  564.40 nm  f=0.0838  <S**2>=0.000
     245 -> 247        0.63035
     246 -> 248       -0.30964

 Excited State   3:      Singlet-A      3.3628 eV  368.69 nm  f=0.1296  <S**2>=0.000
     243 -> 247        0.57244
     245 -> 247        0.13630
     246 -> 248        0.35735

 Excited State   4:      Singlet-A      3.4109 eV  363.50 nm  f=0.1354  <S**2>=0.000
     241 -> 247        0.22478
     241 -> 249       -0.16552
     241 -> 251        0.17010
     242 -> 247        0.46196
     243 -> 247        0.16043
     245 -> 247       -0.13847
     246 -> 248       -0.32864

 Excited State   5:      Singlet-A      3.4537 eV  358.99 nm  f=0.0754  <S**2>=0.000
     241 -> 247        0.48837
     241 -> 249       -0.21933
     241 -> 251        0.21175
     242 -> 247       -0.16659
     243 -> 247       -0.23187
     245 -> 247        0.10068
     246 -> 248        0.21412

 The electronic state is 1-A.
 Alpha  occ. eigenvalues --  -46.90380 -19.24302 -19.24167 -19.19497 -19.19291
 Alpha  occ. eigenvalues --  -19.19208 -19.18584 -14.42827 -14.42524 -14.39670
 Alpha  occ. eigenvalues --  -14.39509 -10.39025 -10.38797 -10.35702 -10.35140
 Alpha  occ. eigenvalues --  -10.31981 -10.31667 -10.31611 -10.31588 -10.31454
 Alpha  occ. eigenvalues --  -10.30927 -10.30542 -10.30320 -10.30092 -10.28872
 Alpha  occ. eigenvalues --  -10.28763 -10.28538 -10.28503 -10.28408 -10.28247
 Alpha  occ. eigenvalues --  -10.28127 -10.27930 -10.27806 -10.27789 -10.27629
 Alpha  occ. eigenvalues --  -10.27370 -10.27327 -10.27241 -10.27073 -10.26885
 Alpha  occ. eigenvalues --  -10.26838 -10.26715 -10.26624 -10.26368 -10.25914
 Alpha  occ. eigenvalues --  -10.25885 -10.25850 -10.25676 -10.25572 -10.25446
 Alpha  occ. eigenvalues --  -10.25432 -10.25428 -10.25305 -10.25281 -10.24952
 Alpha  occ. eigenvalues --  -10.24737 -10.24593 -10.24482 -10.24452 -10.24388
 Alpha  occ. eigenvalues --  -10.24373 -10.24284 -10.24280 -10.24266 -10.24057
 Alpha  occ. eigenvalues --  -10.23824  -3.18720  -1.93604  -1.93175  -1.93025
 Alpha  occ. eigenvalues --   -1.15961  -1.15515  -1.10228  -1.09059  -1.07231
 Alpha  occ. eigenvalues --   -1.06967  -1.05521  -1.04390  -1.03964  -1.03137
 Alpha  occ. eigenvalues --   -0.93609  -0.90193  -0.89658  -0.89484  -0.89056
 Alpha  occ. eigenvalues --   -0.88785  -0.88252  -0.87337  -0.86711  -0.86691
 Alpha  occ. eigenvalues --   -0.85997  -0.85506  -0.83958  -0.83827  -0.83154
 Alpha  occ. eigenvalues --   -0.81834  -0.81505  -0.80902  -0.80639  -0.80190
 Alpha  occ. eigenvalues --   -0.78668  -0.78294  -0.77567  -0.77043  -0.76224
 Alpha  occ. eigenvalues --   -0.75750  -0.75580  -0.75508  -0.74268  -0.73692
 Alpha  occ. eigenvalues --   -0.73497  -0.72743  -0.72204  -0.70678  -0.69471
 Alpha  occ. eigenvalues --   -0.69129  -0.68896  -0.67222  -0.67095  -0.66252
 Alpha  occ. eigenvalues --   -0.66138  -0.65527  -0.65377  -0.64417  -0.63178
 Alpha  occ. eigenvalues --   -0.62547  -0.61785  -0.61524  -0.61225  -0.60424
 Alpha  occ. eigenvalues --   -0.59804  -0.59571  -0.59393  -0.59259  -0.58789
 Alpha  occ. eigenvalues --   -0.57888  -0.57084  -0.56605  -0.56051  -0.55683
 Alpha  occ. eigenvalues --   -0.55076  -0.54494  -0.53885  -0.53821  -0.53732
 Alpha  occ. eigenvalues --   -0.53316  -0.53201  -0.52931  -0.52815  -0.52532
 Alpha  occ. eigenvalues --   -0.52314  -0.52108  -0.51922  -0.51824  -0.51649
 Alpha  occ. eigenvalues --   -0.51495  -0.51263  -0.50788  -0.50698  -0.50548
 Alpha  occ. eigenvalues --   -0.50194  -0.50075  -0.49885  -0.49719  -0.49551
 Alpha  occ. eigenvalues --   -0.49365  -0.49344  -0.49109  -0.48710  -0.48576
 Alpha  occ. eigenvalues --   -0.48458  -0.48332  -0.48067  -0.47554  -0.47437
 Alpha  occ. eigenvalues --   -0.47329  -0.47077  -0.46875  -0.46622  -0.46500
 Alpha  occ. eigenvalues --   -0.46346  -0.46290  -0.45866  -0.45418  -0.45268
 Alpha  occ. eigenvalues --   -0.45231  -0.45081  -0.44930  -0.44865  -0.44684
 Alpha  occ. eigenvalues --   -0.44412  -0.44340  -0.44185  -0.43922  -0.43781
 Alpha  occ. eigenvalues --   -0.43749  -0.43549  -0.43425  -0.43336  -0.43154
 Alpha  occ. eigenvalues --   -0.42986  -0.42811  -0.42601  -0.42543  -0.42210
 Alpha  occ. eigenvalues --   -0.41950  -0.41719  -0.41666  -0.41469  -0.41257
 Alpha  occ. eigenvalues --   -0.40934  -0.40902  -0.40753  -0.40396  -0.40156
 Alpha  occ. eigenvalues --   -0.40135  -0.39363  -0.39344  -0.39164  -0.38772
 Alpha  occ. eigenvalues --   -0.38314  -0.37954  -0.37651  -0.37623  -0.37226
 Alpha  occ. eigenvalues --   -0.37199  -0.36633  -0.36474  -0.36244  -0.35747
 Alpha  occ. eigenvalues --   -0.35450  -0.34931  -0.34626  -0.34609  -0.34348
 Alpha  occ. eigenvalues --   -0.33626  -0.33594  -0.33267  -0.31751  -0.30875
 Alpha  occ. eigenvalues --   -0.30738  -0.30410  -0.30015  -0.28569  -0.24428
 Alpha  occ. eigenvalues --   -0.21477
 Alpha virt. eigenvalues --   -0.09111  -0.02489  -0.00352   0.01163   0.02255
 Alpha virt. eigenvalues --    0.04801   0.05595   0.05622   0.06083   0.06688
 Alpha virt. eigenvalues --    0.07679   0.07932   0.08546   0.09156   0.09280

 Mulliken charges:
               1
     1  Mg   0.796484
     2  C   -0.001208
     3  C   -0.043663
     4  C   -0.077375
     5  C   -0.057760
     6  N   -0.279842
     7  C   -0.071327
     8  C    0.001158
     9  C   -0.052008
    10  C   -0.022301
    11  C    0.094630
    12  C    0.099392
    13  C    0.053271
    14  C    0.131677
    15  O   -0.223235
    16  O   -0.344684
    17  N   -0.377506
    18  C    0.163691
    19  C   -0.130483
    20  C   -0.044461
    21  C    0.174969
    22  C    0.092818
    23  C    0.006264
    24  O   -0.219630
    25  C    0.070566
    26  N   -0.268382
    27  C    0.015536
    28  C   -0.054755
    29  C   -0.047910
    30  C    0.055903
    31  C    0.078538
    32  C    0.068596
    33  C    0.001431
    34  N   -0.301443
    35  C    0.066238
    36  C   -0.193208
    37  C    0.036306
    38  C    0.114686
    39  C    0.122631
    40  C    0.020220
    41  O   -0.159616
    42  C   -0.006733
    43  C    0.218104
    44  O   -0.204082
    45  O   -0.343388
    46  C    0.169822
    47  C    0.266346
    48  C   -0.120773
    49  C   -0.170310
    50  C    0.084473
    51  C    0.058756
    52  C    0.017557
    53  C    0.066150
    54  C   -0.089995
    55  C    0.036914
    56  C    0.007222
    57  C    0.027324
    58  C    0.081490
    59  C   -0.152199
    60  C    0.026414
    61  C    0.034599
    62  C    0.026927
    63  C    0.045709
    64  C   -0.141549
    65  C    0.021499
    66  C    0.031412
    67  H   -0.021523
    68  H   -0.071162
    69  H   -0.015835
    70  H   -0.012859
    71  H    0.007386
    72  H    0.012904
    73  H    0.024515
    74  H    0.028783
    75  H    0.017114
    76  H    0.012281
    77  H    0.051657
    78  H    0.024131
    79  H   -0.000812
    80  H    0.029559
    81  H    0.044638
    82  H    0.025072
    83  H    0.050133
    84  H    0.030071
    85  H    0.004166
    86  H    0.006758
    87  H    0.020820
    88  H    0.011085
    89  H    0.007510
    90  H    0.021120
    91  H    0.011889
    92  H    0.006658
    93  H    0.010541
    94  H    0.016866
    95  H    0.024934
    96  H    0.043295
    97  H    0.016971
    98  H    0.032031
    99  H    0.022098
   100  H    0.067117
   101  H    0.038743
   102  H    0.041705
   103  H    0.027508
   104  H    0.008659
   105  H    0.009614
   106  H    0.027939
   107  H    0.009259
   108  H   -0.006687
   109  H   -0.024479
   110  H   -0.000837
   111  H    0.002597
   112  H   -0.004556
   113  H   -0.007429
   114  H   -0.005381
   115  H    0.008801
   116  H    0.005754
   117  H    0.019516
   118  H   -0.015184
   119  H   -0.013301
   120  H   -0.011494
   121  H   -0.005526
   122  H   -0.004111
   123  H   -0.009228
   124  H    0.005553
   125  H    0.002010
   126  H    0.017880
   127  H    0.009964
   128  H   -0.013048
   129  H    0.005064
   130  H    0.024913
   131  H    0.007299
   132  H   -0.005546
   133  H   -0.003751
   134  H   -0.001351
   135  H   -0.014074
   136  H   -0.004307
   137  H    0.012890
   138  H    0.006332
   139  H    0.007716
   140  H    0.004761
 Sum of Mulliken charges =  -0.00000

 Dipole moment (field-independent basis, Debye):
    X=             -1.0432    Y=              3.7786    Z=              1.7000  Tot=              4.2727
 Quadrupole moment (field-independent basis, Debye-Ang):
   XX=           -402.0354   YY=           -391.2840   ZZ=           -401.5495
   XY=            -45.4993   XZ=            -19.2347   YZ=            -34.1999

 Normal termination of Gaussian 16 at Thu Apr 28 06:09:02 2022.
