 Gaussian 16, Revision A.03,
 Gaussian 16:  ES64L-G16RevA.03 25-Dec-2016

 ---------------------------------
 #p PBE1PBE/Def2SVP td=(nstates=5)
 ---------------------------------

 ------------------------------------------------------
 step_1501_chromophore_11 TDDFT with PBE1PBE functional
 ------------------------------------------------------
 Symbolic Z-matrix:
 Charge =  0 Multiplicity = 1

                         Standard orientation:
 ---------------------------------------------------------------------
 Center     Atomic      Atomic             Coordinates (Angstroms)
 Number     Number       Type             X           Y           Z
 ---------------------------------------------------------------------
      1         12           0       -4.349368    1.425476    0.667945
      2          6           0       -5.616390   -1.896333    0.050187
      3          6           0       -2.490925    0.303199    3.129409
      4          6           0       -2.995290    4.454066    0.664705
      5          6           0       -6.546352    2.401308   -2.105464
      6          7           0       -3.848931   -0.663036    1.328670
      7          6           0       -4.649357   -1.833172    1.088696
      8          6           0       -4.264477   -2.862465    2.146980
      9          6           0       -3.788310   -1.970475    3.337089
     10          6           0       -3.304690   -0.740425    2.543480
     11          6           0       -4.840435   -1.598093    4.416781
     12          6           0       -3.359825   -4.033731    1.742241
     13          6           0       -2.490070   -3.757571    0.554840
     14          6           0       -1.104087   -4.496666    0.528391
     15          8           0       -0.803451   -5.481436   -0.125622
     16          8           0       -0.169213   -3.814752    1.282382
     17          7           0       -2.766253    2.228885    1.604678
     18          6           0       -2.149693    1.636499    2.670451
     19          6           0       -1.175813    2.503788    3.151999
     20          6           0       -1.368733    3.753670    2.506271
     21          6           0       -2.446762    3.496738    1.542846
     22          6           0       -0.405934    2.243653    4.485687
     23          6           0       -0.602193    5.074813    2.738328
     24          8           0        0.292448    5.062681    3.596112
     25          6           0       -0.861732    6.430411    2.063821
     26          7           0       -4.596054    3.131844   -0.661757
     27          6           0       -4.023395    4.311187   -0.314481
     28          6           0       -4.585768    5.441277   -1.139007
     29          6           0       -5.494188    4.734677   -2.210986
     30          6           0       -5.555278    3.300778   -1.609024
     31          6           0       -5.278733    6.464434   -0.288823
     32          6           0       -4.763877    4.659007   -3.569637
     33          6           0       -5.350491    5.744393   -4.526693
     34          7           0       -5.927551    0.487197   -0.638695
     35          6           0       -6.692490    1.032589   -1.629626
     36          6           0       -7.707380    0.072242   -2.036246
     37          6           0       -7.289619   -1.112081   -1.458587
     38          6           0       -6.105923   -0.851663   -0.665459
     39          6           0       -8.943854    0.336066   -2.879809
     40          6           0       -7.565643   -2.528990   -1.318231
     41          8           0       -8.426834   -3.286109   -1.735376
     42          6           0       -6.383477   -3.091388   -0.505417
     43          6           0       -5.567309   -3.890365   -1.430252
     44          8           0       -4.694231   -3.479893   -2.155277
     45          8           0       -5.859895   -5.238104   -1.352627
     46          6           0       -4.908517   -6.153162   -2.041976
     47          6           0        1.181613   -4.356498    1.319904
     48          6           0        1.967845   -3.676984    0.166271
     49          6           0        3.260545   -4.007353   -0.165056
     50          6           0        4.194348   -4.787368    0.670280
     51          6           0        3.899787   -3.257599   -1.287668
     52          6           0        4.461999   -1.802743   -1.135506
     53          6           0        6.007663   -1.626544   -1.188506
     54          6           0        6.401079   -0.151883   -1.430926
     55          6           0        6.861359    0.119833   -2.905564
     56          6           0        7.468886    0.349972   -0.413115
     57          6           0        8.935413   -0.015803   -0.683293
     58          6           0        9.935753    0.692305    0.273589
     59          6           0       11.006342   -0.251824    0.807109
     60          6           0       10.602969   -0.680759    2.369847
     61          6           0       12.373010    0.533751    0.745074
     62          6           0       12.977866    0.449091   -0.719379
     63          6           0       14.505340    0.098071   -0.692333
     64          6           0       15.366612    1.096289   -1.454771
     65          6           0       15.205441    2.519849   -0.877142
     66          6           0       15.005759    0.960453   -2.981660
     67          1           0       -2.166759   -0.007629    4.124852
     68          1           0       -2.603980    5.473753    0.685556
     69          1           0       -7.239475    2.643574   -2.913945
     70          1           0       -5.218169   -3.345445    2.359336
     71          1           0       -2.895058   -2.382544    3.806282
     72          1           0       -5.792124   -2.000828    4.070998
     73          1           0       -4.947669   -0.515201    4.491287
     74          1           0       -4.625200   -2.088665    5.366044
     75          1           0       -4.005618   -4.891110    1.551118
     76          1           0       -2.677331   -4.271888    2.557135
     77          1           0       -2.268752   -2.710890    0.349002
     78          1           0       -2.967277   -4.144972   -0.345051
     79          1           0       -0.132644    1.213638    4.716600
     80          1           0       -1.032492    2.494099    5.341556
     81          1           0        0.551053    2.764030    4.433207
     82          1           0       -0.138047    7.200085    2.333587
     83          1           0       -1.875898    6.824632    2.114196
     84          1           0       -0.621635    6.235748    1.018495
     85          1           0       -3.758735    6.022682   -1.546549
     86          1           0       -6.474843    5.212642   -2.222198
     87          1           0       -4.551865    7.211127    0.033847
     88          1           0       -5.837770    5.940914    0.486659
     89          1           0       -6.055295    6.987566   -0.847691
     90          1           0       -4.841337    3.655563   -3.987286
     91          1           0       -3.719865    4.855915   -3.327044
     92          1           0       -6.426246    5.907175   -4.457996
     93          1           0       -5.261953    5.396764   -5.556007
     94          1           0       -4.894988    6.733244   -4.480418
     95          1           0       -9.776998   -0.171294   -2.392006
     96          1           0       -8.854533   -0.164399   -3.844191
     97          1           0       -9.301352    1.366172   -2.875497
     98          1           0       -6.820523   -3.697411    0.287488
     99          1           0       -4.348307   -6.551677   -1.196327
    100          1           0       -4.164049   -5.711934   -2.705319
    101          1           0       -5.339160   -7.083268   -2.412450
    102          1           0        1.278074   -5.432188    1.170692
    103          1           0        1.575638   -4.124713    2.309044
    104          1           0        1.381440   -3.000448   -0.455937
    105          1           0        5.194508   -4.354160    0.665534
    106          1           0        4.388583   -5.783038    0.270244
    107          1           0        3.869827   -4.771694    1.710338
    108          1           0        3.250175   -3.268545   -2.162868
    109          1           0        4.577091   -4.019945   -1.671213
    110          1           0        4.158951   -1.482673   -0.138752
    111          1           0        3.930520   -1.152125   -1.829855
    112          1           0        6.402240   -2.351759   -1.899929
    113          1           0        6.257199   -2.000070   -0.195962
    114          1           0        5.511921    0.464949   -1.294809
    115          1           0        7.387051    1.074516   -2.858903
    116          1           0        5.991702    0.288851   -3.540092
    117          1           0        7.501933   -0.659580   -3.317997
    118          1           0        7.189473    0.039916    0.594218
    119          1           0        7.328500    1.426404   -0.317531
    120          1           0        9.164576    0.315728   -1.696609
    121          1           0        9.059469   -1.097133   -0.748228
    122          1           0        9.394619    1.164044    1.093991
    123          1           0       10.412026    1.513007   -0.262397
    124          1           0       11.055806   -1.168372    0.219186
    125          1           0       10.859262   -1.736092    2.470621
    126          1           0        9.539866   -0.529409    2.554001
    127          1           0       11.239450   -0.210910    3.118665
    128          1           0       13.008248   -0.005473    1.448169
    129          1           0       12.316503    1.559265    1.110696
    130          1           0       12.709316    1.389715   -1.199813
    131          1           0       12.559951   -0.429975   -1.210614
    132          1           0       14.770795   -0.808395   -1.237628
    133          1           0       14.998133   -0.018842    0.271838
    134          1           0       16.444784    1.029751   -1.305614
    135          1           0       14.341568    3.037725   -1.294031
    136          1           0       15.949951    3.214271   -1.267162
    137          1           0       15.162857    2.635382    0.205077
    138          1           0       14.175310    0.266733   -3.114206
    139          1           0       15.804881    0.494381   -3.558049
    140          1           0       14.740317    1.896907   -3.471578
 ---------------------------------------------------------------------

 SCF Done:  E(RPBE1PBE) =  -3005.34669070     A.U. after   15 cycles

 Excitation energies and oscillator strengths:

 Excited State   1:      Singlet-A      1.8324 eV  676.61 nm  f=0.3576  <S**2>=0.000
     245 -> 248        0.18187
     246 -> 247        0.69137
     246 <- 247       -0.10563
 This state for optimization and/or second-order correction.
 Total Energy, E(TD-HF/TD-DFT) =  -3005.27935003
 Copying the excited state density for this state as the 1-particle RhoCI density.

 Excited State   2:      Singlet-A      2.2027 eV  562.87 nm  f=0.0866  <S**2>=0.000
     245 -> 247        0.64429
     246 -> 248       -0.27802

 Excited State   3:      Singlet-A      2.8904 eV  428.95 nm  f=0.0000  <S**2>=0.000
     243 -> 247        0.66957
     243 -> 249       -0.15678
     243 -> 250       -0.11231

 Excited State   4:      Singlet-A      2.9433 eV  421.24 nm  f=0.0000  <S**2>=0.000
     244 -> 247        0.70685

 Excited State   5:      Singlet-A      2.9954 eV  413.92 nm  f=0.0008  <S**2>=0.000
     240 -> 247        0.21890
     241 -> 247        0.56650
     241 -> 249        0.13484
     242 -> 247       -0.27700

 The electronic state is 1-A.
 Alpha  occ. eigenvalues --  -46.93725 -19.24941 -19.24861 -19.19661 -19.19546
 Alpha  occ. eigenvalues --  -19.19414 -19.18787 -14.42261 -14.42103 -14.39265
 Alpha  occ. eigenvalues --  -14.39151 -10.35966 -10.35849 -10.32870 -10.32260
 Alpha  occ. eigenvalues --  -10.29844 -10.29458 -10.29324 -10.29254 -10.28857
 Alpha  occ. eigenvalues --  -10.28165 -10.28100 -10.28081 -10.27738 -10.26615
 Alpha  occ. eigenvalues --  -10.26559 -10.26324 -10.26254 -10.26144 -10.25839
 Alpha  occ. eigenvalues --  -10.25706 -10.25685 -10.25556 -10.25529 -10.25437
 Alpha  occ. eigenvalues --  -10.25086 -10.24977 -10.24905 -10.24550 -10.24532
 Alpha  occ. eigenvalues --  -10.24175 -10.24153 -10.24074 -10.23839 -10.23580
 Alpha  occ. eigenvalues --  -10.23525 -10.23412 -10.23348 -10.23253 -10.23102
 Alpha  occ. eigenvalues --  -10.22870 -10.22836 -10.22829 -10.22773 -10.22476
 Alpha  occ. eigenvalues --  -10.22317 -10.22044 -10.22017 -10.21977 -10.21927
 Alpha  occ. eigenvalues --  -10.21800 -10.21784 -10.21763 -10.21671 -10.21590
 Alpha  occ. eigenvalues --  -10.21207  -3.15654  -1.88477  -1.88026  -1.87880
 Alpha  occ. eigenvalues --   -1.10663  -1.10317  -1.04953  -1.03768  -1.02020
 Alpha  occ. eigenvalues --   -1.01828  -1.00181  -0.99059  -0.98589  -0.97762
 Alpha  occ. eigenvalues --   -0.87973  -0.84421  -0.83793  -0.83754  -0.83121
 Alpha  occ. eigenvalues --   -0.83106  -0.82324  -0.81649  -0.81032  -0.80796
 Alpha  occ. eigenvalues --   -0.80263  -0.79771  -0.78227  -0.78116  -0.77283
 Alpha  occ. eigenvalues --   -0.76052  -0.75658  -0.75120  -0.74996  -0.74402
 Alpha  occ. eigenvalues --   -0.72804  -0.72548  -0.71871  -0.71307  -0.70512
 Alpha  occ. eigenvalues --   -0.69951  -0.69817  -0.69569  -0.68362  -0.67973
 Alpha  occ. eigenvalues --   -0.67782  -0.67072  -0.66642  -0.64971  -0.63829
 Alpha  occ. eigenvalues --   -0.63571  -0.63087  -0.61662  -0.61328  -0.60663
 Alpha  occ. eigenvalues --   -0.60297  -0.60105  -0.59821  -0.58988  -0.57298
 Alpha  occ. eigenvalues --   -0.57028  -0.56356  -0.55752  -0.55464  -0.54976
 Alpha  occ. eigenvalues --   -0.54425  -0.54097  -0.53765  -0.53695  -0.53308
 Alpha  occ. eigenvalues --   -0.52498  -0.51478  -0.51187  -0.50679  -0.50140
 Alpha  occ. eigenvalues --   -0.49611  -0.49036  -0.48368  -0.48331  -0.48152
 Alpha  occ. eigenvalues --   -0.47950  -0.47642  -0.47423  -0.47407  -0.47055
 Alpha  occ. eigenvalues --   -0.46794  -0.46614  -0.46339  -0.46251  -0.46129
 Alpha  occ. eigenvalues --   -0.45995  -0.45840  -0.45357  -0.45233  -0.45065
 Alpha  occ. eigenvalues --   -0.44704  -0.44674  -0.44459  -0.44309  -0.44097
 Alpha  occ. eigenvalues --   -0.43970  -0.43841  -0.43700  -0.43418  -0.43200
 Alpha  occ. eigenvalues --   -0.43139  -0.42879  -0.42687  -0.42203  -0.42127
 Alpha  occ. eigenvalues --   -0.41989  -0.41736  -0.41536  -0.41418  -0.41198
 Alpha  occ. eigenvalues --   -0.40971  -0.40858  -0.40626  -0.40093  -0.39992
 Alpha  occ. eigenvalues --   -0.39888  -0.39727  -0.39605  -0.39537  -0.39433
 Alpha  occ. eigenvalues --   -0.39107  -0.38999  -0.38939  -0.38605  -0.38496
 Alpha  occ. eigenvalues --   -0.38440  -0.38363  -0.38172  -0.38096  -0.37905
 Alpha  occ. eigenvalues --   -0.37705  -0.37615  -0.37399  -0.37311  -0.37048
 Alpha  occ. eigenvalues --   -0.36723  -0.36564  -0.36480  -0.36196  -0.36021
 Alpha  occ. eigenvalues --   -0.35787  -0.35679  -0.35509  -0.35248  -0.35028
 Alpha  occ. eigenvalues --   -0.34912  -0.34226  -0.34107  -0.33880  -0.33750
 Alpha  occ. eigenvalues --   -0.33127  -0.32740  -0.32649  -0.32416  -0.32268
 Alpha  occ. eigenvalues --   -0.32006  -0.31694  -0.31298  -0.31074  -0.30600
 Alpha  occ. eigenvalues --   -0.30328  -0.29864  -0.29819  -0.29563  -0.29271
 Alpha  occ. eigenvalues --   -0.28988  -0.28596  -0.28099  -0.27272  -0.26070
 Alpha  occ. eigenvalues --   -0.25829  -0.25639  -0.25402  -0.23869  -0.21361
 Alpha  occ. eigenvalues --   -0.19154
 Alpha virt. eigenvalues --   -0.11593  -0.05946  -0.04516  -0.02293  -0.01558
 Alpha virt. eigenvalues --    0.00392   0.01086   0.01169   0.01558   0.02668
 Alpha virt. eigenvalues --    0.03815   0.04608   0.04740   0.05410   0.06018

 Mulliken charges:
               1
     1  Mg   0.937749
     2  C   -0.033488
     3  C   -0.041119
     4  C   -0.063738
     5  C   -0.040721
     6  N   -0.369039
     7  C   -0.002126
     8  C   -0.062762
     9  C   -0.137251
    10  C    0.017822
    11  C    0.038667
    12  C    0.048651
    13  C   -0.031313
    14  C    0.200457
    15  O   -0.256331
    16  O   -0.373496
    17  N   -0.500063
    18  C    0.178017
    19  C   -0.145973
    20  C   -0.094744
    21  C    0.200997
    22  C    0.034491
    23  C    0.054243
    24  O   -0.251971
    25  C   -0.008569
    26  N   -0.371637
    27  C    0.056729
    28  C   -0.136559
    29  C   -0.124870
    30  C    0.088407
    31  C    0.022760
    32  C    0.011099
    33  C   -0.068940
    34  N   -0.414985
    35  C    0.083662
    36  C   -0.200298
    37  C   -0.016014
    38  C    0.176311
    39  C    0.070016
    40  C    0.109850
    41  O   -0.205498
    42  C   -0.123034
    43  C    0.316943
    44  O   -0.239622
    45  O   -0.376273
    46  C    0.113711
    47  C    0.224098
    48  C   -0.126358
    49  C   -0.214319
    50  C    0.016769
    51  C   -0.001155
    52  C   -0.046516
    53  C    0.012913
    54  C   -0.175688
    55  C   -0.025840
    56  C   -0.051473
    57  C   -0.033166
    58  C    0.030439
    59  C   -0.235291
    60  C   -0.034416
    61  C   -0.020970
    62  C   -0.036142
    63  C   -0.013867
    64  C   -0.233081
    65  C   -0.034991
    66  C   -0.028877
    67  H    0.009447
    68  H   -0.033391
    69  H    0.015656
    70  H    0.027537
    71  H    0.043180
    72  H    0.040842
    73  H    0.052458
    74  H    0.055786
    75  H    0.048904
    76  H    0.045659
    77  H    0.084771
    78  H    0.065129
    79  H    0.026315
    80  H    0.057056
    81  H    0.071251
    82  H    0.053385
    83  H    0.075234
    84  H    0.057387
    85  H    0.040699
    86  H    0.041390
    87  H    0.047735
    88  H    0.039911
    89  H    0.036143
    90  H    0.053661
    91  H    0.045040
    92  H    0.033693
    93  H    0.039006
    94  H    0.044626
    95  H    0.053343
    96  H    0.070915
    97  H    0.042430
    98  H    0.067814
    99  H    0.044689
   100  H    0.087380
   101  H    0.060775
   102  H    0.068443
   103  H    0.053519
   104  H    0.037488
   105  H    0.038549
   106  H    0.055647
   107  H    0.036468
   108  H    0.026235
   109  H    0.008809
   110  H    0.033416
   111  H    0.034118
   112  H    0.026832
   113  H    0.026093
   114  H    0.032457
   115  H    0.037506
   116  H    0.034750
   117  H    0.046140
   118  H    0.018920
   119  H    0.020075
   120  H    0.021697
   121  H    0.026173
   122  H    0.027571
   123  H    0.024623
   124  H    0.040994
   125  H    0.030201
   126  H    0.044756
   127  H    0.036621
   128  H    0.020746
   129  H    0.036746
   130  H    0.054674
   131  H    0.039616
   132  H    0.029252
   133  H    0.027953
   134  H    0.035807
   135  H    0.012762
   136  H    0.024335
   137  H    0.040382
   138  H    0.033914
   139  H    0.035827
   140  H    0.031815
 Sum of Mulliken charges =  -0.00000

 Dipole moment (field-independent basis, Debye):
    X=             -1.1291    Y=              3.8770    Z=              1.6418  Tot=              4.3591
 Quadrupole moment (field-independent basis, Debye-Ang):
   XX=           -397.8191   YY=           -387.4143   ZZ=           -397.9667
   XY=            -46.5498   XZ=            -18.4388   YZ=            -35.5258

 Normal termination of Gaussian 16 at Thu Apr 28 06:27:58 2022.
