 Gaussian 16, Revision A.03,
 Gaussian 16:  ES64L-G16RevA.03 25-Dec-2016

 --------------------------------
 #p wB97XD/Def2SVP td=(nstates=5)
 --------------------------------

 -----------------------------------------------------
 step_1501_chromophore_11 TDDFT with wB97XD functional
 -----------------------------------------------------
 Symbolic Z-matrix:
 Charge =  0 Multiplicity = 1

                         Standard orientation:
 ---------------------------------------------------------------------
 Center     Atomic      Atomic             Coordinates (Angstroms)
 Number     Number       Type             X           Y           Z
 ---------------------------------------------------------------------
      1         12           0       -4.349368    1.425476    0.667945
      2          6           0       -5.616390   -1.896333    0.050187
      3          6           0       -2.490925    0.303199    3.129409
      4          6           0       -2.995290    4.454066    0.664705
      5          6           0       -6.546352    2.401308   -2.105464
      6          7           0       -3.848931   -0.663036    1.328670
      7          6           0       -4.649357   -1.833172    1.088696
      8          6           0       -4.264477   -2.862465    2.146980
      9          6           0       -3.788310   -1.970475    3.337089
     10          6           0       -3.304690   -0.740425    2.543480
     11          6           0       -4.840435   -1.598093    4.416781
     12          6           0       -3.359825   -4.033731    1.742241
     13          6           0       -2.490070   -3.757571    0.554840
     14          6           0       -1.104087   -4.496666    0.528391
     15          8           0       -0.803451   -5.481436   -0.125622
     16          8           0       -0.169213   -3.814752    1.282382
     17          7           0       -2.766253    2.228885    1.604678
     18          6           0       -2.149693    1.636499    2.670451
     19          6           0       -1.175813    2.503788    3.151999
     20          6           0       -1.368733    3.753670    2.506271
     21          6           0       -2.446762    3.496738    1.542846
     22          6           0       -0.405934    2.243653    4.485687
     23          6           0       -0.602193    5.074813    2.738328
     24          8           0        0.292448    5.062681    3.596112
     25          6           0       -0.861732    6.430411    2.063821
     26          7           0       -4.596054    3.131844   -0.661757
     27          6           0       -4.023395    4.311187   -0.314481
     28          6           0       -4.585768    5.441277   -1.139007
     29          6           0       -5.494188    4.734677   -2.210986
     30          6           0       -5.555278    3.300778   -1.609024
     31          6           0       -5.278733    6.464434   -0.288823
     32          6           0       -4.763877    4.659007   -3.569637
     33          6           0       -5.350491    5.744393   -4.526693
     34          7           0       -5.927551    0.487197   -0.638695
     35          6           0       -6.692490    1.032589   -1.629626
     36          6           0       -7.707380    0.072242   -2.036246
     37          6           0       -7.289619   -1.112081   -1.458587
     38          6           0       -6.105923   -0.851663   -0.665459
     39          6           0       -8.943854    0.336066   -2.879809
     40          6           0       -7.565643   -2.528990   -1.318231
     41          8           0       -8.426834   -3.286109   -1.735376
     42          6           0       -6.383477   -3.091388   -0.505417
     43          6           0       -5.567309   -3.890365   -1.430252
     44          8           0       -4.694231   -3.479893   -2.155277
     45          8           0       -5.859895   -5.238104   -1.352627
     46          6           0       -4.908517   -6.153162   -2.041976
     47          6           0        1.181613   -4.356498    1.319904
     48          6           0        1.967845   -3.676984    0.166271
     49          6           0        3.260545   -4.007353   -0.165056
     50          6           0        4.194348   -4.787368    0.670280
     51          6           0        3.899787   -3.257599   -1.287668
     52          6           0        4.461999   -1.802743   -1.135506
     53          6           0        6.007663   -1.626544   -1.188506
     54          6           0        6.401079   -0.151883   -1.430926
     55          6           0        6.861359    0.119833   -2.905564
     56          6           0        7.468886    0.349972   -0.413115
     57          6           0        8.935413   -0.015803   -0.683293
     58          6           0        9.935753    0.692305    0.273589
     59          6           0       11.006342   -0.251824    0.807109
     60          6           0       10.602969   -0.680759    2.369847
     61          6           0       12.373010    0.533751    0.745074
     62          6           0       12.977866    0.449091   -0.719379
     63          6           0       14.505340    0.098071   -0.692333
     64          6           0       15.366612    1.096289   -1.454771
     65          6           0       15.205441    2.519849   -0.877142
     66          6           0       15.005759    0.960453   -2.981660
     67          1           0       -2.166759   -0.007629    4.124852
     68          1           0       -2.603980    5.473753    0.685556
     69          1           0       -7.239475    2.643574   -2.913945
     70          1           0       -5.218169   -3.345445    2.359336
     71          1           0       -2.895058   -2.382544    3.806282
     72          1           0       -5.792124   -2.000828    4.070998
     73          1           0       -4.947669   -0.515201    4.491287
     74          1           0       -4.625200   -2.088665    5.366044
     75          1           0       -4.005618   -4.891110    1.551118
     76          1           0       -2.677331   -4.271888    2.557135
     77          1           0       -2.268752   -2.710890    0.349002
     78          1           0       -2.967277   -4.144972   -0.345051
     79          1           0       -0.132644    1.213638    4.716600
     80          1           0       -1.032492    2.494099    5.341556
     81          1           0        0.551053    2.764030    4.433207
     82          1           0       -0.138047    7.200085    2.333587
     83          1           0       -1.875898    6.824632    2.114196
     84          1           0       -0.621635    6.235748    1.018495
     85          1           0       -3.758735    6.022682   -1.546549
     86          1           0       -6.474843    5.212642   -2.222198
     87          1           0       -4.551865    7.211127    0.033847
     88          1           0       -5.837770    5.940914    0.486659
     89          1           0       -6.055295    6.987566   -0.847691
     90          1           0       -4.841337    3.655563   -3.987286
     91          1           0       -3.719865    4.855915   -3.327044
     92          1           0       -6.426246    5.907175   -4.457996
     93          1           0       -5.261953    5.396764   -5.556007
     94          1           0       -4.894988    6.733244   -4.480418
     95          1           0       -9.776998   -0.171294   -2.392006
     96          1           0       -8.854533   -0.164399   -3.844191
     97          1           0       -9.301352    1.366172   -2.875497
     98          1           0       -6.820523   -3.697411    0.287488
     99          1           0       -4.348307   -6.551677   -1.196327
    100          1           0       -4.164049   -5.711934   -2.705319
    101          1           0       -5.339160   -7.083268   -2.412450
    102          1           0        1.278074   -5.432188    1.170692
    103          1           0        1.575638   -4.124713    2.309044
    104          1           0        1.381440   -3.000448   -0.455937
    105          1           0        5.194508   -4.354160    0.665534
    106          1           0        4.388583   -5.783038    0.270244
    107          1           0        3.869827   -4.771694    1.710338
    108          1           0        3.250175   -3.268545   -2.162868
    109          1           0        4.577091   -4.019945   -1.671213
    110          1           0        4.158951   -1.482673   -0.138752
    111          1           0        3.930520   -1.152125   -1.829855
    112          1           0        6.402240   -2.351759   -1.899929
    113          1           0        6.257199   -2.000070   -0.195962
    114          1           0        5.511921    0.464949   -1.294809
    115          1           0        7.387051    1.074516   -2.858903
    116          1           0        5.991702    0.288851   -3.540092
    117          1           0        7.501933   -0.659580   -3.317997
    118          1           0        7.189473    0.039916    0.594218
    119          1           0        7.328500    1.426404   -0.317531
    120          1           0        9.164576    0.315728   -1.696609
    121          1           0        9.059469   -1.097133   -0.748228
    122          1           0        9.394619    1.164044    1.093991
    123          1           0       10.412026    1.513007   -0.262397
    124          1           0       11.055806   -1.168372    0.219186
    125          1           0       10.859262   -1.736092    2.470621
    126          1           0        9.539866   -0.529409    2.554001
    127          1           0       11.239450   -0.210910    3.118665
    128          1           0       13.008248   -0.005473    1.448169
    129          1           0       12.316503    1.559265    1.110696
    130          1           0       12.709316    1.389715   -1.199813
    131          1           0       12.559951   -0.429975   -1.210614
    132          1           0       14.770795   -0.808395   -1.237628
    133          1           0       14.998133   -0.018842    0.271838
    134          1           0       16.444784    1.029751   -1.305614
    135          1           0       14.341568    3.037725   -1.294031
    136          1           0       15.949951    3.214271   -1.267162
    137          1           0       15.162857    2.635382    0.205077
    138          1           0       14.175310    0.266733   -3.114206
    139          1           0       15.804881    0.494381   -3.558049
    140          1           0       14.740317    1.896907   -3.471578
 ---------------------------------------------------------------------

 SCF Done:  E(RwB97XD) =  -3007.85649160     A.U. after   19 cycles

 Excitation energies and oscillator strengths:

 Excited State   1:      Singlet-A      1.6124 eV  768.95 nm  f=0.3665  <S**2>=0.000
     245 -> 248        0.19309
     246 -> 247        0.68226
     245 <- 248        0.12099
 This state for optimization and/or second-order correction.
 Total Energy, E(TD-HF/TD-DFT) =  -3007.79723736
 Copying the excited state density for this state as the 1-particle RhoCI density.

 Excited State   2:      Singlet-A      2.1417 eV  578.92 nm  f=0.0806  <S**2>=0.000
     245 -> 247        0.62845
     246 -> 248       -0.31215

 Excited State   3:      Singlet-A      3.3726 eV  367.62 nm  f=0.1736  <S**2>=0.000
     243 -> 247        0.53750
     245 -> 247        0.15560
     246 -> 248        0.40106

 Excited State   4:      Singlet-A      3.4291 eV  361.56 nm  f=0.1221  <S**2>=0.000
     241 -> 249       -0.11430
     241 -> 251        0.10975
     242 -> 247        0.49685
     242 -> 249       -0.17152
     242 -> 251        0.10113
     243 -> 247        0.22821
     245 -> 247       -0.12780
     246 -> 248       -0.29891

 Excited State   5:      Singlet-A      3.4754 eV  356.75 nm  f=0.0698  <S**2>=0.000
     241 -> 247        0.50599
     241 -> 249       -0.20856
     241 -> 250       -0.10440
     241 -> 251        0.14185
     242 -> 249       -0.12045
     242 -> 251        0.11575
     243 -> 247       -0.22892
     246 -> 248        0.19735

 The electronic state is 1-A.
 Alpha  occ. eigenvalues --  -46.96704 -19.29538 -19.29421 -19.24419 -19.24264
 Alpha  occ. eigenvalues --  -19.24234 -19.23612 -14.47446 -14.47078 -14.44247
 Alpha  occ. eigenvalues --  -14.44090 -10.42851 -10.42630 -10.39697 -10.39153
 Alpha  occ. eigenvalues --  -10.36037 -10.35692 -10.35641 -10.35618 -10.35340
 Alpha  occ. eigenvalues --  -10.34677 -10.34566 -10.34338 -10.34143 -10.32851
 Alpha  occ. eigenvalues --  -10.32819 -10.32660 -10.32563 -10.32520 -10.32289
 Alpha  occ. eigenvalues --  -10.32261 -10.32082 -10.31855 -10.31824 -10.31641
 Alpha  occ. eigenvalues --  -10.31480 -10.31288 -10.31269 -10.30941 -10.30808
 Alpha  occ. eigenvalues --  -10.30717 -10.30589 -10.30541 -10.30216 -10.29873
 Alpha  occ. eigenvalues --  -10.29854 -10.29726 -10.29705 -10.29547 -10.29380
 Alpha  occ. eigenvalues --  -10.29377 -10.29255 -10.29228 -10.29219 -10.28862
 Alpha  occ. eigenvalues --  -10.28678 -10.28439 -10.28399 -10.28360 -10.28301
 Alpha  occ. eigenvalues --  -10.28202 -10.28192 -10.28183 -10.28093 -10.27973
 Alpha  occ. eigenvalues --  -10.27640  -3.22517  -1.96086  -1.95634  -1.95482
 Alpha  occ. eigenvalues --   -1.18106  -1.17700  -1.12468  -1.11272  -1.09426
 Alpha  occ. eigenvalues --   -1.09177  -1.07569  -1.06398  -1.05961  -1.05161
 Alpha  occ. eigenvalues --   -0.95602  -0.92051  -0.91433  -0.91329  -0.90804
 Alpha  occ. eigenvalues --   -0.90712  -0.90004  -0.89260  -0.88636  -0.88474
 Alpha  occ. eigenvalues --   -0.87917  -0.87446  -0.85835  -0.85753  -0.84963
 Alpha  occ. eigenvalues --   -0.83736  -0.83376  -0.82796  -0.82609  -0.82059
 Alpha  occ. eigenvalues --   -0.80484  -0.80194  -0.79478  -0.78972  -0.78148
 Alpha  occ. eigenvalues --   -0.77595  -0.77479  -0.77274  -0.76069  -0.75560
 Alpha  occ. eigenvalues --   -0.75421  -0.74674  -0.74174  -0.72594  -0.71388
 Alpha  occ. eigenvalues --   -0.71102  -0.70746  -0.69206  -0.68976  -0.68146
 Alpha  occ. eigenvalues --   -0.67962  -0.67533  -0.67339  -0.66425  -0.64987
 Alpha  occ. eigenvalues --   -0.64514  -0.63794  -0.63370  -0.63070  -0.62423
 Alpha  occ. eigenvalues --   -0.61796  -0.61546  -0.61276  -0.61201  -0.60753
 Alpha  occ. eigenvalues --   -0.59903  -0.58989  -0.58597  -0.58038  -0.57595
 Alpha  occ. eigenvalues --   -0.57002  -0.56424  -0.55768  -0.55682  -0.55650
 Alpha  occ. eigenvalues --   -0.55254  -0.55077  -0.54841  -0.54733  -0.54450
 Alpha  occ. eigenvalues --   -0.54188  -0.54031  -0.53868  -0.53704  -0.53562
 Alpha  occ. eigenvalues --   -0.53376  -0.53189  -0.52684  -0.52594  -0.52429
 Alpha  occ. eigenvalues --   -0.52063  -0.51997  -0.51826  -0.51641  -0.51433
 Alpha  occ. eigenvalues --   -0.51291  -0.51203  -0.51054  -0.50627  -0.50468
 Alpha  occ. eigenvalues --   -0.50358  -0.50201  -0.49958  -0.49420  -0.49344
 Alpha  occ. eigenvalues --   -0.49257  -0.49035  -0.48811  -0.48534  -0.48439
 Alpha  occ. eigenvalues --   -0.48213  -0.48130  -0.47801  -0.47306  -0.47214
 Alpha  occ. eigenvalues --   -0.47100  -0.46941  -0.46841  -0.46759  -0.46595
 Alpha  occ. eigenvalues --   -0.46288  -0.46245  -0.46132  -0.45824  -0.45677
 Alpha  occ. eigenvalues --   -0.45624  -0.45441  -0.45351  -0.45221  -0.45038
 Alpha  occ. eigenvalues --   -0.44842  -0.44714  -0.44456  -0.44432  -0.44135
 Alpha  occ. eigenvalues --   -0.43907  -0.43715  -0.43582  -0.43346  -0.43154
 Alpha  occ. eigenvalues --   -0.42822  -0.42761  -0.42597  -0.42286  -0.42036
 Alpha  occ. eigenvalues --   -0.42004  -0.41263  -0.41183  -0.40989  -0.40680
 Alpha  occ. eigenvalues --   -0.40172  -0.39792  -0.39603  -0.39458  -0.39224
 Alpha  occ. eigenvalues --   -0.39056  -0.38650  -0.38318  -0.38084  -0.37622
 Alpha  occ. eigenvalues --   -0.37444  -0.36830  -0.36600  -0.36474  -0.36290
 Alpha  occ. eigenvalues --   -0.35830  -0.35454  -0.35188  -0.33916  -0.32932
 Alpha  occ. eigenvalues --   -0.32711  -0.32544  -0.32170  -0.30587  -0.26345
 Alpha  occ. eigenvalues --   -0.23274
 Alpha virt. eigenvalues --   -0.07461  -0.00587   0.01759   0.04096   0.04518
 Alpha virt. eigenvalues --    0.07125   0.07822   0.07881   0.08407   0.09364
 Alpha virt. eigenvalues --    0.10334   0.11181   0.11507   0.12182   0.12757

 Mulliken charges:
               1
     1  Mg   0.931787
     2  C   -0.022703
     3  C   -0.055270
     4  C   -0.082375
     5  C   -0.064255
     6  N   -0.341764
     7  C   -0.036893
     8  C   -0.036176
     9  C   -0.108194
    10  C    0.002344
    11  C    0.046775
    12  C    0.054007
    13  C   -0.003120
    14  C    0.189554
    15  O   -0.253647
    16  O   -0.373235
    17  N   -0.466763
    18  C    0.173654
    19  C   -0.141775
    20  C   -0.088711
    21  C    0.199272
    22  C    0.048281
    23  C    0.048472
    24  O   -0.248427
    25  C    0.007554
    26  N   -0.340459
    27  C    0.042957
    28  C   -0.107719
    29  C   -0.097970
    30  C    0.077617
    31  C    0.031348
    32  C    0.023054
    33  C   -0.053289
    34  N   -0.380695
    35  C    0.078350
    36  C   -0.201605
    37  C   -0.011509
    38  C    0.153155
    39  C    0.080126
    40  C    0.095320
    41  O   -0.196129
    42  C   -0.080788
    43  C    0.286978
    44  O   -0.232675
    45  O   -0.374881
    46  C    0.129163
    47  C    0.239347
    48  C   -0.138914
    49  C   -0.199571
    50  C    0.030597
    51  C    0.015478
    52  C   -0.028066
    53  C    0.025059
    54  C   -0.149082
    55  C   -0.012675
    56  C   -0.031799
    57  C   -0.016597
    58  C    0.043024
    59  C   -0.207382
    60  C   -0.020601
    61  C   -0.003700
    62  C   -0.021985
    63  C    0.005183
    64  C   -0.202527
    65  C   -0.026948
    66  C   -0.019270
    67  H    0.004681
    68  H   -0.048990
    69  H    0.010836
    70  H    0.014319
    71  H    0.034334
    72  H    0.034361
    73  H    0.045668
    74  H    0.051695
    75  H    0.043747
    76  H    0.037855
    77  H    0.075139
    78  H    0.050395
    79  H    0.021040
    80  H    0.052328
    81  H    0.067820
    82  H    0.052637
    83  H    0.070572
    84  H    0.050684
    85  H    0.030160
    86  H    0.030842
    87  H    0.042618
    88  H    0.033210
    89  H    0.030051
    90  H    0.045987
    91  H    0.036246
    92  H    0.026785
    93  H    0.033247
    94  H    0.038659
    95  H    0.047920
    96  H    0.066747
    97  H    0.037983
    98  H    0.063329
    99  H    0.039846
   100  H    0.084386
   101  H    0.057753
   102  H    0.063124
   103  H    0.049453
   104  H    0.034931
   105  H    0.031632
   106  H    0.051028
   107  H    0.030669
   108  H    0.019333
   109  H   -0.000860
   110  H    0.022884
   111  H    0.026322
   112  H    0.018371
   113  H    0.014962
   114  H    0.021964
   115  H    0.029613
   116  H    0.029629
   117  H    0.039783
   118  H    0.008152
   119  H    0.011312
   120  H    0.011205
   121  H    0.016800
   122  H    0.017935
   123  H    0.015036
   124  H    0.028625
   125  H    0.024233
   126  H    0.038114
   127  H    0.031028
   128  H    0.010303
   129  H    0.028821
   130  H    0.044383
   131  H    0.030226
   132  H    0.019314
   133  H    0.019438
   134  H    0.026779
   135  H    0.004628
   136  H    0.018701
   137  H    0.035087
   138  H    0.026125
   139  H    0.030867
   140  H    0.026848
 Sum of Mulliken charges =  -0.00000

 Dipole moment (field-independent basis, Debye):
    X=             -1.0415    Y=              3.8583    Z=              1.8067  Tot=              4.3858
 Quadrupole moment (field-independent basis, Debye-Ang):
   XX=           -397.9919   YY=           -386.9283   ZZ=           -397.4975
   XY=            -45.7479   XZ=            -18.9226   YZ=            -34.8253

 Normal termination of Gaussian 16 at Thu Apr 28 06:58:31 2022.
