 Gaussian 16, Revision A.03,
 Gaussian 16:  ES64L-G16RevA.03 25-Dec-2016

 --------------------
 #p ZINDO=(nstates=5)
 --------------------

 ------------------------------
 step_1501_chromophore_11 ZINDO
 ------------------------------
 Symbolic Z-matrix:
 Charge =  0 Multiplicity = 1

                         Standard orientation:
 ---------------------------------------------------------------------
 Center     Atomic      Atomic             Coordinates (Angstroms)
 Number     Number       Type             X           Y           Z
 ---------------------------------------------------------------------
      1         12           0       -4.349368    1.425476    0.667945
      2          6           0       -5.616390   -1.896333    0.050187
      3          6           0       -2.490925    0.303199    3.129409
      4          6           0       -2.995290    4.454066    0.664705
      5          6           0       -6.546352    2.401308   -2.105464
      6          7           0       -3.848931   -0.663036    1.328670
      7          6           0       -4.649357   -1.833172    1.088696
      8          6           0       -4.264477   -2.862465    2.146980
      9          6           0       -3.788310   -1.970475    3.337089
     10          6           0       -3.304690   -0.740425    2.543480
     11          6           0       -4.840435   -1.598093    4.416781
     12          6           0       -3.359825   -4.033731    1.742241
     13          6           0       -2.490070   -3.757571    0.554840
     14          6           0       -1.104087   -4.496666    0.528391
     15          8           0       -0.803451   -5.481436   -0.125622
     16          8           0       -0.169213   -3.814752    1.282382
     17          7           0       -2.766253    2.228885    1.604678
     18          6           0       -2.149693    1.636499    2.670451
     19          6           0       -1.175813    2.503788    3.151999
     20          6           0       -1.368733    3.753670    2.506271
     21          6           0       -2.446762    3.496738    1.542846
     22          6           0       -0.405934    2.243653    4.485687
     23          6           0       -0.602193    5.074813    2.738328
     24          8           0        0.292448    5.062681    3.596112
     25          6           0       -0.861732    6.430411    2.063821
     26          7           0       -4.596054    3.131844   -0.661757
     27          6           0       -4.023395    4.311187   -0.314481
     28          6           0       -4.585768    5.441277   -1.139007
     29          6           0       -5.494188    4.734677   -2.210986
     30          6           0       -5.555278    3.300778   -1.609024
     31          6           0       -5.278733    6.464434   -0.288823
     32          6           0       -4.763877    4.659007   -3.569637
     33          6           0       -5.350491    5.744393   -4.526693
     34          7           0       -5.927551    0.487197   -0.638695
     35          6           0       -6.692490    1.032589   -1.629626
     36          6           0       -7.707380    0.072242   -2.036246
     37          6           0       -7.289619   -1.112081   -1.458587
     38          6           0       -6.105923   -0.851663   -0.665459
     39          6           0       -8.943854    0.336066   -2.879809
     40          6           0       -7.565643   -2.528990   -1.318231
     41          8           0       -8.426834   -3.286109   -1.735376
     42          6           0       -6.383477   -3.091388   -0.505417
     43          6           0       -5.567309   -3.890365   -1.430252
     44          8           0       -4.694231   -3.479893   -2.155277
     45          8           0       -5.859895   -5.238104   -1.352627
     46          6           0       -4.908517   -6.153162   -2.041976
     47          6           0        1.181613   -4.356498    1.319904
     48          6           0        1.967845   -3.676984    0.166271
     49          6           0        3.260545   -4.007353   -0.165056
     50          6           0        4.194348   -4.787368    0.670280
     51          6           0        3.899787   -3.257599   -1.287668
     52          6           0        4.461999   -1.802743   -1.135506
     53          6           0        6.007663   -1.626544   -1.188506
     54          6           0        6.401079   -0.151883   -1.430926
     55          6           0        6.861359    0.119833   -2.905564
     56          6           0        7.468886    0.349972   -0.413115
     57          6           0        8.935413   -0.015803   -0.683293
     58          6           0        9.935753    0.692305    0.273589
     59          6           0       11.006342   -0.251824    0.807109
     60          6           0       10.602969   -0.680759    2.369847
     61          6           0       12.373010    0.533751    0.745074
     62          6           0       12.977866    0.449091   -0.719379
     63          6           0       14.505340    0.098071   -0.692333
     64          6           0       15.366612    1.096289   -1.454771
     65          6           0       15.205441    2.519849   -0.877142
     66          6           0       15.005759    0.960453   -2.981660
     67          1           0       -2.166759   -0.007629    4.124852
     68          1           0       -2.603980    5.473753    0.685556
     69          1           0       -7.239475    2.643574   -2.913945
     70          1           0       -5.218169   -3.345445    2.359336
     71          1           0       -2.895058   -2.382544    3.806282
     72          1           0       -5.792124   -2.000828    4.070998
     73          1           0       -4.947669   -0.515201    4.491287
     74          1           0       -4.625200   -2.088665    5.366044
     75          1           0       -4.005618   -4.891110    1.551118
     76          1           0       -2.677331   -4.271888    2.557135
     77          1           0       -2.268752   -2.710890    0.349002
     78          1           0       -2.967277   -4.144972   -0.345051
     79          1           0       -0.132644    1.213638    4.716600
     80          1           0       -1.032492    2.494099    5.341556
     81          1           0        0.551053    2.764030    4.433207
     82          1           0       -0.138047    7.200085    2.333587
     83          1           0       -1.875898    6.824632    2.114196
     84          1           0       -0.621635    6.235748    1.018495
     85          1           0       -3.758735    6.022682   -1.546549
     86          1           0       -6.474843    5.212642   -2.222198
     87          1           0       -4.551865    7.211127    0.033847
     88          1           0       -5.837770    5.940914    0.486659
     89          1           0       -6.055295    6.987566   -0.847691
     90          1           0       -4.841337    3.655563   -3.987286
     91          1           0       -3.719865    4.855915   -3.327044
     92          1           0       -6.426246    5.907175   -4.457996
     93          1           0       -5.261953    5.396764   -5.556007
     94          1           0       -4.894988    6.733244   -4.480418
     95          1           0       -9.776998   -0.171294   -2.392006
     96          1           0       -8.854533   -0.164399   -3.844191
     97          1           0       -9.301352    1.366172   -2.875497
     98          1           0       -6.820523   -3.697411    0.287488
     99          1           0       -4.348307   -6.551677   -1.196327
    100          1           0       -4.164049   -5.711934   -2.705319
    101          1           0       -5.339160   -7.083268   -2.412450
    102          1           0        1.278074   -5.432188    1.170692
    103          1           0        1.575638   -4.124713    2.309044
    104          1           0        1.381440   -3.000448   -0.455937
    105          1           0        5.194508   -4.354160    0.665534
    106          1           0        4.388583   -5.783038    0.270244
    107          1           0        3.869827   -4.771694    1.710338
    108          1           0        3.250175   -3.268545   -2.162868
    109          1           0        4.577091   -4.019945   -1.671213
    110          1           0        4.158951   -1.482673   -0.138752
    111          1           0        3.930520   -1.152125   -1.829855
    112          1           0        6.402240   -2.351759   -1.899929
    113          1           0        6.257199   -2.000070   -0.195962
    114          1           0        5.511921    0.464949   -1.294809
    115          1           0        7.387051    1.074516   -2.858903
    116          1           0        5.991702    0.288851   -3.540092
    117          1           0        7.501933   -0.659580   -3.317997
    118          1           0        7.189473    0.039916    0.594218
    119          1           0        7.328500    1.426404   -0.317531
    120          1           0        9.164576    0.315728   -1.696609
    121          1           0        9.059469   -1.097133   -0.748228
    122          1           0        9.394619    1.164044    1.093991
    123          1           0       10.412026    1.513007   -0.262397
    124          1           0       11.055806   -1.168372    0.219186
    125          1           0       10.859262   -1.736092    2.470621
    126          1           0        9.539866   -0.529409    2.554001
    127          1           0       11.239450   -0.210910    3.118665
    128          1           0       13.008248   -0.005473    1.448169
    129          1           0       12.316503    1.559265    1.110696
    130          1           0       12.709316    1.389715   -1.199813
    131          1           0       12.559951   -0.429975   -1.210614
    132          1           0       14.770795   -0.808395   -1.237628
    133          1           0       14.998133   -0.018842    0.271838
    134          1           0       16.444784    1.029751   -1.305614
    135          1           0       14.341568    3.037725   -1.294031
    136          1           0       15.949951    3.214271   -1.267162
    137          1           0       15.162857    2.635382    0.205077
    138          1           0       14.175310    0.266733   -3.114206
    139          1           0       15.804881    0.494381   -3.558049
    140          1           0       14.740317    1.896907   -3.471578
 ---------------------------------------------------------------------

 SCF Done:  E(RZINDO/S) =  -474.177981099     A.U. after   20 cycles

 Excitation energies and oscillator strengths:

 Excited State   1:      Singlet-A      1.1906 eV 1041.37 nm  f=0.5911  <S**2>=0.000
     175 ->178         0.19619
     176 ->177         0.66028
 This state for optimization and/or second-order correction.
 Total Energy, E(CIS/TDA) =  -474.134227987
 Copying the excited state density for this state as the 1-particle RhoCI density.

 Excited State   2:      Singlet-A      1.8437 eV  672.48 nm  f=0.0212  <S**2>=0.000
     175 ->177         0.52964
     176 ->178        -0.44294

 Excited State   3:      Singlet-A      2.8168 eV  440.16 nm  f=0.4654  <S**2>=0.000
     175 ->177        -0.29568
     176 ->178        -0.41975
     176 ->179         0.42735

 Excited State   4:      Singlet-A      2.9073 eV  426.46 nm  f=0.0002  <S**2>=0.000
     169 ->177         0.27619
     169 ->179         0.28097
     169 ->180         0.34574
     169 ->181        -0.12581
     169 ->184         0.13378
     169 ->185         0.22785
     169 ->187        -0.12179
     170 ->177         0.11714
     170 ->179         0.10675
     170 ->180         0.14208

 Excited State   5:      Singlet-A      2.9452 eV  420.97 nm  f=0.0013  <S**2>=0.000
     168 ->177         0.30738
     168 ->178         0.20032
     168 ->179        -0.37125
     168 ->180         0.22110
     168 ->185        -0.17121
     168 ->187        -0.14042
     170 ->177        -0.11562
     170 ->179         0.14033

 The electronic state is 1-A.
 Alpha  occ. eigenvalues --   -1.84575  -1.84367  -1.81221  -1.74392  -1.72613
 Alpha  occ. eigenvalues --   -1.71245  -1.63513  -1.60042  -1.59646  -1.57415
 Alpha  occ. eigenvalues --   -1.54834  -1.50475  -1.49559  -1.47828  -1.46038
 Alpha  occ. eigenvalues --   -1.43830  -1.42695  -1.40635  -1.37044  -1.36637
 Alpha  occ. eigenvalues --   -1.36112  -1.33505  -1.30625  -1.29504  -1.27977
 Alpha  occ. eigenvalues --   -1.26268  -1.23965  -1.21992  -1.19659  -1.18509
 Alpha  occ. eigenvalues --   -1.16981  -1.16662  -1.15542  -1.14399  -1.13080
 Alpha  occ. eigenvalues --   -1.12811  -1.09915  -1.09575  -1.05976  -1.04152
 Alpha  occ. eigenvalues --   -1.02349  -1.02068  -1.00135  -0.98507  -0.97589
 Alpha  occ. eigenvalues --   -0.96192  -0.96115  -0.94355  -0.93786  -0.91363
 Alpha  occ. eigenvalues --   -0.91059  -0.90890  -0.88873  -0.85904  -0.84695
 Alpha  occ. eigenvalues --   -0.84274  -0.83883  -0.83210  -0.82053  -0.80204
 Alpha  occ. eigenvalues --   -0.79861  -0.78786  -0.78276  -0.77697  -0.77127
 Alpha  occ. eigenvalues --   -0.76813  -0.76288  -0.75825  -0.73781  -0.73572
 Alpha  occ. eigenvalues --   -0.73186  -0.73064  -0.72022  -0.71099  -0.70899
 Alpha  occ. eigenvalues --   -0.69886  -0.69775  -0.69201  -0.68599  -0.67697
 Alpha  occ. eigenvalues --   -0.67192  -0.66583  -0.65944  -0.65713  -0.64959
 Alpha  occ. eigenvalues --   -0.64759  -0.64602  -0.64358  -0.63922  -0.63602
 Alpha  occ. eigenvalues --   -0.63230  -0.62883  -0.62654  -0.61840  -0.61793
 Alpha  occ. eigenvalues --   -0.61390  -0.61050  -0.60474  -0.60204  -0.60054
 Alpha  occ. eigenvalues --   -0.59844  -0.59115  -0.58306  -0.58209  -0.57707
 Alpha  occ. eigenvalues --   -0.57243  -0.57194  -0.56474  -0.56449  -0.56296
 Alpha  occ. eigenvalues --   -0.56079  -0.55412  -0.55184  -0.54966  -0.54864
 Alpha  occ. eigenvalues --   -0.54454  -0.54293  -0.53501  -0.53147  -0.53084
 Alpha  occ. eigenvalues --   -0.53021  -0.52469  -0.52090  -0.51937  -0.51915
 Alpha  occ. eigenvalues --   -0.51577  -0.50999  -0.50693  -0.50653  -0.50245
 Alpha  occ. eigenvalues --   -0.50076  -0.49909  -0.49464  -0.49337  -0.49272
 Alpha  occ. eigenvalues --   -0.48471  -0.48332  -0.48286  -0.48018  -0.47977
 Alpha  occ. eigenvalues --   -0.47811  -0.47632  -0.46940  -0.46902  -0.46423
 Alpha  occ. eigenvalues --   -0.46181  -0.45702  -0.45634  -0.45422  -0.45301
 Alpha  occ. eigenvalues --   -0.45031  -0.44733  -0.44619  -0.44397  -0.43925
 Alpha  occ. eigenvalues --   -0.43741  -0.42978  -0.42962  -0.42603  -0.42038
 Alpha  occ. eigenvalues --   -0.41495  -0.41342  -0.40537  -0.38628  -0.38525
 Alpha  occ. eigenvalues --   -0.38201  -0.37551  -0.35600  -0.35112  -0.34925
 Alpha  occ. eigenvalues --   -0.33236  -0.32749  -0.32535  -0.31053  -0.26814
 Alpha  occ. eigenvalues --   -0.21801
 Alpha virt. eigenvalues --   -0.08807  -0.02786  -0.01034   0.01062   0.01413
 Alpha virt. eigenvalues --    0.02433   0.02779   0.02994   0.04497   0.04910
 Alpha virt. eigenvalues --    0.05869   0.06563   0.06875   0.07417   0.07854

 Mulliken charges:
               1
     1  Mg   0.438487
     2  C   -0.017389
     3  C   -0.083654
     4  C   -0.112324
     5  C   -0.099241
     6  N   -0.284073
     7  C    0.096599
     8  C    0.014092
     9  C    0.008590
    10  C    0.132940
    11  C   -0.045531
    12  C   -0.004908
    13  C    0.007367
    14  C    0.455953
    15  O   -0.511688
    16  O   -0.280246
    17  N   -0.307934
    18  C    0.104352
    19  C    0.029795
    20  C   -0.051171
    21  C    0.146974
    22  C   -0.046143
    23  C    0.320020
    24  O   -0.527572
    25  C   -0.023903
    26  N   -0.278746
    27  C    0.141839
    28  C    0.005700
    29  C   -0.004077
    30  C    0.136594
    31  C   -0.048013
    32  C   -0.021251
    33  C   -0.060655
    34  N   -0.330155
    35  C    0.111908
    36  C    0.036106
    37  C   -0.045709
    38  C    0.110673
    39  C   -0.040565
    40  C    0.337535
    41  O   -0.518098
    42  C    0.062535
    43  C    0.499510
    44  O   -0.522513
    45  O   -0.272391
    46  C    0.066753
    47  C    0.103340
    48  C   -0.088297
    49  C   -0.003602
    50  C   -0.036316
    51  C   -0.031462
    52  C   -0.028688
    53  C   -0.031984
    54  C   -0.008574
    55  C   -0.057767
    56  C   -0.031761
    57  C   -0.035103
    58  C   -0.030865
    59  C   -0.021872
    60  C   -0.073461
    61  C   -0.040002
    62  C   -0.032606
    63  C   -0.030336
    64  C   -0.010987
    65  C   -0.063945
    66  C   -0.059258
    67  H    0.024818
    68  H    0.025823
    69  H    0.038034
    70  H    0.012604
    71  H    0.028908
    72  H    0.018089
    73  H    0.032163
    74  H    0.026767
    75  H    0.029210
    76  H    0.026349
    77  H    0.050484
    78  H    0.041857
    79  H    0.014868
    80  H    0.033444
    81  H    0.040907
    82  H    0.038874
    83  H    0.039836
    84  H    0.029078
    85  H    0.026470
    86  H    0.037091
    87  H    0.024472
    88  H    0.023531
    89  H    0.011999
    90  H    0.031994
    91  H    0.027499
    92  H    0.018549
    93  H    0.011331
    94  H    0.023707
    95  H    0.024830
    96  H    0.044863
    97  H    0.029033
    98  H    0.049421
    99  H    0.021065
   100  H    0.064806
   101  H    0.044675
   102  H    0.056663
   103  H    0.035689
   104  H    0.044815
   105  H    0.018184
   106  H    0.034525
   107  H    0.020781
   108  H    0.012046
   109  H    0.010945
   110  H    0.014958
   111  H    0.022605
   112  H    0.023083
   113  H    0.017279
   114  H    0.019998
   115  H    0.015087
   116  H    0.016106
   117  H    0.026543
   118  H    0.010140
   119  H    0.011579
   120  H    0.013336
   121  H    0.022789
   122  H    0.021189
   123  H    0.015288
   124  H    0.031517
   125  H    0.011030
   126  H    0.028216
   127  H    0.024526
   128  H    0.009521
   129  H    0.028168
   130  H    0.035849
   131  H    0.023449
   132  H    0.012144
   133  H    0.018348
   134  H    0.021190
   135  H    0.008263
   136  H    0.007129
   137  H    0.023625
   138  H    0.017124
   139  H    0.015471
   140  H    0.020526
 Sum of Mulliken charges =  -0.00000

 Dipole moment (field-independent basis, Debye):
    X=             -3.4709    Y=              4.7051    Z=              2.8412  Tot=              6.5006
 N-N= 4.368631175969D+03 E-N= 0.000000000000D+00  KE=-9.411585891674D+03
 Leave Link  601 at Thu Apr 28 07:11:34 2022, MaxMem=  6710886400 cpu:               2.8 elap:               0.1
 (Enter /sw/apps/gaussian-16.0/g16/l9999.exe)
 1\1\GINC-BP1-COMPUTE148\SP\RZINDO CIS\STO-3G\C55H74Mg1N4O6\OF15641\28-
 Apr-2022\0\\#p ZINDO=(nstates=5)\\step_1501_chromophore_11 ZINDO\\0,1\
 Mg,0,52.858,23.546,43.542\C,0,50.027,25.767,43.27\C,0,50.892,20.936,43
 .234\C,0,55.668,21.798,43.309\C,0,54.806,26.637,43.891\N,0,50.69,23.36
 8,42.979\C,0,49.694,24.392,43.143\C,0,48.338,23.694,43.183\C,0,48.695,
 22.281,43.744\C,0,50.149,22.178,43.242\C,0,48.586,22.073,45.279\C,0,47
 .443,23.749,41.938\C,0,48.186,23.96,40.655\C,0,47.548,23.312,39.374\O,

 Normal termination of Gaussian 16 at Thu Apr 28 07:11:34 2022.
