 Gaussian 16, Revision A.03,
 Gaussian 16:  ES64L-G16RevA.03 25-Dec-2016

 ------------------------------
 #p blyp/Def2SVP td=(nstates=5)
 ------------------------------

 -------------------------------------------------
 step_901_chromophore_1 TDDFT with blyp functional
 -------------------------------------------------
 Symbolic Z-matrix:
 Charge =  0 Multiplicity = 1

                         Standard orientation:
 ---------------------------------------------------------------------
 Center     Atomic      Atomic             Coordinates (Angstroms)
 Number     Number       Type             X           Y           Z
 ---------------------------------------------------------------------
      1         12           0        6.277026    0.433278   -0.003362
      2          6           0        4.116408   -2.247893   -0.412893
      3          6           0        3.862590    2.573305   -1.280278
      4          6           0        8.459373    3.057482    0.161604
      5          6           0        8.824451   -1.854733    0.535109
      6          7           0        4.250399    0.172544   -0.787961
      7          6           0        3.508072   -0.980184   -0.680830
      8          6           0        1.988152   -0.697299   -1.088634
      9          6           0        2.089706    0.790543   -1.708942
     10          6           0        3.502533    1.255132   -1.156897
     11          6           0        2.037210    1.041173   -3.230284
     12          6           0        0.925962   -0.825382    0.067868
     13          6           0       -0.557119   -0.556053   -0.326039
     14          6           0       -1.586844   -1.736236   -0.373030
     15          8           0       -1.262540   -2.862839   -0.721023
     16          8           0       -2.846520   -1.311212   -0.107606
     17          7           0        6.113438    2.520188   -0.430473
     18          6           0        5.052702    3.221431   -0.899583
     19          6           0        5.290891    4.566124   -1.004690
     20          6           0        6.574532    4.737179   -0.435472
     21          6           0        7.135470    3.359517   -0.273713
     22          6           0        4.301553    5.701317   -1.265645
     23          6           0        7.318105    6.021433   -0.026086
     24          8           0        8.471345    6.011581    0.249492
     25          6           0        6.666347    7.316881   -0.143444
     26          7           0        8.443429    0.561821    0.090578
     27          6           0        9.025852    1.747321    0.303721
     28          6           0       10.468011    1.464028    0.666557
     29          6           0       10.579973   -0.056775    0.920430
     30          6           0        9.145749   -0.495532    0.550033
     31          6           0       11.457485    1.949175   -0.475666
     32          6           0       11.022174   -0.539344    2.386322
     33          6           0       10.181026    0.008943    3.559705
     34          7           0        6.440737   -1.625139    0.135760
     35          6           0        7.576096   -2.410408    0.315740
     36          6           0        7.234372   -3.768726    0.296457
     37          6           0        5.832930   -3.807993   -0.042336
     38          6           0        5.420353   -2.449986   -0.014553
     39          6           0        8.132337   -4.986213    0.440365
     40          6           0        4.595888   -4.594752   -0.345645
     41          8           0        4.411156   -5.805861   -0.433263
     42          6           0        3.539082   -3.607000   -0.587778
     43          6           0        2.457405   -3.920023    0.300300
     44          8           0        2.348910   -3.598309    1.479186
     45          8           0        1.635839   -4.787656   -0.399851
     46          6           0        0.480247   -5.484565    0.260241
     47          6           0       -3.908461   -2.270564   -0.203272
     48          6           0       -5.124154   -1.551676   -0.582755
     49          6           0       -6.407750   -2.043747   -0.562186
     50          6           0       -6.697319   -3.558649   -0.243422
     51          6           0       -7.609632   -1.144404   -0.957022
     52          6           0       -8.660422   -0.756918    0.082229
     53          6           0       -9.428893    0.498214   -0.359871
     54          6           0       -9.521600    1.660748    0.649292
     55          6           0       -8.243357    2.502200    0.622874
     56          6           0       -9.948231    1.249147    2.128110
     57          6           0      -11.166314    2.016950    2.729555
     58          6           0      -12.481720    1.250914    2.923808
     59          6           0      -13.753874    1.830909    2.206126
     60          6           0      -14.549834    2.557714    3.251605
     61          6           0      -14.691077    0.727386    1.580522
     62          6           0      -13.970065    0.393738    0.199578
     63          6           0      -14.878420   -0.245199   -0.840667
     64          6           0      -15.047071    0.763292   -1.993572
     65          6           0      -16.478750    0.594159   -2.572534
     66          6           0      -13.920813    0.454751   -3.073399
     67          1           0        3.236330    3.276679   -1.832830
     68          1           0        9.195580    3.850392    0.308799
     69          1           0        9.610878   -2.586714    0.736717
     70          1           0        1.837028   -1.320153   -1.969443
     71          1           0        1.244297    1.396864   -1.384313
     72          1           0        2.846918    1.720281   -3.499393
     73          1           0        1.104143    1.532041   -3.508145
     74          1           0        2.078883    0.092578   -3.765008
     75          1           0        1.205790   -0.232651    0.939851
     76          1           0        0.911413   -1.851112    0.437314
     77          1           0       -0.685733   -0.308980   -1.380388
     78          1           0       -0.960999    0.280806    0.243756
     79          1           0        3.268218    5.414220   -1.461409
     80          1           0        4.616942    6.358259   -2.074683
     81          1           0        4.240826    6.329235   -0.376637
     82          1           0        6.165160    7.521257   -1.089625
     83          1           0        7.485788    8.033637   -0.106891
     84          1           0        5.935840    7.357390    0.664992
     85          1           0       10.741660    2.127443    1.486363
     86          1           0       11.278592   -0.576052    0.263183
     87          1           0       10.790463    2.308262   -1.259477
     88          1           0       12.058375    1.164290   -0.935866
     89          1           0       12.075096    2.797898   -0.182646
     90          1           0       12.052209   -0.284993    2.633368
     91          1           0       10.939477   -1.621510    2.483509
     92          1           0        9.726505   -0.807807    4.120054
     93          1           0        9.363450    0.605396    3.155691
     94          1           0       10.833533    0.562156    4.236419
     95          1           0        8.142398   -5.593812   -0.465197
     96          1           0        7.693691   -5.565771    1.253052
     97          1           0        9.095931   -4.728007    0.880460
     98          1           0        3.251003   -3.710092   -1.633327
     99          1           0        0.428018   -5.018497    1.244141
    100          1           0        0.719720   -6.537065    0.411461
    101          1           0       -0.468289   -5.400354   -0.271283
    102          1           0       -3.988084   -2.765113    0.765313
    103          1           0       -3.659006   -2.940793   -1.026731
    104          1           0       -4.968534   -0.538977   -0.954034
    105          1           0       -5.862489   -4.101555    0.199541
    106          1           0       -6.911065   -4.058295   -1.187824
    107          1           0       -7.518352   -3.488535    0.469397
    108          1           0       -8.055303   -1.824672   -1.681661
    109          1           0       -7.133235   -0.294485   -1.445935
    110          1           0       -8.185247   -0.539747    1.038998
    111          1           0       -9.397327   -1.557653    0.133320
    112          1           0      -10.479327    0.232159   -0.481581
    113          1           0       -9.078403    0.961909   -1.281874
    114          1           0      -10.235613    2.378991    0.245062
    115          1           0       -7.539792    2.121391   -0.116478
    116          1           0       -7.821643    2.512153    1.627867
    117          1           0       -8.347678    3.524104    0.260922
    118          1           0       -9.142924    1.347040    2.855362
    119          1           0      -10.121402    0.178870    2.239408
    120          1           0      -11.443854    2.708394    1.933496
    121          1           0      -10.951621    2.617105    3.613923
    122          1           0      -12.702026    1.301015    3.990350
    123          1           0      -12.455550    0.185971    2.692367
    124          1           0      -13.359313    2.537484    1.475685
    125          1           0      -13.930957    2.957713    4.054443
    126          1           0      -15.181023    1.803259    3.721701
    127          1           0      -15.213785    3.231426    2.709082
    128          1           0      -15.699297    1.083865    1.366100
    129          1           0      -14.722383   -0.175657    2.189120
    130          1           0      -13.132649   -0.252847    0.460791
    131          1           0      -13.451522    1.266364   -0.195701
    132          1           0      -15.819408   -0.529986   -0.369150
    133          1           0      -14.371524   -1.150239   -1.175401
    134          1           0      -14.902213    1.774792   -1.612457
    135          1           0      -17.046696    1.464337   -2.244394
    136          1           0      -16.981821   -0.304634   -2.216738
    137          1           0      -16.485419    0.492218   -3.657091
    138          1           0      -12.903487    0.648426   -2.733198
    139          1           0      -14.072168    1.087701   -3.947925
    140          1           0      -13.940757   -0.574994   -3.429185
 ---------------------------------------------------------------------

 SCF Done:  E(RB-LYP) =  -3007.36524334     A.U. after   21 cycles

 Excitation energies and oscillator strengths:

 Excited State   1:      Singlet-A      1.8231 eV  680.08 nm  f=0.2691  <S**2>=0.000
     243 -> 247        0.11910
     245 -> 247       -0.14911
     245 -> 248       -0.19769
     246 -> 247        0.65871
     246 <- 247       -0.13564
 This state for optimization and/or second-order correction.
 Total Energy, E(TD-HF/TD-DFT) =  -3007.29824628
 Copying the excited state density for this state as the 1-particle RhoCI density.

 Excited State   2:      Singlet-A      1.9357 eV  640.51 nm  f=0.0349  <S**2>=0.000
     244 -> 247        0.60696
     245 -> 247        0.31778
     246 -> 247        0.12670

 Excited State   3:      Singlet-A      1.9935 eV  621.93 nm  f=0.0586  <S**2>=0.000
     243 -> 247        0.44518
     244 -> 247        0.29588
     245 -> 247       -0.40363
     246 -> 247       -0.14460
     246 -> 248       -0.15808

 Excited State   4:      Singlet-A      2.0239 eV  612.59 nm  f=0.0380  <S**2>=0.000
     243 -> 247        0.53083
     244 -> 247       -0.19780
     245 -> 247        0.38113
     246 -> 248        0.14141

 Excited State   5:      Singlet-A      2.2683 eV  546.59 nm  f=0.0000  <S**2>=0.000
     242 -> 247        0.70709

 The electronic state is 1-A.
 Alpha  occ. eigenvalues --  -46.27268 -18.82747 -18.80151 -18.77178 -18.76054
 Alpha  occ. eigenvalues --  -18.75445 -18.75181 -14.03461 -14.02910 -14.00679
 Alpha  occ. eigenvalues --  -14.00145 -10.04660 -10.02933  -9.99339  -9.99240
 Alpha  occ. eigenvalues --   -9.98009  -9.97101  -9.96284  -9.96215  -9.96163
 Alpha  occ. eigenvalues --   -9.95990  -9.95647  -9.94733  -9.94675  -9.94585
 Alpha  occ. eigenvalues --   -9.93930  -9.93707  -9.93626  -9.93621  -9.93426
 Alpha  occ. eigenvalues --   -9.93396  -9.93366  -9.93274  -9.93237  -9.93046
 Alpha  occ. eigenvalues --   -9.93031  -9.92915  -9.92628  -9.92500  -9.92468
 Alpha  occ. eigenvalues --   -9.92456  -9.92413  -9.92373  -9.92306  -9.92285
 Alpha  occ. eigenvalues --   -9.92284  -9.92277  -9.92186  -9.92084  -9.91708
 Alpha  occ. eigenvalues --   -9.91696  -9.91681  -9.91662  -9.91520  -9.91507
 Alpha  occ. eigenvalues --   -9.91493  -9.91370  -9.91268  -9.91223  -9.91077
 Alpha  occ. eigenvalues --   -9.90753  -9.90742  -9.90641  -9.90612  -9.90602
 Alpha  occ. eigenvalues --   -9.90261  -2.91812  -1.72233  -1.71685  -1.71534
 Alpha  occ. eigenvalues --   -0.99049  -0.95470  -0.93771  -0.90794  -0.90717
 Alpha  occ. eigenvalues --   -0.88287  -0.87015  -0.86458  -0.86021  -0.84554
 Alpha  occ. eigenvalues --   -0.76460  -0.73606  -0.73010  -0.72185  -0.72136
 Alpha  occ. eigenvalues --   -0.71419  -0.71106  -0.71075  -0.70767  -0.70455
 Alpha  occ. eigenvalues --   -0.69640  -0.69148  -0.68016  -0.67306  -0.66920
 Alpha  occ. eigenvalues --   -0.66337  -0.65988  -0.65343  -0.64878  -0.64542
 Alpha  occ. eigenvalues --   -0.64252  -0.62339  -0.62157  -0.61588  -0.60701
 Alpha  occ. eigenvalues --   -0.60319  -0.60128  -0.59587  -0.59298  -0.58858
 Alpha  occ. eigenvalues --   -0.58411  -0.57777  -0.56794  -0.55756  -0.54613
 Alpha  occ. eigenvalues --   -0.53709  -0.53398  -0.52489  -0.52421  -0.51585
 Alpha  occ. eigenvalues --   -0.51113  -0.50668  -0.50460  -0.50173  -0.49940
 Alpha  occ. eigenvalues --   -0.49736  -0.49112  -0.48066  -0.47416  -0.46922
 Alpha  occ. eigenvalues --   -0.46190  -0.46057  -0.45295  -0.44861  -0.44665
 Alpha  occ. eigenvalues --   -0.43953  -0.43727  -0.43170  -0.42730  -0.42566
 Alpha  occ. eigenvalues --   -0.42255  -0.42023  -0.41549  -0.41194  -0.41017
 Alpha  occ. eigenvalues --   -0.40748  -0.40662  -0.40584  -0.40376  -0.39909
 Alpha  occ. eigenvalues --   -0.39743  -0.39599  -0.39257  -0.39215  -0.38881
 Alpha  occ. eigenvalues --   -0.38796  -0.38398  -0.38203  -0.38188  -0.38082
 Alpha  occ. eigenvalues --   -0.37979  -0.37812  -0.37657  -0.37512  -0.37299
 Alpha  occ. eigenvalues --   -0.37127  -0.37064  -0.36865  -0.36447  -0.36436
 Alpha  occ. eigenvalues --   -0.36268  -0.36184  -0.36148  -0.35861  -0.35706
 Alpha  occ. eigenvalues --   -0.35632  -0.35323  -0.35130  -0.34974  -0.34910
 Alpha  occ. eigenvalues --   -0.34540  -0.34380  -0.34256  -0.33980  -0.33698
 Alpha  occ. eigenvalues --   -0.33574  -0.33463  -0.33206  -0.33076  -0.32729
 Alpha  occ. eigenvalues --   -0.32648  -0.32577  -0.32177  -0.32003  -0.31937
 Alpha  occ. eigenvalues --   -0.31834  -0.31559  -0.31493  -0.31265  -0.31184
 Alpha  occ. eigenvalues --   -0.31140  -0.30912  -0.30770  -0.30575  -0.30524
 Alpha  occ. eigenvalues --   -0.30396  -0.30073  -0.29879  -0.29843  -0.29585
 Alpha  occ. eigenvalues --   -0.29524  -0.29297  -0.28957  -0.28807  -0.28706
 Alpha  occ. eigenvalues --   -0.28671  -0.28498  -0.28488  -0.27770  -0.27635
 Alpha  occ. eigenvalues --   -0.27468  -0.27317  -0.26984  -0.26522  -0.26340
 Alpha  occ. eigenvalues --   -0.26186  -0.25937  -0.25893  -0.25507  -0.25327
 Alpha  occ. eigenvalues --   -0.24938  -0.24812  -0.24075  -0.23635  -0.23630
 Alpha  occ. eigenvalues --   -0.23011  -0.22296  -0.21789  -0.21426  -0.20482
 Alpha  occ. eigenvalues --   -0.20058  -0.19777  -0.18664  -0.18472  -0.16994
 Alpha  occ. eigenvalues --   -0.15853
 Alpha virt. eigenvalues --   -0.11442  -0.06697  -0.05822  -0.03988  -0.02357
 Alpha virt. eigenvalues --   -0.02304  -0.01793  -0.01659  -0.01144   0.00600
 Alpha virt. eigenvalues --    0.01334   0.01562   0.01902   0.02745   0.02863

 Mulliken charges:
               1
     1  Mg   0.676821
     2  C    0.014776
     3  C   -0.084048
     4  C   -0.038319
     5  C   -0.107956
     6  N   -0.218666
     7  C   -0.085100
     8  C    0.062763
     9  C   -0.075524
    10  C    0.095540
    11  C    0.125312
    12  C    0.164252
    13  C    0.105088
    14  C    0.055701
    15  O   -0.194604
    16  O   -0.252793
    17  N   -0.226132
    18  C    0.087283
    19  C   -0.121126
    20  C   -0.002201
    21  C    0.090819
    22  C    0.158674
    23  C   -0.081504
    24  O   -0.130854
    25  C    0.138895
    26  N   -0.205693
    27  C    0.006153
    28  C    0.010298
    29  C    0.067153
    30  C    0.049332
    31  C    0.106011
    32  C    0.054669
    33  C    0.049626
    34  N   -0.253500
    35  C    0.149297
    36  C   -0.195338
    37  C    0.039447
    38  C    0.052427
    39  C    0.192770
    40  C   -0.075943
    41  O   -0.127588
    42  C    0.165082
    43  C    0.132279
    44  O   -0.194926
    45  O   -0.291477
    46  C    0.205882
    47  C    0.334686
    48  C   -0.125940
    49  C   -0.183824
    50  C    0.119086
    51  C    0.128412
    52  C    0.120475
    53  C    0.079973
    54  C   -0.073574
    55  C    0.105230
    56  C    0.099100
    57  C    0.086413
    58  C    0.093649
    59  C   -0.125151
    60  C    0.152427
    61  C    0.103463
    62  C   -0.003206
    63  C    0.163678
    64  C   -0.092274
    65  C    0.111926
    66  C    0.075822
    67  H   -0.060654
    68  H   -0.037044
    69  H   -0.058556
    70  H   -0.030362
    71  H   -0.032784
    72  H    0.000031
    73  H   -0.015701
    74  H   -0.010380
    75  H   -0.021958
    76  H    0.007102
    77  H    0.003093
    78  H   -0.008208
    79  H   -0.017833
    80  H    0.001809
    81  H   -0.002649
    82  H   -0.001532
    83  H   -0.009688
    84  H    0.012779
    85  H   -0.023995
    86  H   -0.022071
    87  H   -0.011318
    88  H   -0.009441
    89  H   -0.002180
    90  H   -0.020366
    91  H   -0.026401
    92  H   -0.010468
    93  H    0.000796
    94  H   -0.006390
    95  H    0.025300
    96  H   -0.001437
    97  H   -0.027375
    98  H    0.007279
    99  H    0.008383
   100  H    0.013986
   101  H    0.033462
   102  H    0.013304
   103  H    0.005157
   104  H   -0.037979
   105  H   -0.011974
   106  H    0.013146
   107  H    0.005123
   108  H   -0.029742
   109  H   -0.025721
   110  H   -0.012335
   111  H   -0.020778
   112  H   -0.030768
   113  H   -0.029822
   114  H   -0.034471
   115  H   -0.030832
   116  H   -0.016259
   117  H   -0.022488
   118  H   -0.037750
   119  H   -0.034147
   120  H   -0.039877
   121  H   -0.023777
   122  H   -0.049793
   123  H   -0.040877
   124  H   -0.033048
   125  H   -0.020136
   126  H   -0.029497
   127  H   -0.020000
   128  H   -0.029040
   129  H   -0.020218
   130  H   -0.040209
   131  H   -0.022057
   132  H   -0.033437
   133  H   -0.042929
   134  H   -0.024422
   135  H   -0.012563
   136  H   -0.016891
   137  H   -0.024759
   138  H   -0.015296
   139  H   -0.017633
   140  H   -0.013865
 Sum of Mulliken charges =  -0.00000

 Dipole moment (field-independent basis, Debye):
    X=             -3.7160    Y=              3.3429    Z=             -0.5803  Tot=              5.0320
 Quadrupole moment (field-independent basis, Debye-Ang):
   XX=           -377.5554   YY=           -424.1896   ZZ=           -405.2775
   XY=              4.2327   XZ=              6.3751   YZ=             -7.0551

 Normal termination of Gaussian 16 at Sat Apr 30 21:17:26 2022.
