 Gaussian 16, Revision A.03,
 Gaussian 16:  ES64L-G16RevA.03 25-Dec-2016

 -----------------------------------
 #p cam-b3lyp/Def2SVP td=(nstates=5)
 -----------------------------------

 ------------------------------------------------------
 step_901_chromophore_1 TDDFT with cam-b3lyp functional
 ------------------------------------------------------
 Symbolic Z-matrix:
 Charge =  0 Multiplicity = 1

                         Standard orientation:
 ---------------------------------------------------------------------
 Center     Atomic      Atomic             Coordinates (Angstroms)
 Number     Number       Type             X           Y           Z
 ---------------------------------------------------------------------
      1         12           0        6.277026    0.433278   -0.003362
      2          6           0        4.116408   -2.247893   -0.412893
      3          6           0        3.862590    2.573305   -1.280278
      4          6           0        8.459373    3.057482    0.161604
      5          6           0        8.824451   -1.854733    0.535109
      6          7           0        4.250399    0.172544   -0.787961
      7          6           0        3.508072   -0.980184   -0.680830
      8          6           0        1.988152   -0.697299   -1.088634
      9          6           0        2.089706    0.790543   -1.708942
     10          6           0        3.502533    1.255132   -1.156897
     11          6           0        2.037210    1.041173   -3.230284
     12          6           0        0.925962   -0.825382    0.067868
     13          6           0       -0.557119   -0.556053   -0.326039
     14          6           0       -1.586844   -1.736236   -0.373030
     15          8           0       -1.262540   -2.862839   -0.721023
     16          8           0       -2.846520   -1.311212   -0.107606
     17          7           0        6.113438    2.520188   -0.430473
     18          6           0        5.052702    3.221431   -0.899583
     19          6           0        5.290891    4.566124   -1.004690
     20          6           0        6.574532    4.737179   -0.435472
     21          6           0        7.135470    3.359517   -0.273713
     22          6           0        4.301553    5.701317   -1.265645
     23          6           0        7.318105    6.021433   -0.026086
     24          8           0        8.471345    6.011581    0.249492
     25          6           0        6.666347    7.316881   -0.143444
     26          7           0        8.443429    0.561821    0.090578
     27          6           0        9.025852    1.747321    0.303721
     28          6           0       10.468011    1.464028    0.666557
     29          6           0       10.579973   -0.056775    0.920430
     30          6           0        9.145749   -0.495532    0.550033
     31          6           0       11.457485    1.949175   -0.475666
     32          6           0       11.022174   -0.539344    2.386322
     33          6           0       10.181026    0.008943    3.559705
     34          7           0        6.440737   -1.625139    0.135760
     35          6           0        7.576096   -2.410408    0.315740
     36          6           0        7.234372   -3.768726    0.296457
     37          6           0        5.832930   -3.807993   -0.042336
     38          6           0        5.420353   -2.449986   -0.014553
     39          6           0        8.132337   -4.986213    0.440365
     40          6           0        4.595888   -4.594752   -0.345645
     41          8           0        4.411156   -5.805861   -0.433263
     42          6           0        3.539082   -3.607000   -0.587778
     43          6           0        2.457405   -3.920023    0.300300
     44          8           0        2.348910   -3.598309    1.479186
     45          8           0        1.635839   -4.787656   -0.399851
     46          6           0        0.480247   -5.484565    0.260241
     47          6           0       -3.908461   -2.270564   -0.203272
     48          6           0       -5.124154   -1.551676   -0.582755
     49          6           0       -6.407750   -2.043747   -0.562186
     50          6           0       -6.697319   -3.558649   -0.243422
     51          6           0       -7.609632   -1.144404   -0.957022
     52          6           0       -8.660422   -0.756918    0.082229
     53          6           0       -9.428893    0.498214   -0.359871
     54          6           0       -9.521600    1.660748    0.649292
     55          6           0       -8.243357    2.502200    0.622874
     56          6           0       -9.948231    1.249147    2.128110
     57          6           0      -11.166314    2.016950    2.729555
     58          6           0      -12.481720    1.250914    2.923808
     59          6           0      -13.753874    1.830909    2.206126
     60          6           0      -14.549834    2.557714    3.251605
     61          6           0      -14.691077    0.727386    1.580522
     62          6           0      -13.970065    0.393738    0.199578
     63          6           0      -14.878420   -0.245199   -0.840667
     64          6           0      -15.047071    0.763292   -1.993572
     65          6           0      -16.478750    0.594159   -2.572534
     66          6           0      -13.920813    0.454751   -3.073399
     67          1           0        3.236330    3.276679   -1.832830
     68          1           0        9.195580    3.850392    0.308799
     69          1           0        9.610878   -2.586714    0.736717
     70          1           0        1.837028   -1.320153   -1.969443
     71          1           0        1.244297    1.396864   -1.384313
     72          1           0        2.846918    1.720281   -3.499393
     73          1           0        1.104143    1.532041   -3.508145
     74          1           0        2.078883    0.092578   -3.765008
     75          1           0        1.205790   -0.232651    0.939851
     76          1           0        0.911413   -1.851112    0.437314
     77          1           0       -0.685733   -0.308980   -1.380388
     78          1           0       -0.960999    0.280806    0.243756
     79          1           0        3.268218    5.414220   -1.461409
     80          1           0        4.616942    6.358259   -2.074683
     81          1           0        4.240826    6.329235   -0.376637
     82          1           0        6.165160    7.521257   -1.089625
     83          1           0        7.485788    8.033637   -0.106891
     84          1           0        5.935840    7.357390    0.664992
     85          1           0       10.741660    2.127443    1.486363
     86          1           0       11.278592   -0.576052    0.263183
     87          1           0       10.790463    2.308262   -1.259477
     88          1           0       12.058375    1.164290   -0.935866
     89          1           0       12.075096    2.797898   -0.182646
     90          1           0       12.052209   -0.284993    2.633368
     91          1           0       10.939477   -1.621510    2.483509
     92          1           0        9.726505   -0.807807    4.120054
     93          1           0        9.363450    0.605396    3.155691
     94          1           0       10.833533    0.562156    4.236419
     95          1           0        8.142398   -5.593812   -0.465197
     96          1           0        7.693691   -5.565771    1.253052
     97          1           0        9.095931   -4.728007    0.880460
     98          1           0        3.251003   -3.710092   -1.633327
     99          1           0        0.428018   -5.018497    1.244141
    100          1           0        0.719720   -6.537065    0.411461
    101          1           0       -0.468289   -5.400354   -0.271283
    102          1           0       -3.988084   -2.765113    0.765313
    103          1           0       -3.659006   -2.940793   -1.026731
    104          1           0       -4.968534   -0.538977   -0.954034
    105          1           0       -5.862489   -4.101555    0.199541
    106          1           0       -6.911065   -4.058295   -1.187824
    107          1           0       -7.518352   -3.488535    0.469397
    108          1           0       -8.055303   -1.824672   -1.681661
    109          1           0       -7.133235   -0.294485   -1.445935
    110          1           0       -8.185247   -0.539747    1.038998
    111          1           0       -9.397327   -1.557653    0.133320
    112          1           0      -10.479327    0.232159   -0.481581
    113          1           0       -9.078403    0.961909   -1.281874
    114          1           0      -10.235613    2.378991    0.245062
    115          1           0       -7.539792    2.121391   -0.116478
    116          1           0       -7.821643    2.512153    1.627867
    117          1           0       -8.347678    3.524104    0.260922
    118          1           0       -9.142924    1.347040    2.855362
    119          1           0      -10.121402    0.178870    2.239408
    120          1           0      -11.443854    2.708394    1.933496
    121          1           0      -10.951621    2.617105    3.613923
    122          1           0      -12.702026    1.301015    3.990350
    123          1           0      -12.455550    0.185971    2.692367
    124          1           0      -13.359313    2.537484    1.475685
    125          1           0      -13.930957    2.957713    4.054443
    126          1           0      -15.181023    1.803259    3.721701
    127          1           0      -15.213785    3.231426    2.709082
    128          1           0      -15.699297    1.083865    1.366100
    129          1           0      -14.722383   -0.175657    2.189120
    130          1           0      -13.132649   -0.252847    0.460791
    131          1           0      -13.451522    1.266364   -0.195701
    132          1           0      -15.819408   -0.529986   -0.369150
    133          1           0      -14.371524   -1.150239   -1.175401
    134          1           0      -14.902213    1.774792   -1.612457
    135          1           0      -17.046696    1.464337   -2.244394
    136          1           0      -16.981821   -0.304634   -2.216738
    137          1           0      -16.485419    0.492218   -3.657091
    138          1           0      -12.903487    0.648426   -2.733198
    139          1           0      -14.072168    1.087701   -3.947925
    140          1           0      -13.940757   -0.574994   -3.429185
 ---------------------------------------------------------------------

 SCF Done:  E(RCAM-B3LYP) =  -3007.16493630     A.U. after   17 cycles

 Excitation energies and oscillator strengths:

 Excited State   1:      Singlet-A      1.7368 eV  713.85 nm  f=0.3890  <S**2>=0.000
     245 -> 248       -0.19188
     246 -> 247        0.68145
     245 <- 248       -0.10988
 This state for optimization and/or second-order correction.
 Total Energy, E(TD-HF/TD-DFT) =  -3007.10110899
 Copying the excited state density for this state as the 1-particle RhoCI density.

 Excited State   2:      Singlet-A      2.1862 eV  567.11 nm  f=0.1344  <S**2>=0.000
     245 -> 247        0.64550
     246 -> 248        0.27280

 Excited State   3:      Singlet-A      3.3349 eV  371.78 nm  f=0.0009  <S**2>=0.000
     242 -> 247       -0.24503
     244 -> 247        0.64711

 Excited State   4:      Singlet-A      3.4318 eV  361.28 nm  f=0.0325  <S**2>=0.000
     240 -> 247       -0.11982
     242 -> 247        0.57049
     244 -> 247        0.21244
     246 -> 248       -0.28850

 Excited State   5:      Singlet-A      3.4845 eV  355.81 nm  f=0.0264  <S**2>=0.000
     240 -> 247        0.25115
     240 -> 249       -0.16492
     241 -> 247        0.51071
     241 -> 249       -0.26171
     241 -> 251       -0.11203
     246 -> 248       -0.15760

 The electronic state is 1-A.
 Alpha  occ. eigenvalues --  -46.88823 -19.25634 -19.23010 -19.20098 -19.19115
 Alpha  occ. eigenvalues --  -19.18725 -19.18389 -14.42368 -14.41688 -14.39127
 Alpha  occ. eigenvalues --  -14.38456 -10.39979 -10.38420 -10.34621 -10.34384
 Alpha  occ. eigenvalues --  -10.31981 -10.31689 -10.30759 -10.30669 -10.30497
 Alpha  occ. eigenvalues --  -10.30104 -10.30017 -10.28853 -10.28847 -10.28840
 Alpha  occ. eigenvalues --  -10.27977 -10.27809 -10.27793 -10.27759 -10.27694
 Alpha  occ. eigenvalues --  -10.27599 -10.27528 -10.27372 -10.27265 -10.27200
 Alpha  occ. eigenvalues --  -10.27128 -10.26730 -10.26651 -10.26561 -10.26559
 Alpha  occ. eigenvalues --  -10.26405 -10.26405 -10.26266 -10.26186 -10.26144
 Alpha  occ. eigenvalues --  -10.26041 -10.25979 -10.25953 -10.25898 -10.25696
 Alpha  occ. eigenvalues --  -10.25558 -10.25408 -10.25388 -10.25339 -10.25232
 Alpha  occ. eigenvalues --  -10.25219 -10.25181 -10.25033 -10.24854 -10.24816
 Alpha  occ. eigenvalues --  -10.24419 -10.24338 -10.24313 -10.24239 -10.24233
 Alpha  occ. eigenvalues --  -10.23826  -3.17266  -1.92166  -1.91710  -1.91576
 Alpha  occ. eigenvalues --   -1.17508  -1.14006  -1.12353  -1.09101  -1.08687
 Alpha  occ. eigenvalues --   -1.06130  -1.04752  -1.04103  -1.03623  -1.02106
 Alpha  occ. eigenvalues --   -0.93660  -0.90474  -0.89830  -0.88917  -0.88871
 Alpha  occ. eigenvalues --   -0.88124  -0.87703  -0.87654  -0.87335  -0.87105
 Alpha  occ. eigenvalues --   -0.86135  -0.85440  -0.84321  -0.83483  -0.83060
 Alpha  occ. eigenvalues --   -0.82465  -0.82175  -0.81261  -0.80745  -0.80377
 Alpha  occ. eigenvalues --   -0.80074  -0.78076  -0.77798  -0.77049  -0.76095
 Alpha  occ. eigenvalues --   -0.75674  -0.75471  -0.74842  -0.74567  -0.74103
 Alpha  occ. eigenvalues --   -0.73476  -0.72832  -0.71668  -0.70595  -0.69217
 Alpha  occ. eigenvalues --   -0.68309  -0.67899  -0.66931  -0.66850  -0.65904
 Alpha  occ. eigenvalues --   -0.65053  -0.64667  -0.64588  -0.64247  -0.63824
 Alpha  occ. eigenvalues --   -0.63688  -0.63066  -0.61854  -0.61154  -0.60630
 Alpha  occ. eigenvalues --   -0.59731  -0.59584  -0.58879  -0.58369  -0.58048
 Alpha  occ. eigenvalues --   -0.57331  -0.57174  -0.56357  -0.55922  -0.55638
 Alpha  occ. eigenvalues --   -0.55401  -0.55288  -0.54497  -0.54098  -0.53826
 Alpha  occ. eigenvalues --   -0.53674  -0.53518  -0.53328  -0.53210  -0.52863
 Alpha  occ. eigenvalues --   -0.52530  -0.52138  -0.51855  -0.51678  -0.51546
 Alpha  occ. eigenvalues --   -0.51306  -0.50891  -0.50842  -0.50771  -0.50401
 Alpha  occ. eigenvalues --   -0.50307  -0.50247  -0.49972  -0.49942  -0.49741
 Alpha  occ. eigenvalues --   -0.49469  -0.49305  -0.49258  -0.49108  -0.48759
 Alpha  occ. eigenvalues --   -0.48633  -0.48480  -0.48301  -0.48172  -0.47842
 Alpha  occ. eigenvalues --   -0.47814  -0.47516  -0.47377  -0.47028  -0.46870
 Alpha  occ. eigenvalues --   -0.46322  -0.46288  -0.46187  -0.45731  -0.45509
 Alpha  occ. eigenvalues --   -0.45267  -0.45238  -0.44837  -0.44765  -0.44502
 Alpha  occ. eigenvalues --   -0.44363  -0.44168  -0.43850  -0.43738  -0.43619
 Alpha  occ. eigenvalues --   -0.43324  -0.43240  -0.43119  -0.42828  -0.42662
 Alpha  occ. eigenvalues --   -0.42547  -0.42479  -0.42334  -0.42179  -0.41878
 Alpha  occ. eigenvalues --   -0.41710  -0.41429  -0.41216  -0.41019  -0.40861
 Alpha  occ. eigenvalues --   -0.40783  -0.40644  -0.40017  -0.39798  -0.39770
 Alpha  occ. eigenvalues --   -0.39669  -0.39558  -0.39498  -0.39086  -0.38716
 Alpha  occ. eigenvalues --   -0.38474  -0.38378  -0.38271  -0.37638  -0.37522
 Alpha  occ. eigenvalues --   -0.37161  -0.36794  -0.36471  -0.36124  -0.35973
 Alpha  occ. eigenvalues --   -0.35911  -0.35338  -0.35095  -0.34263  -0.34059
 Alpha  occ. eigenvalues --   -0.34017  -0.33715  -0.33429  -0.31425  -0.30709
 Alpha  occ. eigenvalues --   -0.30604  -0.29671  -0.29405  -0.29275  -0.23656
 Alpha  occ. eigenvalues --   -0.21207
 Alpha virt. eigenvalues --   -0.08596  -0.01545   0.00702   0.02471   0.03245
 Alpha virt. eigenvalues --    0.05314   0.05701   0.06006   0.06091   0.07335
 Alpha virt. eigenvalues --    0.07408   0.08431   0.09007   0.09091   0.09302

 Mulliken charges:
               1
     1  Mg   0.808360
     2  C   -0.017737
     3  C   -0.090857
     4  C   -0.054572
     5  C   -0.109064
     6  N   -0.287276
     7  C   -0.038413
     8  C    0.010549
     9  C   -0.115700
    10  C    0.104243
    11  C    0.066980
    12  C    0.108902
    13  C    0.037027
    14  C    0.139643
    15  O   -0.238678
    16  O   -0.318013
    17  N   -0.315331
    18  C    0.094935
    19  C   -0.123327
    20  C   -0.067504
    21  C    0.114837
    22  C    0.096085
    23  C    0.000152
    24  O   -0.171866
    25  C    0.049234
    26  N   -0.275975
    27  C    0.024167
    28  C   -0.050314
    29  C    0.010408
    30  C    0.061110
    31  C    0.050969
    32  C    0.007549
    33  C   -0.011131
    34  N   -0.346336
    35  C    0.149904
    36  C   -0.195783
    37  C   -0.029815
    38  C    0.093704
    39  C    0.142461
    40  C    0.026304
    41  O   -0.165558
    42  C    0.074877
    43  C    0.217961
    44  O   -0.233165
    45  O   -0.356633
    46  C    0.174564
    47  C    0.295623
    48  C   -0.146369
    49  C   -0.202045
    50  C    0.063484
    51  C    0.075645
    52  C    0.054870
    53  C    0.036239
    54  C   -0.128801
    55  C    0.047776
    56  C    0.040529
    57  C    0.037622
    58  C    0.037061
    59  C   -0.179579
    60  C    0.090573
    61  C    0.049826
    62  C   -0.044212
    63  C    0.101566
    64  C   -0.154042
    65  C    0.051464
    66  C    0.021949
    67  H   -0.027118
    68  H    0.004211
    69  H   -0.023679
    70  H    0.004808
    71  H    0.001016
    72  H    0.025634
    73  H    0.008505
    74  H    0.014661
    75  H    0.011339
    76  H    0.036161
    77  H    0.031360
    78  H    0.026944
    79  H    0.012033
    80  H    0.028538
    81  H    0.023481
    82  H    0.027404
    83  H    0.026739
    84  H    0.039881
    85  H    0.011351
    86  H    0.013334
    87  H    0.014684
    88  H    0.015142
    89  H    0.021533
    90  H    0.007692
    91  H    0.001479
    92  H    0.014117
    93  H    0.019769
    94  H    0.017104
    95  H    0.050333
    96  H    0.025600
    97  H   -0.002159
    98  H    0.053061
    99  H    0.033676
   100  H    0.035787
   101  H    0.054470
   102  H    0.038871
   103  H    0.037683
   104  H   -0.001923
   105  H    0.012323
   106  H    0.036513
   107  H    0.026894
   108  H   -0.001648
   109  H    0.001616
   110  H    0.015147
   111  H    0.007430
   112  H   -0.005759
   113  H   -0.001431
   114  H   -0.002461
   115  H   -0.008132
   116  H    0.007691
   117  H    0.002999
   118  H   -0.007623
   119  H   -0.005821
   120  H   -0.013636
   121  H    0.004740
   122  H   -0.018323
   123  H   -0.012691
   124  H   -0.002584
   125  H    0.004634
   126  H   -0.004498
   127  H    0.005519
   128  H   -0.000558
   129  H    0.007728
   130  H   -0.014185
   131  H   -0.000408
   132  H   -0.004005
   133  H   -0.011918
   134  H    0.006610
   135  H    0.011295
   136  H    0.007232
   137  H    0.000275
   138  H    0.006788
   139  H    0.006635
   140  H    0.009038
 Sum of Mulliken charges =  -0.00000

 Dipole moment (field-independent basis, Debye):
    X=             -3.8920    Y=              3.9239    Z=             -0.6454  Tot=              5.5643
 Quadrupole moment (field-independent basis, Debye-Ang):
   XX=           -377.2103   YY=           -419.7593   ZZ=           -405.2300
   XY=              7.1551   XZ=              6.8951   YZ=             -7.9662

 Normal termination of Gaussian 16 at Sat Apr 30 19:59:46 2022.
