 Gaussian 16, Revision A.03,
 Gaussian 16:  ES64L-G16RevA.03 25-Dec-2016

 ---------------------------------
 #p PBE1PBE/Def2SVP td=(nstates=5)
 ---------------------------------

 ----------------------------------------------------
 step_901_chromophore_1 TDDFT with PBE1PBE functional
 ----------------------------------------------------
 Symbolic Z-matrix:
 Charge =  0 Multiplicity = 1

                         Standard orientation:
 ---------------------------------------------------------------------
 Center     Atomic      Atomic             Coordinates (Angstroms)
 Number     Number       Type             X           Y           Z
 ---------------------------------------------------------------------
      1         12           0        6.277026    0.433278   -0.003362
      2          6           0        4.116408   -2.247893   -0.412893
      3          6           0        3.862590    2.573305   -1.280278
      4          6           0        8.459373    3.057482    0.161604
      5          6           0        8.824451   -1.854733    0.535109
      6          7           0        4.250399    0.172544   -0.787961
      7          6           0        3.508072   -0.980184   -0.680830
      8          6           0        1.988152   -0.697299   -1.088634
      9          6           0        2.089706    0.790543   -1.708942
     10          6           0        3.502533    1.255132   -1.156897
     11          6           0        2.037210    1.041173   -3.230284
     12          6           0        0.925962   -0.825382    0.067868
     13          6           0       -0.557119   -0.556053   -0.326039
     14          6           0       -1.586844   -1.736236   -0.373030
     15          8           0       -1.262540   -2.862839   -0.721023
     16          8           0       -2.846520   -1.311212   -0.107606
     17          7           0        6.113438    2.520188   -0.430473
     18          6           0        5.052702    3.221431   -0.899583
     19          6           0        5.290891    4.566124   -1.004690
     20          6           0        6.574532    4.737179   -0.435472
     21          6           0        7.135470    3.359517   -0.273713
     22          6           0        4.301553    5.701317   -1.265645
     23          6           0        7.318105    6.021433   -0.026086
     24          8           0        8.471345    6.011581    0.249492
     25          6           0        6.666347    7.316881   -0.143444
     26          7           0        8.443429    0.561821    0.090578
     27          6           0        9.025852    1.747321    0.303721
     28          6           0       10.468011    1.464028    0.666557
     29          6           0       10.579973   -0.056775    0.920430
     30          6           0        9.145749   -0.495532    0.550033
     31          6           0       11.457485    1.949175   -0.475666
     32          6           0       11.022174   -0.539344    2.386322
     33          6           0       10.181026    0.008943    3.559705
     34          7           0        6.440737   -1.625139    0.135760
     35          6           0        7.576096   -2.410408    0.315740
     36          6           0        7.234372   -3.768726    0.296457
     37          6           0        5.832930   -3.807993   -0.042336
     38          6           0        5.420353   -2.449986   -0.014553
     39          6           0        8.132337   -4.986213    0.440365
     40          6           0        4.595888   -4.594752   -0.345645
     41          8           0        4.411156   -5.805861   -0.433263
     42          6           0        3.539082   -3.607000   -0.587778
     43          6           0        2.457405   -3.920023    0.300300
     44          8           0        2.348910   -3.598309    1.479186
     45          8           0        1.635839   -4.787656   -0.399851
     46          6           0        0.480247   -5.484565    0.260241
     47          6           0       -3.908461   -2.270564   -0.203272
     48          6           0       -5.124154   -1.551676   -0.582755
     49          6           0       -6.407750   -2.043747   -0.562186
     50          6           0       -6.697319   -3.558649   -0.243422
     51          6           0       -7.609632   -1.144404   -0.957022
     52          6           0       -8.660422   -0.756918    0.082229
     53          6           0       -9.428893    0.498214   -0.359871
     54          6           0       -9.521600    1.660748    0.649292
     55          6           0       -8.243357    2.502200    0.622874
     56          6           0       -9.948231    1.249147    2.128110
     57          6           0      -11.166314    2.016950    2.729555
     58          6           0      -12.481720    1.250914    2.923808
     59          6           0      -13.753874    1.830909    2.206126
     60          6           0      -14.549834    2.557714    3.251605
     61          6           0      -14.691077    0.727386    1.580522
     62          6           0      -13.970065    0.393738    0.199578
     63          6           0      -14.878420   -0.245199   -0.840667
     64          6           0      -15.047071    0.763292   -1.993572
     65          6           0      -16.478750    0.594159   -2.572534
     66          6           0      -13.920813    0.454751   -3.073399
     67          1           0        3.236330    3.276679   -1.832830
     68          1           0        9.195580    3.850392    0.308799
     69          1           0        9.610878   -2.586714    0.736717
     70          1           0        1.837028   -1.320153   -1.969443
     71          1           0        1.244297    1.396864   -1.384313
     72          1           0        2.846918    1.720281   -3.499393
     73          1           0        1.104143    1.532041   -3.508145
     74          1           0        2.078883    0.092578   -3.765008
     75          1           0        1.205790   -0.232651    0.939851
     76          1           0        0.911413   -1.851112    0.437314
     77          1           0       -0.685733   -0.308980   -1.380388
     78          1           0       -0.960999    0.280806    0.243756
     79          1           0        3.268218    5.414220   -1.461409
     80          1           0        4.616942    6.358259   -2.074683
     81          1           0        4.240826    6.329235   -0.376637
     82          1           0        6.165160    7.521257   -1.089625
     83          1           0        7.485788    8.033637   -0.106891
     84          1           0        5.935840    7.357390    0.664992
     85          1           0       10.741660    2.127443    1.486363
     86          1           0       11.278592   -0.576052    0.263183
     87          1           0       10.790463    2.308262   -1.259477
     88          1           0       12.058375    1.164290   -0.935866
     89          1           0       12.075096    2.797898   -0.182646
     90          1           0       12.052209   -0.284993    2.633368
     91          1           0       10.939477   -1.621510    2.483509
     92          1           0        9.726505   -0.807807    4.120054
     93          1           0        9.363450    0.605396    3.155691
     94          1           0       10.833533    0.562156    4.236419
     95          1           0        8.142398   -5.593812   -0.465197
     96          1           0        7.693691   -5.565771    1.253052
     97          1           0        9.095931   -4.728007    0.880460
     98          1           0        3.251003   -3.710092   -1.633327
     99          1           0        0.428018   -5.018497    1.244141
    100          1           0        0.719720   -6.537065    0.411461
    101          1           0       -0.468289   -5.400354   -0.271283
    102          1           0       -3.988084   -2.765113    0.765313
    103          1           0       -3.659006   -2.940793   -1.026731
    104          1           0       -4.968534   -0.538977   -0.954034
    105          1           0       -5.862489   -4.101555    0.199541
    106          1           0       -6.911065   -4.058295   -1.187824
    107          1           0       -7.518352   -3.488535    0.469397
    108          1           0       -8.055303   -1.824672   -1.681661
    109          1           0       -7.133235   -0.294485   -1.445935
    110          1           0       -8.185247   -0.539747    1.038998
    111          1           0       -9.397327   -1.557653    0.133320
    112          1           0      -10.479327    0.232159   -0.481581
    113          1           0       -9.078403    0.961909   -1.281874
    114          1           0      -10.235613    2.378991    0.245062
    115          1           0       -7.539792    2.121391   -0.116478
    116          1           0       -7.821643    2.512153    1.627867
    117          1           0       -8.347678    3.524104    0.260922
    118          1           0       -9.142924    1.347040    2.855362
    119          1           0      -10.121402    0.178870    2.239408
    120          1           0      -11.443854    2.708394    1.933496
    121          1           0      -10.951621    2.617105    3.613923
    122          1           0      -12.702026    1.301015    3.990350
    123          1           0      -12.455550    0.185971    2.692367
    124          1           0      -13.359313    2.537484    1.475685
    125          1           0      -13.930957    2.957713    4.054443
    126          1           0      -15.181023    1.803259    3.721701
    127          1           0      -15.213785    3.231426    2.709082
    128          1           0      -15.699297    1.083865    1.366100
    129          1           0      -14.722383   -0.175657    2.189120
    130          1           0      -13.132649   -0.252847    0.460791
    131          1           0      -13.451522    1.266364   -0.195701
    132          1           0      -15.819408   -0.529986   -0.369150
    133          1           0      -14.371524   -1.150239   -1.175401
    134          1           0      -14.902213    1.774792   -1.612457
    135          1           0      -17.046696    1.464337   -2.244394
    136          1           0      -16.981821   -0.304634   -2.216738
    137          1           0      -16.485419    0.492218   -3.657091
    138          1           0      -12.903487    0.648426   -2.733198
    139          1           0      -14.072168    1.087701   -3.947925
    140          1           0      -13.940757   -0.574994   -3.429185
 ---------------------------------------------------------------------

 SCF Done:  E(RPBE1PBE) =  -3005.35340619     A.U. after   15 cycles

 Excitation energies and oscillator strengths:

 Excited State   1:      Singlet-A      1.8895 eV  656.19 nm  f=0.3700  <S**2>=0.000
     245 -> 248       -0.18576
     246 -> 247        0.68687
     246 <- 247       -0.10123
 This state for optimization and/or second-order correction.
 Total Energy, E(TD-HF/TD-DFT) =  -3005.28397010
 Copying the excited state density for this state as the 1-particle RhoCI density.

 Excited State   2:      Singlet-A      2.1986 eV  563.93 nm  f=0.1327  <S**2>=0.000
     245 -> 247        0.65388
     246 -> 248        0.24714

 Excited State   3:      Singlet-A      2.9605 eV  418.79 nm  f=0.0002  <S**2>=0.000
     241 -> 247       -0.39454
     241 -> 249        0.12471
     243 -> 247        0.56211

 Excited State   4:      Singlet-A      3.0021 eV  412.99 nm  f=0.0025  <S**2>=0.000
     240 -> 247        0.11963
     241 -> 247        0.36817
     241 -> 249       -0.10522
     242 -> 247        0.49729
     243 -> 247        0.27768

 Excited State   5:      Singlet-A      3.0658 eV  404.41 nm  f=0.0055  <S**2>=0.000
     240 -> 247        0.16939
     241 -> 247       -0.40325
     242 -> 247        0.42673
     243 -> 247       -0.30930
     246 -> 248        0.11300

 The electronic state is 1-A.
 Alpha  occ. eigenvalues --  -46.92209 -19.26323 -19.23716 -19.20370 -19.19362
 Alpha  occ. eigenvalues --  -19.18874 -19.18642 -14.41889 -14.41204 -14.38737
 Alpha  occ. eigenvalues --  -14.38140 -10.37011 -10.35414 -10.31781 -10.31440
 Alpha  occ. eigenvalues --  -10.29492 -10.29355 -10.28462 -10.28395 -10.28286
 Alpha  occ. eigenvalues --  -10.27746 -10.27251 -10.26676 -10.26578 -10.26446
 Alpha  occ. eigenvalues --  -10.25600 -10.25505 -10.25491 -10.25489 -10.25402
 Alpha  occ. eigenvalues --  -10.25397 -10.25189 -10.25060 -10.24955 -10.24806
 Alpha  occ. eigenvalues --  -10.24767 -10.24343 -10.24256 -10.24252 -10.24050
 Alpha  occ. eigenvalues --  -10.24042 -10.24015 -10.23852 -10.23832 -10.23819
 Alpha  occ. eigenvalues --  -10.23758 -10.23480 -10.23449 -10.23362 -10.23234
 Alpha  occ. eigenvalues --  -10.23031 -10.23001 -10.22983 -10.22951 -10.22863
 Alpha  occ. eigenvalues --  -10.22816 -10.22755 -10.22584 -10.22257 -10.22227
 Alpha  occ. eigenvalues --  -10.21994 -10.21875 -10.21784 -10.21726 -10.21617
 Alpha  occ. eigenvalues --  -10.21207  -3.14235  -1.87075  -1.86596  -1.86467
 Alpha  occ. eigenvalues --   -1.12342  -1.08734  -1.07066  -1.03861  -1.03542
 Alpha  occ. eigenvalues --   -1.00967  -0.99400  -0.98791  -0.98308  -0.96729
 Alpha  occ. eigenvalues --   -0.88068  -0.84577  -0.83927  -0.83223  -0.83013
 Alpha  occ. eigenvalues --   -0.82282  -0.81968  -0.81826  -0.81638  -0.81392
 Alpha  occ. eigenvalues --   -0.80483  -0.79662  -0.78549  -0.77793  -0.77262
 Alpha  occ. eigenvalues --   -0.76649  -0.76370  -0.75480  -0.75033  -0.74655
 Alpha  occ. eigenvalues --   -0.74354  -0.72344  -0.72055  -0.71387  -0.70243
 Alpha  occ. eigenvalues --   -0.70005  -0.69544  -0.69170  -0.68728  -0.68257
 Alpha  occ. eigenvalues --   -0.67829  -0.67252  -0.66127  -0.64861  -0.63540
 Alpha  occ. eigenvalues --   -0.62732  -0.62253  -0.61407  -0.61049  -0.60074
 Alpha  occ. eigenvalues --   -0.59652  -0.59161  -0.59046  -0.58359  -0.58302
 Alpha  occ. eigenvalues --   -0.58169  -0.57232  -0.56107  -0.55731  -0.55188
 Alpha  occ. eigenvalues --   -0.54292  -0.54024  -0.53390  -0.52795  -0.52601
 Alpha  occ. eigenvalues --   -0.51888  -0.51691  -0.50813  -0.50500  -0.50084
 Alpha  occ. eigenvalues --   -0.49944  -0.49869  -0.48972  -0.48613  -0.48272
 Alpha  occ. eigenvalues --   -0.48123  -0.47968  -0.47852  -0.47630  -0.47476
 Alpha  occ. eigenvalues --   -0.47074  -0.46663  -0.46455  -0.46196  -0.46072
 Alpha  occ. eigenvalues --   -0.45849  -0.45425  -0.45368  -0.45315  -0.44953
 Alpha  occ. eigenvalues --   -0.44812  -0.44774  -0.44550  -0.44469  -0.44270
 Alpha  occ. eigenvalues --   -0.44050  -0.43915  -0.43854  -0.43660  -0.43367
 Alpha  occ. eigenvalues --   -0.43265  -0.43118  -0.42904  -0.42744  -0.42532
 Alpha  occ. eigenvalues --   -0.42417  -0.42157  -0.42015  -0.41704  -0.41529
 Alpha  occ. eigenvalues --   -0.41108  -0.40947  -0.40882  -0.40390  -0.40192
 Alpha  occ. eigenvalues --   -0.40018  -0.39929  -0.39604  -0.39461  -0.39269
 Alpha  occ. eigenvalues --   -0.39110  -0.38866  -0.38651  -0.38547  -0.38442
 Alpha  occ. eigenvalues --   -0.38060  -0.37973  -0.37857  -0.37647  -0.37377
 Alpha  occ. eigenvalues --   -0.37302  -0.37213  -0.37093  -0.36934  -0.36712
 Alpha  occ. eigenvalues --   -0.36637  -0.36273  -0.35991  -0.35758  -0.35726
 Alpha  occ. eigenvalues --   -0.35641  -0.35400  -0.34963  -0.34674  -0.34538
 Alpha  occ. eigenvalues --   -0.34460  -0.34457  -0.34253  -0.33938  -0.33637
 Alpha  occ. eigenvalues --   -0.33340  -0.33294  -0.33075  -0.32633  -0.32470
 Alpha  occ. eigenvalues --   -0.32007  -0.31648  -0.31593  -0.31004  -0.30997
 Alpha  occ. eigenvalues --   -0.30827  -0.30244  -0.30061  -0.29299  -0.29089
 Alpha  occ. eigenvalues --   -0.29010  -0.28969  -0.28483  -0.26764  -0.25914
 Alpha  occ. eigenvalues --   -0.25518  -0.25107  -0.24911  -0.24700  -0.20651
 Alpha  occ. eigenvalues --   -0.18827
 Alpha virt. eigenvalues --   -0.11051  -0.05058  -0.03525  -0.01371  -0.00078
 Alpha virt. eigenvalues --    0.00860   0.01359   0.01400   0.01710   0.03658
 Alpha virt. eigenvalues --    0.04121   0.04338   0.04954   0.05677   0.05754

 Mulliken charges:
               1
     1  Mg   0.951323
     2  C   -0.043766
     3  C   -0.076665
     4  C   -0.040759
     5  C   -0.090136
     6  N   -0.389046
     7  C    0.044205
     8  C   -0.063489
     9  C   -0.174388
    10  C    0.129750
    11  C    0.008146
    12  C    0.049552
    13  C   -0.035047
    14  C    0.204856
    15  O   -0.270720
    16  O   -0.352287
    17  N   -0.435325
    18  C    0.113228
    19  C   -0.139211
    20  C   -0.120861
    21  C    0.151523
    22  C    0.033563
    23  C    0.053063
    24  O   -0.210609
    25  C   -0.027218
    26  N   -0.379851
    27  C    0.052691
    28  C   -0.125794
    29  C   -0.066319
    30  C    0.095411
    31  C   -0.003621
    32  C   -0.050439
    33  C   -0.084678
    34  N   -0.476112
    35  C    0.161837
    36  C   -0.213597
    37  C   -0.067027
    38  C    0.154088
    39  C    0.088531
    40  C    0.120657
    41  O   -0.211905
    42  C   -0.040925
    43  C    0.304422
    44  O   -0.268825
    45  O   -0.387879
    46  C    0.123249
    47  C    0.256014
    48  C   -0.156451
    49  C   -0.240027
    50  C   -0.000577
    51  C    0.012585
    52  C   -0.014384
    53  C   -0.024712
    54  C   -0.215664
    55  C   -0.007994
    56  C   -0.008676
    57  C   -0.027615
    58  C   -0.010596
    59  C   -0.268274
    60  C    0.025862
    61  C   -0.006336
    62  C   -0.102276
    63  C    0.045878
    64  C   -0.251396
    65  C   -0.007210
    66  C   -0.038127
    67  H    0.004662
    68  H    0.035270
    69  H    0.007656
    70  H    0.042831
    71  H    0.038552
    72  H    0.053678
    73  H    0.035721
    74  H    0.042562
    75  H    0.043313
    76  H    0.077981
    77  H    0.064399
    78  H    0.057810
    79  H    0.038710
    80  H    0.056241
    81  H    0.051730
    82  H    0.054365
    83  H    0.054091
    84  H    0.067083
    85  H    0.048399
    86  H    0.050168
    87  H    0.044011
    88  H    0.042140
    89  H    0.048261
    90  H    0.040604
    91  H    0.034056
    92  H    0.042055
    93  H    0.050744
    94  H    0.044499
    95  H    0.076925
    96  H    0.054583
    97  H    0.024855
    98  H    0.089687
    99  H    0.053849
   100  H    0.057794
   101  H    0.075650
   102  H    0.064584
   103  H    0.064419
   104  H    0.028013
   105  H    0.038710
   106  H    0.063718
   107  H    0.055332
   108  H    0.032821
   109  H    0.032529
   110  H    0.048498
   111  H    0.039262
   112  H    0.032850
   113  H    0.030196
   114  H    0.035060
   115  H    0.019821
   116  H    0.034490
   117  H    0.030174
   118  H    0.023872
   119  H    0.026415
   120  H    0.021077
   121  H    0.035880
   122  H    0.015838
   123  H    0.018368
   124  H    0.033723
   125  H    0.032853
   126  H    0.025085
   127  H    0.034804
   128  H    0.032455
   129  H    0.039844
   130  H    0.020789
   131  H    0.031198
   132  H    0.027803
   133  H    0.021178
   134  H    0.043364
   135  H    0.039015
   136  H    0.033905
   137  H    0.027499
   138  H    0.034780
   139  H    0.035056
   140  H    0.036167
 Sum of Mulliken charges =  -0.00000

 Dipole moment (field-independent basis, Debye):
    X=             -3.8153    Y=              3.8029    Z=             -0.6179  Tot=              5.4222
 Quadrupole moment (field-independent basis, Debye-Ang):
   XX=           -370.7570   YY=           -417.0049   ZZ=           -402.6615
   XY=              6.3501   XZ=              7.7827   YZ=             -8.1298

 Normal termination of Gaussian 16 at Sat Apr 30 20:23:42 2022.
