 Gaussian 16, Revision A.03,
 Gaussian 16:  ES64L-G16RevA.03 25-Dec-2016

 --------------------------------
 #p wB97XD/Def2SVP td=(nstates=5)
 --------------------------------

 ---------------------------------------------------
 step_901_chromophore_1 TDDFT with wB97XD functional
 ---------------------------------------------------
 Symbolic Z-matrix:
 Charge =  0 Multiplicity = 1

                         Standard orientation:
 ---------------------------------------------------------------------
 Center     Atomic      Atomic             Coordinates (Angstroms)
 Number     Number       Type             X           Y           Z
 ---------------------------------------------------------------------
      1         12           0        6.277026    0.433278   -0.003362
      2          6           0        4.116408   -2.247893   -0.412893
      3          6           0        3.862590    2.573305   -1.280278
      4          6           0        8.459373    3.057482    0.161604
      5          6           0        8.824451   -1.854733    0.535109
      6          7           0        4.250399    0.172544   -0.787961
      7          6           0        3.508072   -0.980184   -0.680830
      8          6           0        1.988152   -0.697299   -1.088634
      9          6           0        2.089706    0.790543   -1.708942
     10          6           0        3.502533    1.255132   -1.156897
     11          6           0        2.037210    1.041173   -3.230284
     12          6           0        0.925962   -0.825382    0.067868
     13          6           0       -0.557119   -0.556053   -0.326039
     14          6           0       -1.586844   -1.736236   -0.373030
     15          8           0       -1.262540   -2.862839   -0.721023
     16          8           0       -2.846520   -1.311212   -0.107606
     17          7           0        6.113438    2.520188   -0.430473
     18          6           0        5.052702    3.221431   -0.899583
     19          6           0        5.290891    4.566124   -1.004690
     20          6           0        6.574532    4.737179   -0.435472
     21          6           0        7.135470    3.359517   -0.273713
     22          6           0        4.301553    5.701317   -1.265645
     23          6           0        7.318105    6.021433   -0.026086
     24          8           0        8.471345    6.011581    0.249492
     25          6           0        6.666347    7.316881   -0.143444
     26          7           0        8.443429    0.561821    0.090578
     27          6           0        9.025852    1.747321    0.303721
     28          6           0       10.468011    1.464028    0.666557
     29          6           0       10.579973   -0.056775    0.920430
     30          6           0        9.145749   -0.495532    0.550033
     31          6           0       11.457485    1.949175   -0.475666
     32          6           0       11.022174   -0.539344    2.386322
     33          6           0       10.181026    0.008943    3.559705
     34          7           0        6.440737   -1.625139    0.135760
     35          6           0        7.576096   -2.410408    0.315740
     36          6           0        7.234372   -3.768726    0.296457
     37          6           0        5.832930   -3.807993   -0.042336
     38          6           0        5.420353   -2.449986   -0.014553
     39          6           0        8.132337   -4.986213    0.440365
     40          6           0        4.595888   -4.594752   -0.345645
     41          8           0        4.411156   -5.805861   -0.433263
     42          6           0        3.539082   -3.607000   -0.587778
     43          6           0        2.457405   -3.920023    0.300300
     44          8           0        2.348910   -3.598309    1.479186
     45          8           0        1.635839   -4.787656   -0.399851
     46          6           0        0.480247   -5.484565    0.260241
     47          6           0       -3.908461   -2.270564   -0.203272
     48          6           0       -5.124154   -1.551676   -0.582755
     49          6           0       -6.407750   -2.043747   -0.562186
     50          6           0       -6.697319   -3.558649   -0.243422
     51          6           0       -7.609632   -1.144404   -0.957022
     52          6           0       -8.660422   -0.756918    0.082229
     53          6           0       -9.428893    0.498214   -0.359871
     54          6           0       -9.521600    1.660748    0.649292
     55          6           0       -8.243357    2.502200    0.622874
     56          6           0       -9.948231    1.249147    2.128110
     57          6           0      -11.166314    2.016950    2.729555
     58          6           0      -12.481720    1.250914    2.923808
     59          6           0      -13.753874    1.830909    2.206126
     60          6           0      -14.549834    2.557714    3.251605
     61          6           0      -14.691077    0.727386    1.580522
     62          6           0      -13.970065    0.393738    0.199578
     63          6           0      -14.878420   -0.245199   -0.840667
     64          6           0      -15.047071    0.763292   -1.993572
     65          6           0      -16.478750    0.594159   -2.572534
     66          6           0      -13.920813    0.454751   -3.073399
     67          1           0        3.236330    3.276679   -1.832830
     68          1           0        9.195580    3.850392    0.308799
     69          1           0        9.610878   -2.586714    0.736717
     70          1           0        1.837028   -1.320153   -1.969443
     71          1           0        1.244297    1.396864   -1.384313
     72          1           0        2.846918    1.720281   -3.499393
     73          1           0        1.104143    1.532041   -3.508145
     74          1           0        2.078883    0.092578   -3.765008
     75          1           0        1.205790   -0.232651    0.939851
     76          1           0        0.911413   -1.851112    0.437314
     77          1           0       -0.685733   -0.308980   -1.380388
     78          1           0       -0.960999    0.280806    0.243756
     79          1           0        3.268218    5.414220   -1.461409
     80          1           0        4.616942    6.358259   -2.074683
     81          1           0        4.240826    6.329235   -0.376637
     82          1           0        6.165160    7.521257   -1.089625
     83          1           0        7.485788    8.033637   -0.106891
     84          1           0        5.935840    7.357390    0.664992
     85          1           0       10.741660    2.127443    1.486363
     86          1           0       11.278592   -0.576052    0.263183
     87          1           0       10.790463    2.308262   -1.259477
     88          1           0       12.058375    1.164290   -0.935866
     89          1           0       12.075096    2.797898   -0.182646
     90          1           0       12.052209   -0.284993    2.633368
     91          1           0       10.939477   -1.621510    2.483509
     92          1           0        9.726505   -0.807807    4.120054
     93          1           0        9.363450    0.605396    3.155691
     94          1           0       10.833533    0.562156    4.236419
     95          1           0        8.142398   -5.593812   -0.465197
     96          1           0        7.693691   -5.565771    1.253052
     97          1           0        9.095931   -4.728007    0.880460
     98          1           0        3.251003   -3.710092   -1.633327
     99          1           0        0.428018   -5.018497    1.244141
    100          1           0        0.719720   -6.537065    0.411461
    101          1           0       -0.468289   -5.400354   -0.271283
    102          1           0       -3.988084   -2.765113    0.765313
    103          1           0       -3.659006   -2.940793   -1.026731
    104          1           0       -4.968534   -0.538977   -0.954034
    105          1           0       -5.862489   -4.101555    0.199541
    106          1           0       -6.911065   -4.058295   -1.187824
    107          1           0       -7.518352   -3.488535    0.469397
    108          1           0       -8.055303   -1.824672   -1.681661
    109          1           0       -7.133235   -0.294485   -1.445935
    110          1           0       -8.185247   -0.539747    1.038998
    111          1           0       -9.397327   -1.557653    0.133320
    112          1           0      -10.479327    0.232159   -0.481581
    113          1           0       -9.078403    0.961909   -1.281874
    114          1           0      -10.235613    2.378991    0.245062
    115          1           0       -7.539792    2.121391   -0.116478
    116          1           0       -7.821643    2.512153    1.627867
    117          1           0       -8.347678    3.524104    0.260922
    118          1           0       -9.142924    1.347040    2.855362
    119          1           0      -10.121402    0.178870    2.239408
    120          1           0      -11.443854    2.708394    1.933496
    121          1           0      -10.951621    2.617105    3.613923
    122          1           0      -12.702026    1.301015    3.990350
    123          1           0      -12.455550    0.185971    2.692367
    124          1           0      -13.359313    2.537484    1.475685
    125          1           0      -13.930957    2.957713    4.054443
    126          1           0      -15.181023    1.803259    3.721701
    127          1           0      -15.213785    3.231426    2.709082
    128          1           0      -15.699297    1.083865    1.366100
    129          1           0      -14.722383   -0.175657    2.189120
    130          1           0      -13.132649   -0.252847    0.460791
    131          1           0      -13.451522    1.266364   -0.195701
    132          1           0      -15.819408   -0.529986   -0.369150
    133          1           0      -14.371524   -1.150239   -1.175401
    134          1           0      -14.902213    1.774792   -1.612457
    135          1           0      -17.046696    1.464337   -2.244394
    136          1           0      -16.981821   -0.304634   -2.216738
    137          1           0      -16.485419    0.492218   -3.657091
    138          1           0      -12.903487    0.648426   -2.733198
    139          1           0      -14.072168    1.087701   -3.947925
    140          1           0      -13.940757   -0.574994   -3.429185
 ---------------------------------------------------------------------

 SCF Done:  E(RwB97XD) =  -3007.86150017     A.U. after   17 cycles

 Excitation energies and oscillator strengths:

 Excited State   1:      Singlet-A      1.6775 eV  739.10 nm  f=0.3875  <S**2>=0.000
     245 -> 248       -0.19738
     246 -> 247        0.67946
     245 <- 248       -0.11933
 This state for optimization and/or second-order correction.
 Total Energy, E(TD-HF/TD-DFT) =  -3007.79985349
 Copying the excited state density for this state as the 1-particle RhoCI density.

 Excited State   2:      Singlet-A      2.1289 eV  582.40 nm  f=0.1293  <S**2>=0.000
     245 -> 247        0.64305
     246 -> 248        0.27650

 Excited State   3:      Singlet-A      3.3534 eV  369.73 nm  f=0.0007  <S**2>=0.000
     242 -> 247       -0.26008
     243 -> 247       -0.26376
     244 -> 247        0.57767

 Excited State   4:      Singlet-A      3.4456 eV  359.84 nm  f=0.0593  <S**2>=0.000
     242 -> 247        0.53776
     244 -> 247        0.19891
     246 -> 248       -0.34058

 Excited State   5:      Singlet-A      3.5151 eV  352.72 nm  f=0.0281  <S**2>=0.000
     241 -> 247        0.54559
     241 -> 249       -0.32355
     241 -> 250        0.15402
     246 -> 248       -0.13858

 The electronic state is 1-A.
 Alpha  occ. eigenvalues --  -46.95162 -19.30881 -19.28258 -19.25015 -19.24076
 Alpha  occ. eigenvalues --  -19.23728 -19.23454 -14.46983 -14.46245 -14.43722
 Alpha  occ. eigenvalues --  -14.43053 -10.43781 -10.42277 -10.38637 -10.38315
 Alpha  occ. eigenvalues --  -10.35851 -10.35745 -10.34779 -10.34715 -10.34502
 Alpha  occ. eigenvalues --  -10.34157 -10.33771 -10.32933 -10.32857 -10.32833
 Alpha  occ. eigenvalues --  -10.31906 -10.31882 -10.31851 -10.31782 -10.31736
 Alpha  occ. eigenvalues --  -10.31731 -10.31575 -10.31390 -10.31331 -10.31196
 Alpha  occ. eigenvalues --  -10.31151 -10.30748 -10.30671 -10.30638 -10.30497
 Alpha  occ. eigenvalues --  -10.30454 -10.30421 -10.30222 -10.30118 -10.30097
 Alpha  occ. eigenvalues --  -10.30029 -10.29887 -10.29857 -10.29753 -10.29633
 Alpha  occ. eigenvalues --  -10.29429 -10.29354 -10.29344 -10.29291 -10.29211
 Alpha  occ. eigenvalues --  -10.29195 -10.29112 -10.28951 -10.28684 -10.28607
 Alpha  occ. eigenvalues --  -10.28350 -10.28236 -10.28144 -10.28141 -10.28047
 Alpha  occ. eigenvalues --  -10.27645  -3.21051  -1.94639  -1.94159  -1.94031
 Alpha  occ. eigenvalues --   -1.19703  -1.16160  -1.14562  -1.11344  -1.10864
 Alpha  occ. eigenvalues --   -1.08341  -1.06773  -1.06140  -1.05643  -1.04126
 Alpha  occ. eigenvalues --   -0.95669  -0.92261  -0.91598  -0.90853  -0.90680
 Alpha  occ. eigenvalues --   -0.89946  -0.89547  -0.89485  -0.89232  -0.89030
 Alpha  occ. eigenvalues --   -0.88077  -0.87309  -0.86200  -0.85398  -0.84925
 Alpha  occ. eigenvalues --   -0.84341  -0.84064  -0.83128  -0.82655  -0.82278
 Alpha  occ. eigenvalues --   -0.81990  -0.80037  -0.79708  -0.78974  -0.77936
 Alpha  occ. eigenvalues --   -0.77616  -0.77250  -0.76751  -0.76396  -0.75929
 Alpha  occ. eigenvalues --   -0.75416  -0.74808  -0.73639  -0.72499  -0.71105
 Alpha  occ. eigenvalues --   -0.70290  -0.69839  -0.68935  -0.68701  -0.67738
 Alpha  occ. eigenvalues --   -0.67051  -0.66615  -0.66561  -0.66039  -0.65776
 Alpha  occ. eigenvalues --   -0.65643  -0.64884  -0.63717  -0.63164  -0.62644
 Alpha  occ. eigenvalues --   -0.61719  -0.61521  -0.60829  -0.60316  -0.59989
 Alpha  occ. eigenvalues --   -0.59291  -0.59140  -0.58276  -0.57908  -0.57536
 Alpha  occ. eigenvalues --   -0.57350  -0.57253  -0.56405  -0.56014  -0.55712
 Alpha  occ. eigenvalues --   -0.55581  -0.55463  -0.55247  -0.55078  -0.54827
 Alpha  occ. eigenvalues --   -0.54434  -0.54031  -0.53772  -0.53553  -0.53418
 Alpha  occ. eigenvalues --   -0.53207  -0.52831  -0.52760  -0.52692  -0.52286
 Alpha  occ. eigenvalues --   -0.52219  -0.52121  -0.51875  -0.51864  -0.51611
 Alpha  occ. eigenvalues --   -0.51365  -0.51229  -0.51182  -0.51001  -0.50666
 Alpha  occ. eigenvalues --   -0.50533  -0.50417  -0.50217  -0.50043  -0.49758
 Alpha  occ. eigenvalues --   -0.49710  -0.49439  -0.49325  -0.48971  -0.48747
 Alpha  occ. eigenvalues --   -0.48230  -0.48139  -0.48125  -0.47641  -0.47406
 Alpha  occ. eigenvalues --   -0.47160  -0.47123  -0.46734  -0.46642  -0.46417
 Alpha  occ. eigenvalues --   -0.46290  -0.46035  -0.45813  -0.45656  -0.45532
 Alpha  occ. eigenvalues --   -0.45283  -0.45115  -0.45014  -0.44782  -0.44542
 Alpha  occ. eigenvalues --   -0.44473  -0.44359  -0.44306  -0.44067  -0.43774
 Alpha  occ. eigenvalues --   -0.43639  -0.43360  -0.43106  -0.42863  -0.42760
 Alpha  occ. eigenvalues --   -0.42691  -0.42493  -0.41940  -0.41695  -0.41599
 Alpha  occ. eigenvalues --   -0.41525  -0.41444  -0.41349  -0.41044  -0.40612
 Alpha  occ. eigenvalues --   -0.40342  -0.40289  -0.40115  -0.39577  -0.39517
 Alpha  occ. eigenvalues --   -0.39018  -0.38645  -0.38592  -0.37977  -0.37838
 Alpha  occ. eigenvalues --   -0.37811  -0.37165  -0.37103  -0.36160  -0.36075
 Alpha  occ. eigenvalues --   -0.35895  -0.35721  -0.35565  -0.33502  -0.32804
 Alpha  occ. eigenvalues --   -0.32603  -0.31835  -0.31450  -0.31445  -0.25574
 Alpha  occ. eigenvalues --   -0.23011
 Alpha virt. eigenvalues --   -0.06958   0.00355   0.02765   0.05085   0.05876
 Alpha virt. eigenvalues --    0.07615   0.08127   0.08195   0.08451   0.10161
 Alpha virt. eigenvalues --    0.10777   0.10878   0.11821   0.12358   0.12466

 Mulliken charges:
               1
     1  Mg   0.943671
     2  C   -0.035863
     3  C   -0.095632
     4  C   -0.062164
     5  C   -0.110704
     6  N   -0.355954
     7  C    0.003977
     8  C   -0.035651
     9  C   -0.156152
    10  C    0.121915
    11  C    0.019699
    12  C    0.067305
    13  C   -0.022140
    14  C    0.196325
    15  O   -0.268881
    16  O   -0.350496
    17  N   -0.400295
    18  C    0.108618
    19  C   -0.133920
    20  C   -0.113440
    21  C    0.141021
    22  C    0.048155
    23  C    0.050965
    24  O   -0.205078
    25  C   -0.016848
    26  N   -0.345433
    27  C    0.043706
    28  C   -0.106649
    29  C   -0.036602
    30  C    0.080792
    31  C    0.007186
    32  C   -0.038215
    33  C   -0.066143
    34  N   -0.437473
    35  C    0.159338
    36  C   -0.211834
    37  C   -0.066445
    38  C    0.130973
    39  C    0.100850
    40  C    0.101531
    41  O   -0.202336
    42  C    0.001517
    43  C    0.279153
    44  O   -0.261459
    45  O   -0.387193
    46  C    0.138564
    47  C    0.266362
    48  C   -0.163865
    49  C   -0.231514
    50  C    0.015403
    51  C    0.034751
    52  C    0.000519
    53  C   -0.002921
    54  C   -0.184840
    55  C    0.002439
    56  C   -0.000428
    57  C   -0.002138
    58  C   -0.001887
    59  C   -0.232767
    60  C    0.040767
    61  C    0.006241
    62  C   -0.077858
    63  C    0.058503
    64  C   -0.218948
    65  C    0.003371
    66  C   -0.026343
    67  H   -0.004170
    68  H    0.032179
    69  H   -0.000425
    70  H    0.031223
    71  H    0.027212
    72  H    0.046039
    73  H    0.030719
    74  H    0.036997
    75  H    0.038410
    76  H    0.060567
    77  H    0.055836
    78  H    0.054155
    79  H    0.035760
    80  H    0.050942
    81  H    0.044343
    82  H    0.048736
    83  H    0.053147
    84  H    0.062199
    85  H    0.038748
    86  H    0.040205
    87  H    0.035705
    88  H    0.036904
    89  H    0.043560
    90  H    0.033468
    91  H    0.025380
    92  H    0.036832
    93  H    0.038810
    94  H    0.039548
    95  H    0.072954
    96  H    0.048820
    97  H    0.019584
    98  H    0.084142
    99  H    0.049731
   100  H    0.054433
   101  H    0.072808
   102  H    0.059940
   103  H    0.059722
   104  H    0.025016
   105  H    0.033668
   106  H    0.058309
   107  H    0.048477
   108  H    0.023782
   109  H    0.022874
   110  H    0.037822
   111  H    0.032592
   112  H    0.020569
   113  H    0.021269
   114  H    0.023119
   115  H    0.011750
   116  H    0.027876
   117  H    0.025637
   118  H    0.016104
   119  H    0.015762
   120  H    0.004427
   121  H    0.030527
   122  H    0.006267
   123  H    0.007979
   124  H    0.019264
   125  H    0.026270
   126  H    0.016969
   127  H    0.029019
   128  H    0.023281
   129  H    0.032057
   130  H    0.008059
   131  H    0.014683
   132  H    0.018607
   133  H    0.013087
   134  H    0.032239
   135  H    0.033680
   136  H    0.027701
   137  H    0.022114
   138  H    0.028730
   139  H    0.028824
   140  H    0.029315
 Sum of Mulliken charges =  -0.00000

 Dipole moment (field-independent basis, Debye):
    X=             -3.9471    Y=              3.9939    Z=             -0.6405  Tot=              5.6516
 Quadrupole moment (field-independent basis, Debye-Ang):
   XX=           -372.3648   YY=           -415.0141   ZZ=           -402.3150
   XY=              7.6323   XZ=              7.5205   YZ=             -8.1573

 Normal termination of Gaussian 16 at Sat Apr 30 20:58:25 2022.
