 Gaussian 16, Revision A.03,
 Gaussian 16:  ES64L-G16RevA.03 25-Dec-2016

 --------------------
 #p ZINDO=(nstates=5)
 --------------------

 ----------------------------
 step_901_chromophore_1 ZINDO
 ----------------------------
 Symbolic Z-matrix:
 Charge =  0 Multiplicity = 1

                         Standard orientation:
 ---------------------------------------------------------------------
 Center     Atomic      Atomic             Coordinates (Angstroms)
 Number     Number       Type             X           Y           Z
 ---------------------------------------------------------------------
      1         12           0        6.277026    0.433278   -0.003362
      2          6           0        4.116408   -2.247893   -0.412893
      3          6           0        3.862590    2.573305   -1.280278
      4          6           0        8.459373    3.057482    0.161604
      5          6           0        8.824451   -1.854733    0.535109
      6          7           0        4.250399    0.172544   -0.787961
      7          6           0        3.508072   -0.980184   -0.680830
      8          6           0        1.988152   -0.697299   -1.088634
      9          6           0        2.089706    0.790543   -1.708942
     10          6           0        3.502533    1.255132   -1.156897
     11          6           0        2.037210    1.041173   -3.230284
     12          6           0        0.925962   -0.825382    0.067868
     13          6           0       -0.557119   -0.556053   -0.326039
     14          6           0       -1.586844   -1.736236   -0.373030
     15          8           0       -1.262540   -2.862839   -0.721023
     16          8           0       -2.846520   -1.311212   -0.107606
     17          7           0        6.113438    2.520188   -0.430473
     18          6           0        5.052702    3.221431   -0.899583
     19          6           0        5.290891    4.566124   -1.004690
     20          6           0        6.574532    4.737179   -0.435472
     21          6           0        7.135470    3.359517   -0.273713
     22          6           0        4.301553    5.701317   -1.265645
     23          6           0        7.318105    6.021433   -0.026086
     24          8           0        8.471345    6.011581    0.249492
     25          6           0        6.666347    7.316881   -0.143444
     26          7           0        8.443429    0.561821    0.090578
     27          6           0        9.025852    1.747321    0.303721
     28          6           0       10.468011    1.464028    0.666557
     29          6           0       10.579973   -0.056775    0.920430
     30          6           0        9.145749   -0.495532    0.550033
     31          6           0       11.457485    1.949175   -0.475666
     32          6           0       11.022174   -0.539344    2.386322
     33          6           0       10.181026    0.008943    3.559705
     34          7           0        6.440737   -1.625139    0.135760
     35          6           0        7.576096   -2.410408    0.315740
     36          6           0        7.234372   -3.768726    0.296457
     37          6           0        5.832930   -3.807993   -0.042336
     38          6           0        5.420353   -2.449986   -0.014553
     39          6           0        8.132337   -4.986213    0.440365
     40          6           0        4.595888   -4.594752   -0.345645
     41          8           0        4.411156   -5.805861   -0.433263
     42          6           0        3.539082   -3.607000   -0.587778
     43          6           0        2.457405   -3.920023    0.300300
     44          8           0        2.348910   -3.598309    1.479186
     45          8           0        1.635839   -4.787656   -0.399851
     46          6           0        0.480247   -5.484565    0.260241
     47          6           0       -3.908461   -2.270564   -0.203272
     48          6           0       -5.124154   -1.551676   -0.582755
     49          6           0       -6.407750   -2.043747   -0.562186
     50          6           0       -6.697319   -3.558649   -0.243422
     51          6           0       -7.609632   -1.144404   -0.957022
     52          6           0       -8.660422   -0.756918    0.082229
     53          6           0       -9.428893    0.498214   -0.359871
     54          6           0       -9.521600    1.660748    0.649292
     55          6           0       -8.243357    2.502200    0.622874
     56          6           0       -9.948231    1.249147    2.128110
     57          6           0      -11.166314    2.016950    2.729555
     58          6           0      -12.481720    1.250914    2.923808
     59          6           0      -13.753874    1.830909    2.206126
     60          6           0      -14.549834    2.557714    3.251605
     61          6           0      -14.691077    0.727386    1.580522
     62          6           0      -13.970065    0.393738    0.199578
     63          6           0      -14.878420   -0.245199   -0.840667
     64          6           0      -15.047071    0.763292   -1.993572
     65          6           0      -16.478750    0.594159   -2.572534
     66          6           0      -13.920813    0.454751   -3.073399
     67          1           0        3.236330    3.276679   -1.832830
     68          1           0        9.195580    3.850392    0.308799
     69          1           0        9.610878   -2.586714    0.736717
     70          1           0        1.837028   -1.320153   -1.969443
     71          1           0        1.244297    1.396864   -1.384313
     72          1           0        2.846918    1.720281   -3.499393
     73          1           0        1.104143    1.532041   -3.508145
     74          1           0        2.078883    0.092578   -3.765008
     75          1           0        1.205790   -0.232651    0.939851
     76          1           0        0.911413   -1.851112    0.437314
     77          1           0       -0.685733   -0.308980   -1.380388
     78          1           0       -0.960999    0.280806    0.243756
     79          1           0        3.268218    5.414220   -1.461409
     80          1           0        4.616942    6.358259   -2.074683
     81          1           0        4.240826    6.329235   -0.376637
     82          1           0        6.165160    7.521257   -1.089625
     83          1           0        7.485788    8.033637   -0.106891
     84          1           0        5.935840    7.357390    0.664992
     85          1           0       10.741660    2.127443    1.486363
     86          1           0       11.278592   -0.576052    0.263183
     87          1           0       10.790463    2.308262   -1.259477
     88          1           0       12.058375    1.164290   -0.935866
     89          1           0       12.075096    2.797898   -0.182646
     90          1           0       12.052209   -0.284993    2.633368
     91          1           0       10.939477   -1.621510    2.483509
     92          1           0        9.726505   -0.807807    4.120054
     93          1           0        9.363450    0.605396    3.155691
     94          1           0       10.833533    0.562156    4.236419
     95          1           0        8.142398   -5.593812   -0.465197
     96          1           0        7.693691   -5.565771    1.253052
     97          1           0        9.095931   -4.728007    0.880460
     98          1           0        3.251003   -3.710092   -1.633327
     99          1           0        0.428018   -5.018497    1.244141
    100          1           0        0.719720   -6.537065    0.411461
    101          1           0       -0.468289   -5.400354   -0.271283
    102          1           0       -3.988084   -2.765113    0.765313
    103          1           0       -3.659006   -2.940793   -1.026731
    104          1           0       -4.968534   -0.538977   -0.954034
    105          1           0       -5.862489   -4.101555    0.199541
    106          1           0       -6.911065   -4.058295   -1.187824
    107          1           0       -7.518352   -3.488535    0.469397
    108          1           0       -8.055303   -1.824672   -1.681661
    109          1           0       -7.133235   -0.294485   -1.445935
    110          1           0       -8.185247   -0.539747    1.038998
    111          1           0       -9.397327   -1.557653    0.133320
    112          1           0      -10.479327    0.232159   -0.481581
    113          1           0       -9.078403    0.961909   -1.281874
    114          1           0      -10.235613    2.378991    0.245062
    115          1           0       -7.539792    2.121391   -0.116478
    116          1           0       -7.821643    2.512153    1.627867
    117          1           0       -8.347678    3.524104    0.260922
    118          1           0       -9.142924    1.347040    2.855362
    119          1           0      -10.121402    0.178870    2.239408
    120          1           0      -11.443854    2.708394    1.933496
    121          1           0      -10.951621    2.617105    3.613923
    122          1           0      -12.702026    1.301015    3.990350
    123          1           0      -12.455550    0.185971    2.692367
    124          1           0      -13.359313    2.537484    1.475685
    125          1           0      -13.930957    2.957713    4.054443
    126          1           0      -15.181023    1.803259    3.721701
    127          1           0      -15.213785    3.231426    2.709082
    128          1           0      -15.699297    1.083865    1.366100
    129          1           0      -14.722383   -0.175657    2.189120
    130          1           0      -13.132649   -0.252847    0.460791
    131          1           0      -13.451522    1.266364   -0.195701
    132          1           0      -15.819408   -0.529986   -0.369150
    133          1           0      -14.371524   -1.150239   -1.175401
    134          1           0      -14.902213    1.774792   -1.612457
    135          1           0      -17.046696    1.464337   -2.244394
    136          1           0      -16.981821   -0.304634   -2.216738
    137          1           0      -16.485419    0.492218   -3.657091
    138          1           0      -12.903487    0.648426   -2.733198
    139          1           0      -14.072168    1.087701   -3.947925
    140          1           0      -13.940757   -0.574994   -3.429185
 ---------------------------------------------------------------------

 SCF Done:  E(RZINDO/S) =  -474.446399776     A.U. after   20 cycles

 Excitation energies and oscillator strengths:

 Excited State   1:      Singlet-A      1.2610 eV  983.24 nm  f=0.6042  <S**2>=0.000
     175 ->178        -0.20506
     176 ->177         0.65898
 This state for optimization and/or second-order correction.
 Total Energy, E(CIS/TDA) =  -474.400059770
 Copying the excited state density for this state as the 1-particle RhoCI density.

 Excited State   2:      Singlet-A      1.8575 eV  667.46 nm  f=0.0897  <S**2>=0.000
     175 ->177         0.57658
     176 ->178         0.38069

 Excited State   3:      Singlet-A      2.8748 eV  431.27 nm  f=0.0261  <S**2>=0.000
     168 ->177         0.12486
     168 ->179        -0.11194
     168 ->180        -0.11792
     169 ->177         0.21771
     169 ->179        -0.23422
     169 ->180        -0.25741
     169 ->184         0.11158
     169 ->186        -0.17640
     171 ->177        -0.26313
     171 ->179         0.13631
     171 ->180         0.12392
     176 ->178         0.12140

 Excited State   4:      Singlet-A      2.9837 eV  415.54 nm  f=0.0044  <S**2>=0.000
     169 ->177         0.11346
     170 ->177         0.32344
     170 ->178         0.12526
     170 ->179         0.39322
     170 ->180        -0.23880
     170 ->186         0.17891
     170 ->187         0.15652

 Excited State   5:      Singlet-A      3.0139 eV  411.38 nm  f=0.8618  <S**2>=0.000
     171 ->177        -0.10190
     172 ->177         0.12672
     175 ->177        -0.31567
     176 ->178         0.52044
     176 ->179         0.20940

 The electronic state is 1-A.
 Alpha  occ. eigenvalues --   -1.85602  -1.83327  -1.80050  -1.74385  -1.72268
 Alpha  occ. eigenvalues --   -1.70177  -1.65865  -1.63382  -1.60873  -1.57626
 Alpha  occ. eigenvalues --   -1.55369  -1.51806  -1.48881  -1.47752  -1.45223
 Alpha  occ. eigenvalues --   -1.43725  -1.41005  -1.40348  -1.39006  -1.37866
 Alpha  occ. eigenvalues --   -1.36991  -1.33505  -1.32577  -1.31557  -1.28978
 Alpha  occ. eigenvalues --   -1.28651  -1.25036  -1.22304  -1.20983  -1.18269
 Alpha  occ. eigenvalues --   -1.17628  -1.15931  -1.14873  -1.14509  -1.12320
 Alpha  occ. eigenvalues --   -1.11646  -1.11088  -1.10145  -1.05389  -1.03748
 Alpha  occ. eigenvalues --   -1.02528  -1.00696  -0.99845  -0.98141  -0.96657
 Alpha  occ. eigenvalues --   -0.95681  -0.94173  -0.93947  -0.92081  -0.91450
 Alpha  occ. eigenvalues --   -0.90933  -0.90194  -0.88840  -0.87233  -0.85066
 Alpha  occ. eigenvalues --   -0.84531  -0.84094  -0.82883  -0.81643  -0.79745
 Alpha  occ. eigenvalues --   -0.78586  -0.78368  -0.77662  -0.76450  -0.75717
 Alpha  occ. eigenvalues --   -0.75700  -0.75456  -0.74753  -0.74446  -0.74200
 Alpha  occ. eigenvalues --   -0.72824  -0.72280  -0.71999  -0.71641  -0.70805
 Alpha  occ. eigenvalues --   -0.69810  -0.69382  -0.69167  -0.68505  -0.68159
 Alpha  occ. eigenvalues --   -0.67677  -0.67468  -0.67109  -0.66559  -0.65808
 Alpha  occ. eigenvalues --   -0.65529  -0.64552  -0.64009  -0.63747  -0.63102
 Alpha  occ. eigenvalues --   -0.62989  -0.62918  -0.62173  -0.62025  -0.61748
 Alpha  occ. eigenvalues --   -0.61594  -0.61178  -0.60487  -0.60391  -0.59603
 Alpha  occ. eigenvalues --   -0.59298  -0.59287  -0.58857  -0.58351  -0.58102
 Alpha  occ. eigenvalues --   -0.57800  -0.57448  -0.57158  -0.56997  -0.56654
 Alpha  occ. eigenvalues --   -0.56373  -0.55704  -0.55409  -0.55006  -0.54270
 Alpha  occ. eigenvalues --   -0.53776  -0.53397  -0.53076  -0.52888  -0.52780
 Alpha  occ. eigenvalues --   -0.52446  -0.52070  -0.51662  -0.51351  -0.51102
 Alpha  occ. eigenvalues --   -0.50676  -0.50542  -0.50328  -0.50147  -0.49858
 Alpha  occ. eigenvalues --   -0.49624  -0.49337  -0.48836  -0.48756  -0.48621
 Alpha  occ. eigenvalues --   -0.48564  -0.48118  -0.47751  -0.47726  -0.47341
 Alpha  occ. eigenvalues --   -0.47202  -0.47159  -0.46999  -0.46931  -0.46545
 Alpha  occ. eigenvalues --   -0.46450  -0.46200  -0.45886  -0.45242  -0.45049
 Alpha  occ. eigenvalues --   -0.44893  -0.44517  -0.44425  -0.44150  -0.43858
 Alpha  occ. eigenvalues --   -0.43392  -0.43321  -0.42867  -0.41965  -0.41826
 Alpha  occ. eigenvalues --   -0.41662  -0.41580  -0.40356  -0.38746  -0.38523
 Alpha  occ. eigenvalues --   -0.37768  -0.36697  -0.35332  -0.35061  -0.34712
 Alpha  occ. eigenvalues --   -0.32675  -0.32115  -0.31852  -0.31466  -0.26051
 Alpha  occ. eigenvalues --   -0.21858
 Alpha virt. eigenvalues --   -0.08515  -0.01873  -0.00318   0.01551   0.02147
 Alpha virt. eigenvalues --    0.02533   0.03274   0.03493   0.04726   0.05379
 Alpha virt. eigenvalues --    0.06576   0.07108   0.07764   0.07960   0.08543

 Mulliken charges:
               1
     1  Mg   0.423169
     2  C   -0.037130
     3  C   -0.080858
     4  C   -0.074832
     5  C   -0.056631
     6  N   -0.276205
     7  C    0.104509
     8  C    0.002866
     9  C   -0.017983
    10  C    0.131949
    11  C   -0.049398
    12  C   -0.013729
    13  C    0.001911
    14  C    0.466295
    15  O   -0.529638
    16  O   -0.268274
    17  N   -0.320989
    18  C    0.129256
    19  C    0.000271
    20  C   -0.055122
    21  C    0.141363
    22  C   -0.044150
    23  C    0.333859
    24  O   -0.509085
    25  C   -0.031514
    26  N   -0.256081
    27  C    0.149356
    28  C    0.011454
    29  C    0.000784
    30  C    0.110698
    31  C   -0.059397
    32  C   -0.037901
    33  C   -0.059078
    34  N   -0.331084
    35  C    0.095555
    36  C    0.027653
    37  C   -0.078611
    38  C    0.122131
    39  C   -0.043474
    40  C    0.350822
    41  O   -0.524245
    42  C    0.080183
    43  C    0.509722
    44  O   -0.538002
    45  O   -0.280699
    46  C    0.070224
    47  C    0.115467
    48  C   -0.088719
    49  C   -0.040390
    50  C   -0.049361
    51  C   -0.023433
    52  C   -0.019116
    53  C   -0.031551
    54  C   -0.009861
    55  C   -0.061294
    56  C   -0.035168
    57  C   -0.039512
    58  C   -0.038777
    59  C   -0.018614
    60  C   -0.059538
    61  C   -0.037287
    62  C   -0.050867
    63  C   -0.032567
    64  C   -0.009588
    65  C   -0.059845
    66  C   -0.058390
    67  H    0.023831
    68  H    0.054786
    69  H    0.029397
    70  H    0.035833
    71  H    0.022671
    72  H    0.028340
    73  H    0.014965
    74  H    0.023667
    75  H    0.032804
    76  H    0.041955
    77  H    0.042017
    78  H    0.033331
    79  H    0.021049
    80  H    0.029319
    81  H    0.024607
    82  H    0.033943
    83  H    0.036595
    84  H    0.043011
    85  H    0.030039
    86  H    0.030607
    87  H    0.018534
    88  H    0.024953
    89  H    0.025980
    90  H    0.017968
    91  H    0.019555
    92  H    0.018343
    93  H    0.023684
    94  H    0.021337
    95  H    0.044727
    96  H    0.028654
    97  H    0.022354
    98  H    0.059171
    99  H    0.044398
   100  H    0.039361
   101  H    0.050953
   102  H    0.051922
   103  H    0.057637
   104  H    0.031566
   105  H    0.025001
   106  H    0.034413
   107  H    0.028455
   108  H    0.023202
   109  H    0.026950
   110  H    0.029864
   111  H    0.025585
   112  H    0.008568
   113  H    0.022669
   114  H    0.017100
   115  H    0.014222
   116  H    0.020288
   117  H    0.015710
   118  H    0.015774
   119  H    0.016883
   120  H    0.013616
   121  H    0.026684
   122  H    0.011224
   123  H    0.018144
   124  H    0.026441
   125  H    0.023225
   126  H    0.011486
   127  H    0.015526
   128  H    0.024343
   129  H    0.029389
   130  H    0.007488
   131  H    0.021190
   132  H    0.020445
   133  H    0.018217
   134  H    0.029262
   135  H    0.017815
   136  H    0.019359
   137  H    0.017821
   138  H    0.017051
   139  H    0.010226
   140  H    0.020994
 Sum of Mulliken charges =  -0.00000

 Dipole moment (field-independent basis, Debye):
    X=             -3.9262    Y=              6.7714    Z=             -1.7795  Tot=              8.0271
 N-N= 4.215777061204D+03 E-N= 0.000000000000D+00  KE=-9.106638511094D+03
 Leave Link  601 at Sat Apr 30 21:17:33 2022, MaxMem=  6710886400 cpu:               1.0 elap:               0.1
 (Enter /sw/apps/gaussian-16.0/g16/l9999.exe)
 1\1\GINC-BP1-COMPUTE150\SP\RZINDO CIS\STO-3G\C55H74Mg1N4O6\OF15641\30-
 Apr-2022\0\\#p ZINDO=(nstates=5)\\step_901_chromophore_1 ZINDO\\0,1\Mg
 ,0,-2.058,17.417,26.25\C,0,-2.287,15.361,29.033\C,0,-2.799,20.172,28.2
 25\C,0,-2.077,19.437,23.494\C,0,-2.075,14.561,24.286\N,0,-2.526,17.71,
 28.368\C,0,-2.375,16.755,29.346\C,0,-2.518,17.42,30.793\C,0,-3.052,18.
 898,30.42\C,0,-2.703,18.967,28.874\C,0,-4.527,19.303,30.621\C,0,-1.218
 ,17.427,31.683\C,0,-1.354,18.069,33.096\C,0,-1.311,17.169,34.378\O,0,-

 Normal termination of Gaussian 16 at Sat Apr 30 21:17:33 2022.
