 Gaussian 16, Revision A.03,
 Gaussian 16:  ES64L-G16RevA.03 25-Dec-2016

 ------------------------------
 #p blyp/Def2SVP td=(nstates=5)
 ------------------------------

 --------------------------------------------------
 step_951_chromophore_18 TDDFT with blyp functional
 --------------------------------------------------
 Symbolic Z-matrix:
 Charge =  0 Multiplicity = 1

                         Standard orientation:
 ---------------------------------------------------------------------
 Center     Atomic      Atomic             Coordinates (Angstroms)
 Number     Number       Type             X           Y           Z
 ---------------------------------------------------------------------
      1         12           0        5.363181    1.192942    0.390874
      2          6           0        4.649407   -2.276634    0.050488
      3          6           0        2.016771    1.762507    0.029569
      4          6           0        6.213579    4.379303    0.075357
      5          6           0        8.726201    0.316327    0.225046
      6          7           0        3.554910   -0.121308    0.089335
      7          6           0        3.511921   -1.449549    0.215959
      8          6           0        2.038345   -2.004637    0.250589
      9          6           0        1.221148   -0.707549    0.170626
     10          6           0        2.281184    0.423752    0.172833
     11          6           0        0.202994   -0.583465   -1.048969
     12          6           0        1.963782   -2.860939    1.536192
     13          6           0        1.225118   -4.161537    1.315299
     14          6           0        0.138287   -4.262196    0.195123
     15          8           0        0.380711   -4.627754   -0.924689
     16          8           0       -1.104027   -3.798355    0.613373
     17          7           0        4.232532    2.890458    0.145629
     18          6           0        2.898395    2.954127   -0.011591
     19          6           0        2.492468    4.315537   -0.079811
     20          6           0        3.722743    5.054599   -0.164363
     21          6           0        4.816225    4.111631   -0.025999
     22          6           0        1.008406    4.737184   -0.282769
     23          6           0        3.927448    6.477191   -0.495780
     24          8           0        5.101322    6.901286   -0.633621
     25          6           0        2.788350    7.519103   -0.671228
     26          7           0        7.245027    2.184885    0.337803
     27          6           0        7.304962    3.528308    0.183677
     28          6           0        8.818121    3.953673   -0.056455
     29          6           0        9.535716    2.657746    0.353952
     30          6           0        8.439669    1.685365    0.246496
     31          6           0        9.155941    4.538023   -1.415674
     32          6           0       10.266910    2.566177    1.609719
     33          6           0        9.930493    1.777138    2.890259
     34          7           0        6.530040   -0.650267    0.243335
     35          6           0        7.897727   -0.809862    0.161267
     36          6           0        8.170118   -2.203559   -0.093187
     37          6           0        6.908194   -2.798150   -0.119645
     38          6           0        5.940176   -1.816737    0.021238
     39          6           0        9.457605   -2.868737   -0.275857
     40          6           0        6.229872   -4.138729   -0.273031
     41          8           0        6.587441   -5.301807   -0.356635
     42          6           0        4.779766   -3.780646   -0.119886
     43          6           0        3.943957   -4.253897   -1.351902
     44          8           0        3.766225   -3.538186   -2.329954
     45          8           0        3.602422   -5.574353   -1.160155
     46          6           0        3.118146   -6.155158   -2.437032
     47          6           0       -2.074794   -3.595057   -0.478969
     48          6           0       -3.021682   -2.439290   -0.240381
     49          6           0       -4.125572   -2.153113   -0.922954
     50          6           0       -4.582188   -2.909207   -2.128763
     51          6           0       -5.187014   -1.157652   -0.418526
     52          6           0       -6.359751   -1.870920    0.322192
     53          6           0       -6.832282   -1.102040    1.445049
     54          6           0       -8.375760   -1.312731    1.839986
     55          6           0       -8.615634   -1.857841    3.245947
     56          6           0       -9.132246   -0.040405    1.538650
     57          6           0      -10.315772   -0.384064    0.537782
     58          6           0      -11.617684   -0.791952    1.337342
     59          6           0      -12.637328    0.366076    1.384466
     60          6           0      -13.442166    0.240616    2.650332
     61          6           0      -13.502007    0.349900    0.094599
     62          6           0      -13.874142    1.761353   -0.405072
     63          6           0      -15.005872    1.766544   -1.476701
     64          6           0      -15.914604    3.015560   -1.418272
     65          6           0      -17.490969    2.725397   -1.311494
     66          6           0      -15.588171    4.065379   -2.501045
     67          1           0        0.969473    2.071474    0.040698
     68          1           0        6.610003    5.391622   -0.022176
     69          1           0        9.721144    0.113666   -0.176180
     70          1           0        1.873780   -2.570923   -0.666664
     71          1           0        0.779248   -0.639803    1.164422
     72          1           0        0.638078   -0.343159   -2.018609
     73          1           0       -0.587176    0.109987   -0.761656
     74          1           0       -0.235871   -1.564157   -1.234730
     75          1           0        1.311977   -2.329685    2.229708
     76          1           0        2.965793   -3.074831    1.905657
     77          1           0        0.722952   -4.503128    2.220345
     78          1           0        1.971614   -4.917320    1.068623
     79          1           0        0.664637    4.526138   -1.295602
     80          1           0        0.883031    5.776912    0.021481
     81          1           0        0.432655    4.156989    0.438054
     82          1           0        2.118288    7.611268    0.183858
     83          1           0        2.117108    7.268299   -1.492618
     84          1           0        3.194012    8.503105   -0.910147
     85          1           0        8.989432    4.798210    0.610838
     86          1           0       10.219314    2.335519   -0.431661
     87          1           0        9.803889    5.403006   -1.276437
     88          1           0        8.312010    4.663403   -2.094535
     89          1           0        9.720082    3.781872   -1.959886
     90          1           0       10.537152    3.599520    1.830308
     91          1           0       11.271586    2.302077    1.280386
     92          1           0       10.568080    0.893092    2.913355
     93          1           0        8.870772    1.522401    2.900676
     94          1           0       10.055651    2.414730    3.765469
     95          1           0       10.287865   -2.474170    0.309194
     96          1           0        9.735175   -2.755904   -1.324167
     97          1           0        9.435957   -3.869981    0.153696
     98          1           0        4.475443   -4.368688    0.745420
     99          1           0        2.132593   -6.015086   -2.882450
    100          1           0        3.243195   -7.232090   -2.324156
    101          1           0        3.773486   -5.821480   -3.241663
    102          1           0       -2.768720   -4.417009   -0.658707
    103          1           0       -1.608562   -3.312304   -1.422130
    104          1           0       -2.942987   -1.987926    0.747854
    105          1           0       -4.588809   -2.210770   -2.966044
    106          1           0       -5.569906   -3.326297   -1.935580
    107          1           0       -3.817154   -3.608839   -2.465955
    108          1           0       -5.662623   -0.731886   -1.301447
    109          1           0       -4.684402   -0.365817    0.136416
    110          1           0       -5.997405   -2.848914    0.638595
    111          1           0       -7.059727   -2.134837   -0.470363
    112          1           0       -6.600456   -0.093127    1.103677
    113          1           0       -6.129878   -1.488292    2.183622
    114          1           0       -8.737713   -2.078516    1.153856
    115          1           0       -9.357884   -2.655106    3.302702
    116          1           0       -9.067226   -1.102104    3.888045
    117          1           0       -7.727312   -2.268818    3.724726
    118          1           0       -8.576306    0.747307    1.030132
    119          1           0       -9.374574    0.485239    2.461856
    120          1           0      -10.040680   -1.204433   -0.125848
    121          1           0      -10.580656    0.438377   -0.126853
    122          1           0      -11.214660   -1.074158    2.310529
    123          1           0      -12.172809   -1.649807    0.958382
    124          1           0      -12.129831    1.329870    1.422437
    125          1           0      -14.202585   -0.539403    2.611198
    126          1           0      -13.891248    1.228739    2.755937
    127          1           0      -12.657865    0.075340    3.388965
    128          1           0      -14.410324   -0.218686    0.291837
    129          1           0      -13.028414   -0.136097   -0.758141
    130          1           0      -12.965432    2.222050   -0.793656
    131          1           0      -14.131655    2.368435    0.462249
    132          1           0      -15.561403    0.829079   -1.449922
    133          1           0      -14.567021    1.785573   -2.475379
    134          1           0      -15.647136    3.511990   -0.484138
    135          1           0      -17.751851    1.674002   -1.188812
    136          1           0      -17.976341    3.011190   -2.244248
    137          1           0      -17.860985    3.229871   -0.418512
    138          1           0      -15.400126    5.022147   -2.015252
    139          1           0      -16.504590    4.293253   -3.044546
    140          1           0      -14.850710    3.695896   -3.214142
 ---------------------------------------------------------------------

 SCF Done:  E(RB-LYP) =  -3007.34022552     A.U. after   21 cycles

 Excitation energies and oscillator strengths:

 Excited State   1:      Singlet-A      1.7040 eV  727.60 nm  f=0.0023  <S**2>=0.000
     244 -> 247        0.66687
     245 -> 247       -0.23188
 This state for optimization and/or second-order correction.
 Total Energy, E(TD-HF/TD-DFT) =  -3007.27760404
 Copying the excited state density for this state as the 1-particle RhoCI density.

 Excited State   2:      Singlet-A      1.8512 eV  669.77 nm  f=0.3164  <S**2>=0.000
     245 -> 248       -0.16966
     246 -> 247        0.68663
     246 <- 247       -0.14318

 Excited State   3:      Singlet-A      1.9933 eV  621.99 nm  f=0.0875  <S**2>=0.000
     244 -> 247        0.22419
     245 -> 247        0.62287
     246 -> 248        0.17926
     246 -> 249       -0.11059

 Excited State   4:      Singlet-A      2.1172 eV  585.61 nm  f=0.0004  <S**2>=0.000
     243 -> 247        0.70586

 Excited State   5:      Singlet-A      2.4388 eV  508.38 nm  f=0.0001  <S**2>=0.000
     241 -> 247        0.70607

 The electronic state is 1-A.
 Alpha  occ. eigenvalues --  -46.27465 -18.83247 -18.82904 -18.77943 -18.77257
 Alpha  occ. eigenvalues --  -18.76072 -18.74235 -14.02983 -14.02658 -14.00765
 Alpha  occ. eigenvalues --  -13.99899 -10.04880 -10.04055  -9.99852  -9.99052
 Alpha  occ. eigenvalues --   -9.98367  -9.96647  -9.96430  -9.95927  -9.95533
 Alpha  occ. eigenvalues --   -9.95505  -9.95241  -9.95102  -9.95024  -9.94045
 Alpha  occ. eigenvalues --   -9.93677  -9.93620  -9.93495  -9.93413  -9.93329
 Alpha  occ. eigenvalues --   -9.93259  -9.93206  -9.93109  -9.93053  -9.92744
 Alpha  occ. eigenvalues --   -9.92677  -9.92623  -9.92608  -9.92536  -9.92464
 Alpha  occ. eigenvalues --   -9.92342  -9.92225  -9.92050  -9.91977  -9.91942
 Alpha  occ. eigenvalues --   -9.91885  -9.91842  -9.91817  -9.91700  -9.91642
 Alpha  occ. eigenvalues --   -9.91631  -9.91607  -9.91594  -9.91506  -9.91415
 Alpha  occ. eigenvalues --   -9.91366  -9.91236  -9.91229  -9.91173  -9.91061
 Alpha  occ. eigenvalues --   -9.91034  -9.90930  -9.90837  -9.90811  -9.90715
 Alpha  occ. eigenvalues --   -9.90621  -2.91964  -1.72408  -1.71843  -1.71668
 Alpha  occ. eigenvalues --   -0.98490  -0.97303  -0.91732  -0.91189  -0.90101
 Alpha  occ. eigenvalues --   -0.89013  -0.87886  -0.86441  -0.85719  -0.85097
 Alpha  occ. eigenvalues --   -0.75670  -0.74620  -0.73618  -0.73366  -0.73137
 Alpha  occ. eigenvalues --   -0.72352  -0.71309  -0.70837  -0.70636  -0.70037
 Alpha  occ. eigenvalues --   -0.69442  -0.69105  -0.68374  -0.67457  -0.66933
 Alpha  occ. eigenvalues --   -0.66335  -0.65718  -0.64967  -0.64413  -0.64291
 Alpha  occ. eigenvalues --   -0.63519  -0.62580  -0.62173  -0.61897  -0.60877
 Alpha  occ. eigenvalues --   -0.60469  -0.60141  -0.59805  -0.59750  -0.59176
 Alpha  occ. eigenvalues --   -0.58422  -0.57832  -0.56591  -0.55745  -0.55626
 Alpha  occ. eigenvalues --   -0.53788  -0.53578  -0.52654  -0.52070  -0.51497
 Alpha  occ. eigenvalues --   -0.51409  -0.51187  -0.50688  -0.50538  -0.50412
 Alpha  occ. eigenvalues --   -0.50128  -0.49654  -0.48459  -0.48258  -0.46331
 Alpha  occ. eigenvalues --   -0.46207  -0.45698  -0.45644  -0.45128  -0.44101
 Alpha  occ. eigenvalues --   -0.43859  -0.43297  -0.42954  -0.42933  -0.42546
 Alpha  occ. eigenvalues --   -0.42265  -0.42161  -0.41735  -0.41294  -0.41098
 Alpha  occ. eigenvalues --   -0.40760  -0.40711  -0.40514  -0.40468  -0.40205
 Alpha  occ. eigenvalues --   -0.39933  -0.39896  -0.39615  -0.39191  -0.39101
 Alpha  occ. eigenvalues --   -0.39020  -0.38959  -0.38612  -0.38366  -0.37941
 Alpha  occ. eigenvalues --   -0.37877  -0.37520  -0.37261  -0.37183  -0.37091
 Alpha  occ. eigenvalues --   -0.36851  -0.36810  -0.36519  -0.36397  -0.36309
 Alpha  occ. eigenvalues --   -0.36127  -0.35991  -0.35865  -0.35787  -0.35455
 Alpha  occ. eigenvalues --   -0.35237  -0.35090  -0.34910  -0.34755  -0.34612
 Alpha  occ. eigenvalues --   -0.34554  -0.34404  -0.34187  -0.33933  -0.33746
 Alpha  occ. eigenvalues --   -0.33696  -0.33395  -0.33264  -0.33207  -0.32969
 Alpha  occ. eigenvalues --   -0.32901  -0.32708  -0.32576  -0.32451  -0.32188
 Alpha  occ. eigenvalues --   -0.32057  -0.31865  -0.31713  -0.31578  -0.31409
 Alpha  occ. eigenvalues --   -0.31362  -0.31240  -0.31052  -0.30823  -0.30652
 Alpha  occ. eigenvalues --   -0.30490  -0.30445  -0.30305  -0.30079  -0.29864
 Alpha  occ. eigenvalues --   -0.29678  -0.29176  -0.29118  -0.28910  -0.28705
 Alpha  occ. eigenvalues --   -0.28372  -0.28238  -0.28122  -0.27963  -0.27925
 Alpha  occ. eigenvalues --   -0.27229  -0.27066  -0.26660  -0.26507  -0.26354
 Alpha  occ. eigenvalues --   -0.26301  -0.26151  -0.26068  -0.25643  -0.25442
 Alpha  occ. eigenvalues --   -0.25376  -0.25254  -0.25003  -0.23764  -0.23525
 Alpha  occ. eigenvalues --   -0.22921  -0.22616  -0.22113  -0.21889  -0.20407
 Alpha  occ. eigenvalues --   -0.20266  -0.19997  -0.18958  -0.17542  -0.16773
 Alpha  occ. eigenvalues --   -0.15758
 Alpha virt. eigenvalues --   -0.11303  -0.06505  -0.05732  -0.04359  -0.03538
 Alpha virt. eigenvalues --   -0.02453  -0.02037  -0.01496  -0.00845   0.00634
 Alpha virt. eigenvalues --    0.01191   0.01980   0.02355   0.02659   0.02919

 Mulliken charges:
               1
     1  Mg   0.678890
     2  C    0.040877
     3  C   -0.059054
     4  C   -0.012630
     5  C   -0.080127
     6  N   -0.198460
     7  C   -0.111315
     8  C   -0.097307
     9  C    0.103628
    10  C    0.025521
    11  C    0.138183
    12  C    0.174600
    13  C    0.114139
    14  C    0.075194
    15  O   -0.169041
    16  O   -0.280269
    17  N   -0.290273
    18  C    0.079737
    19  C   -0.156272
    20  C    0.067185
    21  C    0.124836
    22  C    0.167537
    23  C   -0.076339
    24  O   -0.204510
    25  C    0.109282
    26  N   -0.171176
    27  C   -0.029356
    28  C    0.002934
    29  C    0.083551
    30  C   -0.065081
    31  C    0.158415
    32  C    0.090149
    33  C    0.136201
    34  N   -0.221867
    35  C    0.087843
    36  C   -0.157976
    37  C    0.021143
    38  C    0.088074
    39  C    0.172213
    40  C   -0.007090
    41  O   -0.114288
    42  C    0.031833
    43  C    0.138458
    44  O   -0.183669
    45  O   -0.250323
    46  C    0.218060
    47  C    0.290757
    48  C   -0.101478
    49  C   -0.191777
    50  C    0.150045
    51  C    0.125629
    52  C    0.026697
    53  C    0.133893
    54  C   -0.033625
    55  C    0.117903
    56  C    0.105195
    57  C    0.060089
    58  C    0.088439
    59  C   -0.072521
    60  C    0.134623
    61  C    0.093652
    62  C    0.039060
    63  C    0.130548
    64  C   -0.113933
    65  C    0.087876
    66  C    0.119766
    67  H   -0.074312
    68  H   -0.040949
    69  H   -0.054468
    70  H    0.020648
    71  H   -0.046909
    72  H    0.003106
    73  H    0.003053
    74  H   -0.018462
    75  H   -0.023918
    76  H    0.003093
    77  H   -0.013515
    78  H   -0.002593
    79  H    0.019582
    80  H   -0.021491
    81  H   -0.004385
    82  H    0.010395
    83  H   -0.001681
    84  H   -0.010023
    85  H   -0.031246
    86  H   -0.040135
    87  H    0.000621
    88  H    0.000211
    89  H   -0.033627
    90  H   -0.050135
    91  H   -0.048761
    92  H    0.001789
    93  H    0.001859
    94  H   -0.010554
    95  H   -0.025900
    96  H    0.012467
    97  H    0.008265
    98  H    0.001644
    99  H    0.025918
   100  H    0.004329
   101  H    0.004255
   102  H    0.014943
   103  H    0.027797
   104  H   -0.040915
   105  H   -0.008825
   106  H    0.012675
   107  H   -0.023527
   108  H   -0.037215
   109  H   -0.021227
   110  H   -0.035491
   111  H   -0.033317
   112  H   -0.022586
   113  H   -0.030749
   114  H   -0.025231
   115  H   -0.016711
   116  H   -0.022796
   117  H   -0.021270
   118  H   -0.040285
   119  H   -0.033384
   120  H   -0.033129
   121  H   -0.036635
   122  H   -0.047855
   123  H   -0.040178
   124  H   -0.047585
   125  H   -0.010892
   126  H   -0.023563
   127  H   -0.016123
   128  H   -0.039200
   129  H   -0.034235
   130  H   -0.028057
   131  H   -0.028326
   132  H   -0.037212
   133  H   -0.042651
   134  H   -0.032135
   135  H   -0.022149
   136  H   -0.010531
   137  H   -0.005384
   138  H   -0.016071
   139  H   -0.033640
   140  H   -0.007406
 Sum of Mulliken charges =  -0.00000

 Dipole moment (field-independent basis, Debye):
    X=             -3.5424    Y=              0.4806    Z=              1.8636  Tot=              4.0315
 Quadrupole moment (field-independent basis, Debye-Ang):
   XX=           -378.1349   YY=           -436.6553   ZZ=           -403.3314
   XY=             11.5459   XZ=             14.1096   YZ=              1.7692

 Normal termination of Gaussian 16 at Thu May  5 17:02:24 2022.
