 Gaussian 16, Revision A.03,
 Gaussian 16:  ES64L-G16RevA.03 25-Dec-2016

 -----------------------------------
 #p cam-b3lyp/Def2SVP td=(nstates=5)
 -----------------------------------

 -------------------------------------------------------
 step_951_chromophore_18 TDDFT with cam-b3lyp functional
 -------------------------------------------------------
 Symbolic Z-matrix:
 Charge =  0 Multiplicity = 1

                         Standard orientation:
 ---------------------------------------------------------------------
 Center     Atomic      Atomic             Coordinates (Angstroms)
 Number     Number       Type             X           Y           Z
 ---------------------------------------------------------------------
      1         12           0        5.363181    1.192942    0.390874
      2          6           0        4.649407   -2.276634    0.050488
      3          6           0        2.016771    1.762507    0.029569
      4          6           0        6.213579    4.379303    0.075357
      5          6           0        8.726201    0.316327    0.225046
      6          7           0        3.554910   -0.121308    0.089335
      7          6           0        3.511921   -1.449549    0.215959
      8          6           0        2.038345   -2.004637    0.250589
      9          6           0        1.221148   -0.707549    0.170626
     10          6           0        2.281184    0.423752    0.172833
     11          6           0        0.202994   -0.583465   -1.048969
     12          6           0        1.963782   -2.860939    1.536192
     13          6           0        1.225118   -4.161537    1.315299
     14          6           0        0.138287   -4.262196    0.195123
     15          8           0        0.380711   -4.627754   -0.924689
     16          8           0       -1.104027   -3.798355    0.613373
     17          7           0        4.232532    2.890458    0.145629
     18          6           0        2.898395    2.954127   -0.011591
     19          6           0        2.492468    4.315537   -0.079811
     20          6           0        3.722743    5.054599   -0.164363
     21          6           0        4.816225    4.111631   -0.025999
     22          6           0        1.008406    4.737184   -0.282769
     23          6           0        3.927448    6.477191   -0.495780
     24          8           0        5.101322    6.901286   -0.633621
     25          6           0        2.788350    7.519103   -0.671228
     26          7           0        7.245027    2.184885    0.337803
     27          6           0        7.304962    3.528308    0.183677
     28          6           0        8.818121    3.953673   -0.056455
     29          6           0        9.535716    2.657746    0.353952
     30          6           0        8.439669    1.685365    0.246496
     31          6           0        9.155941    4.538023   -1.415674
     32          6           0       10.266910    2.566177    1.609719
     33          6           0        9.930493    1.777138    2.890259
     34          7           0        6.530040   -0.650267    0.243335
     35          6           0        7.897727   -0.809862    0.161267
     36          6           0        8.170118   -2.203559   -0.093187
     37          6           0        6.908194   -2.798150   -0.119645
     38          6           0        5.940176   -1.816737    0.021238
     39          6           0        9.457605   -2.868737   -0.275857
     40          6           0        6.229872   -4.138729   -0.273031
     41          8           0        6.587441   -5.301807   -0.356635
     42          6           0        4.779766   -3.780646   -0.119886
     43          6           0        3.943957   -4.253897   -1.351902
     44          8           0        3.766225   -3.538186   -2.329954
     45          8           0        3.602422   -5.574353   -1.160155
     46          6           0        3.118146   -6.155158   -2.437032
     47          6           0       -2.074794   -3.595057   -0.478969
     48          6           0       -3.021682   -2.439290   -0.240381
     49          6           0       -4.125572   -2.153113   -0.922954
     50          6           0       -4.582188   -2.909207   -2.128763
     51          6           0       -5.187014   -1.157652   -0.418526
     52          6           0       -6.359751   -1.870920    0.322192
     53          6           0       -6.832282   -1.102040    1.445049
     54          6           0       -8.375760   -1.312731    1.839986
     55          6           0       -8.615634   -1.857841    3.245947
     56          6           0       -9.132246   -0.040405    1.538650
     57          6           0      -10.315772   -0.384064    0.537782
     58          6           0      -11.617684   -0.791952    1.337342
     59          6           0      -12.637328    0.366076    1.384466
     60          6           0      -13.442166    0.240616    2.650332
     61          6           0      -13.502007    0.349900    0.094599
     62          6           0      -13.874142    1.761353   -0.405072
     63          6           0      -15.005872    1.766544   -1.476701
     64          6           0      -15.914604    3.015560   -1.418272
     65          6           0      -17.490969    2.725397   -1.311494
     66          6           0      -15.588171    4.065379   -2.501045
     67          1           0        0.969473    2.071474    0.040698
     68          1           0        6.610003    5.391622   -0.022176
     69          1           0        9.721144    0.113666   -0.176180
     70          1           0        1.873780   -2.570923   -0.666664
     71          1           0        0.779248   -0.639803    1.164422
     72          1           0        0.638078   -0.343159   -2.018609
     73          1           0       -0.587176    0.109987   -0.761656
     74          1           0       -0.235871   -1.564157   -1.234730
     75          1           0        1.311977   -2.329685    2.229708
     76          1           0        2.965793   -3.074831    1.905657
     77          1           0        0.722952   -4.503128    2.220345
     78          1           0        1.971614   -4.917320    1.068623
     79          1           0        0.664637    4.526138   -1.295602
     80          1           0        0.883031    5.776912    0.021481
     81          1           0        0.432655    4.156989    0.438054
     82          1           0        2.118288    7.611268    0.183858
     83          1           0        2.117108    7.268299   -1.492618
     84          1           0        3.194012    8.503105   -0.910147
     85          1           0        8.989432    4.798210    0.610838
     86          1           0       10.219314    2.335519   -0.431661
     87          1           0        9.803889    5.403006   -1.276437
     88          1           0        8.312010    4.663403   -2.094535
     89          1           0        9.720082    3.781872   -1.959886
     90          1           0       10.537152    3.599520    1.830308
     91          1           0       11.271586    2.302077    1.280386
     92          1           0       10.568080    0.893092    2.913355
     93          1           0        8.870772    1.522401    2.900676
     94          1           0       10.055651    2.414730    3.765469
     95          1           0       10.287865   -2.474170    0.309194
     96          1           0        9.735175   -2.755904   -1.324167
     97          1           0        9.435957   -3.869981    0.153696
     98          1           0        4.475443   -4.368688    0.745420
     99          1           0        2.132593   -6.015086   -2.882450
    100          1           0        3.243195   -7.232090   -2.324156
    101          1           0        3.773486   -5.821480   -3.241663
    102          1           0       -2.768720   -4.417009   -0.658707
    103          1           0       -1.608562   -3.312304   -1.422130
    104          1           0       -2.942987   -1.987926    0.747854
    105          1           0       -4.588809   -2.210770   -2.966044
    106          1           0       -5.569906   -3.326297   -1.935580
    107          1           0       -3.817154   -3.608839   -2.465955
    108          1           0       -5.662623   -0.731886   -1.301447
    109          1           0       -4.684402   -0.365817    0.136416
    110          1           0       -5.997405   -2.848914    0.638595
    111          1           0       -7.059727   -2.134837   -0.470363
    112          1           0       -6.600456   -0.093127    1.103677
    113          1           0       -6.129878   -1.488292    2.183622
    114          1           0       -8.737713   -2.078516    1.153856
    115          1           0       -9.357884   -2.655106    3.302702
    116          1           0       -9.067226   -1.102104    3.888045
    117          1           0       -7.727312   -2.268818    3.724726
    118          1           0       -8.576306    0.747307    1.030132
    119          1           0       -9.374574    0.485239    2.461856
    120          1           0      -10.040680   -1.204433   -0.125848
    121          1           0      -10.580656    0.438377   -0.126853
    122          1           0      -11.214660   -1.074158    2.310529
    123          1           0      -12.172809   -1.649807    0.958382
    124          1           0      -12.129831    1.329870    1.422437
    125          1           0      -14.202585   -0.539403    2.611198
    126          1           0      -13.891248    1.228739    2.755937
    127          1           0      -12.657865    0.075340    3.388965
    128          1           0      -14.410324   -0.218686    0.291837
    129          1           0      -13.028414   -0.136097   -0.758141
    130          1           0      -12.965432    2.222050   -0.793656
    131          1           0      -14.131655    2.368435    0.462249
    132          1           0      -15.561403    0.829079   -1.449922
    133          1           0      -14.567021    1.785573   -2.475379
    134          1           0      -15.647136    3.511990   -0.484138
    135          1           0      -17.751851    1.674002   -1.188812
    136          1           0      -17.976341    3.011190   -2.244248
    137          1           0      -17.860985    3.229871   -0.418512
    138          1           0      -15.400126    5.022147   -2.015252
    139          1           0      -16.504590    4.293253   -3.044546
    140          1           0      -14.850710    3.695896   -3.214142
 ---------------------------------------------------------------------

 SCF Done:  E(RCAM-B3LYP) =  -3007.14501103     A.U. after   18 cycles

 Excitation energies and oscillator strengths:

 Excited State   1:      Singlet-A      1.8162 eV  682.67 nm  f=0.3924  <S**2>=0.000
     245 -> 248        0.16824
     246 -> 247        0.68662
 This state for optimization and/or second-order correction.
 Total Energy, E(TD-HF/TD-DFT) =  -3007.07826805
 Copying the excited state density for this state as the 1-particle RhoCI density.

 Excited State   2:      Singlet-A      2.2103 eV  560.94 nm  f=0.1553  <S**2>=0.000
     245 -> 247        0.65765
     246 -> 248       -0.23834

 Excited State   3:      Singlet-A      3.3619 eV  368.79 nm  f=0.0045  <S**2>=0.000
     241 -> 247        0.57035
     244 -> 247       -0.33647
     246 -> 248        0.15881

 Excited State   4:      Singlet-A      3.4880 eV  355.46 nm  f=0.0033  <S**2>=0.000
     243 -> 247        0.50874
     243 -> 248       -0.24311
     243 -> 249        0.21214
     243 -> 250       -0.29740

 Excited State   5:      Singlet-A      3.5074 eV  353.50 nm  f=0.0030  <S**2>=0.000
     239 -> 247        0.51435
     239 -> 249       -0.28454
     240 -> 247        0.10595
     244 -> 247        0.29999

 The electronic state is 1-A.
 Alpha  occ. eigenvalues --  -46.89014 -19.26166 -19.25997 -19.21043 -19.20518
 Alpha  occ. eigenvalues --  -19.19875 -19.16902 -14.41812 -14.41489 -14.38848
 Alpha  occ. eigenvalues --  -14.38438 -10.40269 -10.39757 -10.35693 -10.33815
 Alpha  occ. eigenvalues --  -10.32452 -10.31428 -10.30770 -10.30216 -10.30029
 Alpha  occ. eigenvalues --  -10.29961 -10.29501 -10.28875 -10.28496 -10.28408
 Alpha  occ. eigenvalues --  -10.28242 -10.28213 -10.27940 -10.27718 -10.27599
 Alpha  occ. eigenvalues --  -10.27546 -10.27061 -10.27041 -10.26811 -10.26741
 Alpha  occ. eigenvalues --  -10.26541 -10.26511 -10.26497 -10.26221 -10.26184
 Alpha  occ. eigenvalues --  -10.26131 -10.26107 -10.26040 -10.25969 -10.25677
 Alpha  occ. eigenvalues --  -10.25670 -10.25631 -10.25622 -10.25577 -10.25434
 Alpha  occ. eigenvalues --  -10.25379 -10.25358 -10.25341 -10.25182 -10.25139
 Alpha  occ. eigenvalues --  -10.25105 -10.24990 -10.24901 -10.24836 -10.24745
 Alpha  occ. eigenvalues --  -10.24697 -10.24687 -10.24600 -10.24505 -10.24292
 Alpha  occ. eigenvalues --  -10.24177  -3.17410  -1.92332  -1.91860  -1.91698
 Alpha  occ. eigenvalues --   -1.17030  -1.15971  -1.10692  -1.09103  -1.08197
 Alpha  occ. eigenvalues --   -1.06831  -1.05718  -1.04497  -1.03204  -1.02308
 Alpha  occ. eigenvalues --   -0.93166  -0.91549  -0.90391  -0.90239  -0.90009
 Alpha  occ. eigenvalues --   -0.89053  -0.87930  -0.87497  -0.87414  -0.86592
 Alpha  occ. eigenvalues --   -0.85757  -0.85232  -0.84597  -0.83699  -0.83025
 Alpha  occ. eigenvalues --   -0.82392  -0.81600  -0.80970  -0.80222  -0.80090
 Alpha  occ. eigenvalues --   -0.79329  -0.78374  -0.77752  -0.77248  -0.76255
 Alpha  occ. eigenvalues --   -0.76104  -0.75352  -0.75127  -0.75039  -0.74422
 Alpha  occ. eigenvalues --   -0.73449  -0.72919  -0.71466  -0.70483  -0.70448
 Alpha  occ. eigenvalues --   -0.68458  -0.68201  -0.66887  -0.66399  -0.65590
 Alpha  occ. eigenvalues --   -0.65518  -0.65367  -0.64735  -0.64582  -0.64383
 Alpha  occ. eigenvalues --   -0.64067  -0.63669  -0.62320  -0.62198  -0.60134
 Alpha  occ. eigenvalues --   -0.59817  -0.59327  -0.59033  -0.58646  -0.57763
 Alpha  occ. eigenvalues --   -0.57146  -0.56642  -0.56320  -0.55967  -0.55811
 Alpha  occ. eigenvalues --   -0.55423  -0.55089  -0.54780  -0.54337  -0.54131
 Alpha  occ. eigenvalues --   -0.53893  -0.53586  -0.53415  -0.53258  -0.53062
 Alpha  occ. eigenvalues --   -0.52897  -0.52450  -0.52360  -0.51919  -0.51717
 Alpha  occ. eigenvalues --   -0.51427  -0.51400  -0.50948  -0.50818  -0.50717
 Alpha  occ. eigenvalues --   -0.50217  -0.49915  -0.49782  -0.49660  -0.49355
 Alpha  occ. eigenvalues --   -0.49188  -0.48979  -0.48812  -0.48592  -0.48337
 Alpha  occ. eigenvalues --   -0.48272  -0.48206  -0.47979  -0.47812  -0.47657
 Alpha  occ. eigenvalues --   -0.47331  -0.47112  -0.46937  -0.46689  -0.46439
 Alpha  occ. eigenvalues --   -0.46288  -0.46220  -0.46122  -0.45926  -0.45527
 Alpha  occ. eigenvalues --   -0.45436  -0.45359  -0.45081  -0.44843  -0.44772
 Alpha  occ. eigenvalues --   -0.44677  -0.44553  -0.44353  -0.44277  -0.43885
 Alpha  occ. eigenvalues --   -0.43811  -0.43646  -0.43584  -0.43283  -0.43062
 Alpha  occ. eigenvalues --   -0.42823  -0.42709  -0.42558  -0.42479  -0.42162
 Alpha  occ. eigenvalues --   -0.41942  -0.41834  -0.41714  -0.41256  -0.40953
 Alpha  occ. eigenvalues --   -0.40801  -0.40363  -0.40213  -0.40169  -0.39872
 Alpha  occ. eigenvalues --   -0.39480  -0.39201  -0.39148  -0.38990  -0.38840
 Alpha  occ. eigenvalues --   -0.38226  -0.37860  -0.37421  -0.37389  -0.37362
 Alpha  occ. eigenvalues --   -0.37215  -0.37108  -0.36942  -0.36723  -0.36500
 Alpha  occ. eigenvalues --   -0.36274  -0.36087  -0.35508  -0.34790  -0.34368
 Alpha  occ. eigenvalues --   -0.34115  -0.33871  -0.32762  -0.31415  -0.31202
 Alpha  occ. eigenvalues --   -0.30070  -0.29935  -0.29417  -0.28808  -0.23519
 Alpha  occ. eigenvalues --   -0.21218
 Alpha virt. eigenvalues --   -0.08375  -0.00973   0.00619   0.02615   0.02854
 Alpha virt. eigenvalues --    0.04349   0.05250   0.05865   0.05938   0.07465
 Alpha virt. eigenvalues --    0.07856   0.08619   0.08909   0.09167   0.09299

 Mulliken charges:
               1
     1  Mg   0.809721
     2  C    0.004258
     3  C   -0.066026
     4  C   -0.028267
     5  C   -0.084385
     6  N   -0.267344
     7  C   -0.052393
     8  C   -0.153258
     9  C    0.047826
    10  C    0.039274
    11  C    0.087878
    12  C    0.120695
    13  C    0.052686
    14  C    0.148776
    15  O   -0.208089
    16  O   -0.343590
    17  N   -0.376501
    18  C    0.082148
    19  C   -0.165460
    20  C   -0.007192
    21  C    0.141738
    22  C    0.115109
    23  C   -0.005762
    24  O   -0.251705
    25  C    0.036069
    26  N   -0.242538
    27  C   -0.013192
    28  C   -0.051252
    29  C    0.019748
    30  C   -0.038176
    31  C    0.097260
    32  C    0.029602
    33  C    0.072702
    34  N   -0.314179
    35  C    0.101350
    36  C   -0.153616
    37  C   -0.057079
    38  C    0.131580
    39  C    0.115814
    40  C    0.100118
    41  O   -0.147681
    42  C   -0.037735
    43  C    0.220019
    44  O   -0.219283
    45  O   -0.312730
    46  C    0.177612
    47  C    0.258871
    48  C   -0.118994
    49  C   -0.213248
    50  C    0.084624
    51  C    0.063879
    52  C   -0.016068
    53  C    0.077037
    54  C   -0.093665
    55  C    0.058356
    56  C    0.048778
    57  C    0.007045
    58  C    0.038808
    59  C   -0.131230
    60  C    0.079194
    61  C    0.039947
    62  C   -0.007924
    63  C    0.075195
    64  C   -0.175936
    65  C    0.033201
    66  C    0.060285
    67  H   -0.040303
    68  H   -0.000168
    69  H   -0.022152
    70  H    0.053777
    71  H   -0.009889
    72  H    0.029908
    73  H    0.025654
    74  H   -0.003846
    75  H    0.009159
    76  H    0.033176
    77  H    0.021517
    78  H    0.027353
    79  H    0.042926
    80  H    0.002217
    81  H    0.018680
    82  H    0.035313
    83  H    0.025205
    84  H    0.023579
    85  H    0.004657
    86  H   -0.002791
    87  H    0.024421
    88  H    0.028199
    89  H   -0.010098
    90  H   -0.016884
    91  H   -0.016990
    92  H    0.023828
    93  H    0.023643
    94  H    0.015594
    95  H    0.004467
    96  H    0.041941
    97  H    0.037524
    98  H    0.041695
    99  H    0.048966
   100  H    0.029175
   101  H    0.028780
   102  H    0.041448
   103  H    0.053179
   104  H   -0.006826
   105  H    0.017946
   106  H    0.035734
   107  H    0.001906
   108  H   -0.006033
   109  H    0.009386
   110  H   -0.006708
   111  H   -0.007896
   112  H    0.005054
   113  H   -0.002463
   114  H    0.006191
   115  H    0.007331
   116  H    0.000273
   117  H    0.004932
   118  H   -0.009032
   119  H   -0.005064
   120  H   -0.004670
   121  H   -0.009431
   122  H   -0.021818
   123  H   -0.010340
   124  H   -0.015337
   125  H    0.012289
   126  H    0.000722
   127  H    0.007506
   128  H   -0.011573
   129  H   -0.005690
   130  H   -0.001900
   131  H   -0.003758
   132  H   -0.008283
   133  H   -0.013885
   134  H    0.000036
   135  H    0.001741
   136  H    0.011522
   137  H    0.017493
   138  H    0.008522
   139  H   -0.009010
   140  H    0.015568
 Sum of Mulliken charges =  -0.00000

 Dipole moment (field-independent basis, Debye):
    X=             -3.1805    Y=             -0.4113    Z=              1.8769  Tot=              3.7159
 Quadrupole moment (field-independent basis, Debye-Ang):
   XX=           -369.8843   YY=           -435.3746   ZZ=           -403.1028
   XY=              5.9647   XZ=             14.7383   YZ=              1.7686

 Normal termination of Gaussian 16 at Thu May  5 14:45:43 2022.
