 Gaussian 16, Revision A.03,
 Gaussian 16:  ES64L-G16RevA.03 25-Dec-2016

 ---------------------------------
 #p PBE1PBE/Def2SVP td=(nstates=5)
 ---------------------------------

 -----------------------------------------------------
 step_951_chromophore_18 TDDFT with PBE1PBE functional
 -----------------------------------------------------
 Symbolic Z-matrix:
 Charge =  0 Multiplicity = 1

                         Standard orientation:
 ---------------------------------------------------------------------
 Center     Atomic      Atomic             Coordinates (Angstroms)
 Number     Number       Type             X           Y           Z
 ---------------------------------------------------------------------
      1         12           0        5.363181    1.192942    0.390874
      2          6           0        4.649407   -2.276634    0.050488
      3          6           0        2.016771    1.762507    0.029569
      4          6           0        6.213579    4.379303    0.075357
      5          6           0        8.726201    0.316327    0.225046
      6          7           0        3.554910   -0.121308    0.089335
      7          6           0        3.511921   -1.449549    0.215959
      8          6           0        2.038345   -2.004637    0.250589
      9          6           0        1.221148   -0.707549    0.170626
     10          6           0        2.281184    0.423752    0.172833
     11          6           0        0.202994   -0.583465   -1.048969
     12          6           0        1.963782   -2.860939    1.536192
     13          6           0        1.225118   -4.161537    1.315299
     14          6           0        0.138287   -4.262196    0.195123
     15          8           0        0.380711   -4.627754   -0.924689
     16          8           0       -1.104027   -3.798355    0.613373
     17          7           0        4.232532    2.890458    0.145629
     18          6           0        2.898395    2.954127   -0.011591
     19          6           0        2.492468    4.315537   -0.079811
     20          6           0        3.722743    5.054599   -0.164363
     21          6           0        4.816225    4.111631   -0.025999
     22          6           0        1.008406    4.737184   -0.282769
     23          6           0        3.927448    6.477191   -0.495780
     24          8           0        5.101322    6.901286   -0.633621
     25          6           0        2.788350    7.519103   -0.671228
     26          7           0        7.245027    2.184885    0.337803
     27          6           0        7.304962    3.528308    0.183677
     28          6           0        8.818121    3.953673   -0.056455
     29          6           0        9.535716    2.657746    0.353952
     30          6           0        8.439669    1.685365    0.246496
     31          6           0        9.155941    4.538023   -1.415674
     32          6           0       10.266910    2.566177    1.609719
     33          6           0        9.930493    1.777138    2.890259
     34          7           0        6.530040   -0.650267    0.243335
     35          6           0        7.897727   -0.809862    0.161267
     36          6           0        8.170118   -2.203559   -0.093187
     37          6           0        6.908194   -2.798150   -0.119645
     38          6           0        5.940176   -1.816737    0.021238
     39          6           0        9.457605   -2.868737   -0.275857
     40          6           0        6.229872   -4.138729   -0.273031
     41          8           0        6.587441   -5.301807   -0.356635
     42          6           0        4.779766   -3.780646   -0.119886
     43          6           0        3.943957   -4.253897   -1.351902
     44          8           0        3.766225   -3.538186   -2.329954
     45          8           0        3.602422   -5.574353   -1.160155
     46          6           0        3.118146   -6.155158   -2.437032
     47          6           0       -2.074794   -3.595057   -0.478969
     48          6           0       -3.021682   -2.439290   -0.240381
     49          6           0       -4.125572   -2.153113   -0.922954
     50          6           0       -4.582188   -2.909207   -2.128763
     51          6           0       -5.187014   -1.157652   -0.418526
     52          6           0       -6.359751   -1.870920    0.322192
     53          6           0       -6.832282   -1.102040    1.445049
     54          6           0       -8.375760   -1.312731    1.839986
     55          6           0       -8.615634   -1.857841    3.245947
     56          6           0       -9.132246   -0.040405    1.538650
     57          6           0      -10.315772   -0.384064    0.537782
     58          6           0      -11.617684   -0.791952    1.337342
     59          6           0      -12.637328    0.366076    1.384466
     60          6           0      -13.442166    0.240616    2.650332
     61          6           0      -13.502007    0.349900    0.094599
     62          6           0      -13.874142    1.761353   -0.405072
     63          6           0      -15.005872    1.766544   -1.476701
     64          6           0      -15.914604    3.015560   -1.418272
     65          6           0      -17.490969    2.725397   -1.311494
     66          6           0      -15.588171    4.065379   -2.501045
     67          1           0        0.969473    2.071474    0.040698
     68          1           0        6.610003    5.391622   -0.022176
     69          1           0        9.721144    0.113666   -0.176180
     70          1           0        1.873780   -2.570923   -0.666664
     71          1           0        0.779248   -0.639803    1.164422
     72          1           0        0.638078   -0.343159   -2.018609
     73          1           0       -0.587176    0.109987   -0.761656
     74          1           0       -0.235871   -1.564157   -1.234730
     75          1           0        1.311977   -2.329685    2.229708
     76          1           0        2.965793   -3.074831    1.905657
     77          1           0        0.722952   -4.503128    2.220345
     78          1           0        1.971614   -4.917320    1.068623
     79          1           0        0.664637    4.526138   -1.295602
     80          1           0        0.883031    5.776912    0.021481
     81          1           0        0.432655    4.156989    0.438054
     82          1           0        2.118288    7.611268    0.183858
     83          1           0        2.117108    7.268299   -1.492618
     84          1           0        3.194012    8.503105   -0.910147
     85          1           0        8.989432    4.798210    0.610838
     86          1           0       10.219314    2.335519   -0.431661
     87          1           0        9.803889    5.403006   -1.276437
     88          1           0        8.312010    4.663403   -2.094535
     89          1           0        9.720082    3.781872   -1.959886
     90          1           0       10.537152    3.599520    1.830308
     91          1           0       11.271586    2.302077    1.280386
     92          1           0       10.568080    0.893092    2.913355
     93          1           0        8.870772    1.522401    2.900676
     94          1           0       10.055651    2.414730    3.765469
     95          1           0       10.287865   -2.474170    0.309194
     96          1           0        9.735175   -2.755904   -1.324167
     97          1           0        9.435957   -3.869981    0.153696
     98          1           0        4.475443   -4.368688    0.745420
     99          1           0        2.132593   -6.015086   -2.882450
    100          1           0        3.243195   -7.232090   -2.324156
    101          1           0        3.773486   -5.821480   -3.241663
    102          1           0       -2.768720   -4.417009   -0.658707
    103          1           0       -1.608562   -3.312304   -1.422130
    104          1           0       -2.942987   -1.987926    0.747854
    105          1           0       -4.588809   -2.210770   -2.966044
    106          1           0       -5.569906   -3.326297   -1.935580
    107          1           0       -3.817154   -3.608839   -2.465955
    108          1           0       -5.662623   -0.731886   -1.301447
    109          1           0       -4.684402   -0.365817    0.136416
    110          1           0       -5.997405   -2.848914    0.638595
    111          1           0       -7.059727   -2.134837   -0.470363
    112          1           0       -6.600456   -0.093127    1.103677
    113          1           0       -6.129878   -1.488292    2.183622
    114          1           0       -8.737713   -2.078516    1.153856
    115          1           0       -9.357884   -2.655106    3.302702
    116          1           0       -9.067226   -1.102104    3.888045
    117          1           0       -7.727312   -2.268818    3.724726
    118          1           0       -8.576306    0.747307    1.030132
    119          1           0       -9.374574    0.485239    2.461856
    120          1           0      -10.040680   -1.204433   -0.125848
    121          1           0      -10.580656    0.438377   -0.126853
    122          1           0      -11.214660   -1.074158    2.310529
    123          1           0      -12.172809   -1.649807    0.958382
    124          1           0      -12.129831    1.329870    1.422437
    125          1           0      -14.202585   -0.539403    2.611198
    126          1           0      -13.891248    1.228739    2.755937
    127          1           0      -12.657865    0.075340    3.388965
    128          1           0      -14.410324   -0.218686    0.291837
    129          1           0      -13.028414   -0.136097   -0.758141
    130          1           0      -12.965432    2.222050   -0.793656
    131          1           0      -14.131655    2.368435    0.462249
    132          1           0      -15.561403    0.829079   -1.449922
    133          1           0      -14.567021    1.785573   -2.475379
    134          1           0      -15.647136    3.511990   -0.484138
    135          1           0      -17.751851    1.674002   -1.188812
    136          1           0      -17.976341    3.011190   -2.244248
    137          1           0      -17.860985    3.229871   -0.418512
    138          1           0      -15.400126    5.022147   -2.015252
    139          1           0      -16.504590    4.293253   -3.044546
    140          1           0      -14.850710    3.695896   -3.214142
 ---------------------------------------------------------------------

 SCF Done:  E(RPBE1PBE) =  -3005.33318187     A.U. after   15 cycles

 Excitation energies and oscillator strengths:

 Excited State   1:      Singlet-A      1.9138 eV  647.85 nm  f=0.3815  <S**2>=0.000
     245 -> 248       -0.16380
     246 -> 247        0.69196
     246 <- 247       -0.10059
 This state for optimization and/or second-order correction.
 Total Energy, E(TD-HF/TD-DFT) =  -3005.26285163
 Copying the excited state density for this state as the 1-particle RhoCI density.

 Excited State   2:      Singlet-A      2.2003 eV  563.48 nm  f=0.1374  <S**2>=0.000
     245 -> 247        0.66626
     246 -> 248        0.21082

 Excited State   3:      Singlet-A      2.8855 eV  429.67 nm  f=0.0001  <S**2>=0.000
     244 -> 247        0.67274
     244 -> 248        0.13682
     244 -> 249        0.10406
     244 -> 250        0.11804

 Excited State   4:      Singlet-A      3.0422 eV  407.55 nm  f=0.0016  <S**2>=0.000
     241 -> 247       -0.25813
     243 -> 247        0.64578

 Excited State   5:      Singlet-A      3.0912 eV  401.09 nm  f=0.0006  <S**2>=0.000
     240 -> 247        0.62962
     240 -> 249       -0.16824
     241 -> 247        0.17691
     243 -> 247        0.17478

 The electronic state is 1-A.
 Alpha  occ. eigenvalues --  -46.92400 -19.26829 -19.26527 -19.21244 -19.20627
 Alpha  occ. eigenvalues --  -19.19731 -19.17507 -14.41324 -14.40927 -14.38718
 Alpha  occ. eigenvalues --  -14.37947 -10.37287 -10.36671 -10.32512 -10.31282
 Alpha  occ. eigenvalues --  -10.29884 -10.28859 -10.27926 -10.27906 -10.27612
 Alpha  occ. eigenvalues --  -10.27532 -10.27254 -10.27038 -10.26726 -10.25782
 Alpha  occ. eigenvalues --  -10.25685 -10.25541 -10.25433 -10.25257 -10.25235
 Alpha  occ. eigenvalues --  -10.25056 -10.25013 -10.24934 -10.24794 -10.24406
 Alpha  occ. eigenvalues --  -10.24364 -10.24249 -10.24209 -10.23780 -10.23692
 Alpha  occ. eigenvalues --  -10.23583 -10.23575 -10.23568 -10.23529 -10.23386
 Alpha  occ. eigenvalues --  -10.23303 -10.23247 -10.23182 -10.23126 -10.22955
 Alpha  occ. eigenvalues --  -10.22944 -10.22938 -10.22876 -10.22794 -10.22754
 Alpha  occ. eigenvalues --  -10.22730 -10.22526 -10.22449 -10.22427 -10.22270
 Alpha  occ. eigenvalues --  -10.22162 -10.22160 -10.22113 -10.22089 -10.21700
 Alpha  occ. eigenvalues --  -10.21569  -3.14382  -1.87245  -1.86749  -1.86593
 Alpha  occ. eigenvalues --   -1.11794  -1.10599  -1.05102  -1.03947  -1.02891
 Alpha  occ. eigenvalues --   -1.01868  -1.00304  -0.98911  -0.97911  -0.97241
 Alpha  occ. eigenvalues --   -0.87306  -0.85695  -0.84664  -0.84366  -0.84128
 Alpha  occ. eigenvalues --   -0.83196  -0.82254  -0.81635  -0.81532  -0.80893
 Alpha  occ. eigenvalues --   -0.79969  -0.79776  -0.78935  -0.77889  -0.77382
 Alpha  occ. eigenvalues --   -0.76565  -0.75842  -0.75221  -0.74515  -0.74245
 Alpha  occ. eigenvalues --   -0.73645  -0.72568  -0.71981  -0.71696  -0.70434
 Alpha  occ. eigenvalues --   -0.70267  -0.69770  -0.69236  -0.69187  -0.68610
 Alpha  occ. eigenvalues --   -0.67766  -0.67343  -0.65882  -0.64798  -0.64769
 Alpha  occ. eigenvalues --   -0.62818  -0.62454  -0.61527  -0.60654  -0.60008
 Alpha  occ. eigenvalues --   -0.59961  -0.59658  -0.59134  -0.58893  -0.58876
 Alpha  occ. eigenvalues --   -0.58550  -0.57820  -0.56648  -0.56524  -0.54545
 Alpha  occ. eigenvalues --   -0.54263  -0.53839  -0.53648  -0.53130  -0.52105
 Alpha  occ. eigenvalues --   -0.51771  -0.51033  -0.50829  -0.50420  -0.50301
 Alpha  occ. eigenvalues --   -0.49893  -0.49539  -0.49254  -0.48998  -0.48618
 Alpha  occ. eigenvalues --   -0.48325  -0.48118  -0.47835  -0.47788  -0.47525
 Alpha  occ. eigenvalues --   -0.47417  -0.46885  -0.46772  -0.46474  -0.46297
 Alpha  occ. eigenvalues --   -0.45983  -0.45927  -0.45493  -0.45350  -0.45317
 Alpha  occ. eigenvalues --   -0.44797  -0.44395  -0.44304  -0.44218  -0.43953
 Alpha  occ. eigenvalues --   -0.43725  -0.43569  -0.43447  -0.43181  -0.43024
 Alpha  occ. eigenvalues --   -0.42917  -0.42844  -0.42678  -0.42496  -0.42448
 Alpha  occ. eigenvalues --   -0.41991  -0.41792  -0.41522  -0.41306  -0.41218
 Alpha  occ. eigenvalues --   -0.41079  -0.40911  -0.40715  -0.40589  -0.40266
 Alpha  occ. eigenvalues --   -0.40236  -0.39993  -0.39838  -0.39587  -0.39498
 Alpha  occ. eigenvalues --   -0.39311  -0.39258  -0.38996  -0.38970  -0.38569
 Alpha  occ. eigenvalues --   -0.38417  -0.38355  -0.38253  -0.37930  -0.37778
 Alpha  occ. eigenvalues --   -0.37662  -0.37440  -0.37391  -0.37275  -0.36976
 Alpha  occ. eigenvalues --   -0.36852  -0.36787  -0.36661  -0.36027  -0.35803
 Alpha  occ. eigenvalues --   -0.35564  -0.35346  -0.35098  -0.34995  -0.34759
 Alpha  occ. eigenvalues --   -0.34333  -0.34095  -0.33937  -0.33924  -0.33638
 Alpha  occ. eigenvalues --   -0.33110  -0.32640  -0.32320  -0.32261  -0.32205
 Alpha  occ. eigenvalues --   -0.32027  -0.31957  -0.31776  -0.31719  -0.31536
 Alpha  occ. eigenvalues --   -0.31150  -0.31128  -0.30469  -0.29568  -0.29137
 Alpha  occ. eigenvalues --   -0.29089  -0.29030  -0.28357  -0.26841  -0.25987
 Alpha  occ. eigenvalues --   -0.25444  -0.25225  -0.24793  -0.24467  -0.20427
 Alpha  occ. eigenvalues --   -0.18745
 Alpha virt. eigenvalues --   -0.10883  -0.04644  -0.03505  -0.01789  -0.00343
 Alpha virt. eigenvalues --    0.00140   0.00770   0.01470   0.02002   0.03648
 Alpha virt. eigenvalues --    0.03937   0.05073   0.05280   0.05577   0.05899

 Mulliken charges:
               1
     1  Mg   0.953285
     2  C    0.000483
     3  C   -0.064342
     4  C   -0.030396
     5  C   -0.066440
     6  N   -0.368804
     7  C    0.016822
     8  C   -0.222123
     9  C   -0.028812
    10  C    0.077728
    11  C    0.017839
    12  C    0.069387
    13  C   -0.020798
    14  C    0.210179
    15  O   -0.239473
    16  O   -0.374085
    17  N   -0.496715
    18  C    0.115375
    19  C   -0.182727
    20  C   -0.067516
    21  C    0.182791
    22  C    0.052774
    23  C    0.043724
    24  O   -0.283689
    25  C   -0.033702
    26  N   -0.351508
    27  C    0.029075
    28  C   -0.133594
    29  C   -0.059883
    30  C   -0.003708
    31  C    0.040996
    32  C   -0.019088
    33  C   -0.006264
    34  N   -0.438273
    35  C    0.123279
    36  C   -0.187525
    37  C   -0.099694
    38  C    0.180633
    39  C    0.067153
    40  C    0.197789
    41  O   -0.198147
    42  C   -0.140352
    43  C    0.300521
    44  O   -0.251574
    45  O   -0.343400
    46  C    0.121569
    47  C    0.215619
    48  C   -0.124841
    49  C   -0.259798
    50  C    0.020434
    51  C   -0.002969
    52  C   -0.069391
    53  C    0.016706
    54  C   -0.179299
    55  C   -0.000260
    56  C   -0.003017
    57  C   -0.061565
    58  C   -0.015537
    59  C   -0.220753
    60  C    0.017554
    61  C   -0.009533
    62  C   -0.072736
    63  C    0.022098
    64  C   -0.266983
    65  C   -0.027129
    66  C    0.000533
    67  H   -0.006738
    68  H    0.032259
    69  H    0.008216
    70  H    0.094017
    71  H    0.028886
    72  H    0.057249
    73  H    0.052101
    74  H    0.035153
    75  H    0.040342
    76  H    0.067019
    77  H    0.053283
    78  H    0.062429
    79  H    0.072007
    80  H    0.033249
    81  H    0.047432
    82  H    0.061264
    83  H    0.052591
    84  H    0.052057
    85  H    0.041390
    86  H    0.034620
    87  H    0.051515
    88  H    0.055201
    89  H    0.019549
    90  H    0.015587
    91  H    0.015649
    92  H    0.050909
    93  H    0.054458
    94  H    0.043169
    95  H    0.029792
    96  H    0.067887
    97  H    0.062519
    98  H    0.078114
    99  H    0.069952
   100  H    0.051308
   101  H    0.051043
   102  H    0.069081
   103  H    0.077007
   104  H    0.023122
   105  H    0.046814
   106  H    0.063086
   107  H    0.029368
   108  H    0.028892
   109  H    0.039434
   110  H    0.027439
   111  H    0.023257
   112  H    0.037691
   113  H    0.030573
   114  H    0.044647
   115  H    0.034270
   116  H    0.026556
   117  H    0.032559
   118  H    0.023395
   119  H    0.026292
   120  H    0.028120
   121  H    0.023710
   122  H    0.014941
   123  H    0.022214
   124  H    0.022635
   125  H    0.039189
   126  H    0.029733
   127  H    0.036084
   128  H    0.020724
   129  H    0.027095
   130  H    0.031249
   131  H    0.029072
   132  H    0.023144
   133  H    0.019528
   134  H    0.038906
   135  H    0.028815
   136  H    0.037730
   137  H    0.044464
   138  H    0.035756
   139  H    0.018563
   140  H    0.041468
 Sum of Mulliken charges =  -0.00000

 Dipole moment (field-independent basis, Debye):
    X=             -3.5616    Y=              0.3531    Z=              1.8545  Tot=              4.0310
 Quadrupole moment (field-independent basis, Debye-Ang):
   XX=           -368.3974   YY=           -431.0575   ZZ=           -400.6273
   XY=             10.2751   XZ=             14.7255   YZ=              1.5563

 Normal termination of Gaussian 16 at Thu May  5 15:24:53 2022.
