 Gaussian 16, Revision A.03,
 Gaussian 16:  ES64L-G16RevA.03 25-Dec-2016

 --------------------------------
 #p wB97XD/Def2SVP td=(nstates=5)
 --------------------------------

 ----------------------------------------------------
 step_951_chromophore_18 TDDFT with wB97XD functional
 ----------------------------------------------------
 Symbolic Z-matrix:
 Charge =  0 Multiplicity = 1

                         Standard orientation:
 ---------------------------------------------------------------------
 Center     Atomic      Atomic             Coordinates (Angstroms)
 Number     Number       Type             X           Y           Z
 ---------------------------------------------------------------------
      1         12           0        5.363181    1.192942    0.390874
      2          6           0        4.649407   -2.276634    0.050488
      3          6           0        2.016771    1.762507    0.029569
      4          6           0        6.213579    4.379303    0.075357
      5          6           0        8.726201    0.316327    0.225046
      6          7           0        3.554910   -0.121308    0.089335
      7          6           0        3.511921   -1.449549    0.215959
      8          6           0        2.038345   -2.004637    0.250589
      9          6           0        1.221148   -0.707549    0.170626
     10          6           0        2.281184    0.423752    0.172833
     11          6           0        0.202994   -0.583465   -1.048969
     12          6           0        1.963782   -2.860939    1.536192
     13          6           0        1.225118   -4.161537    1.315299
     14          6           0        0.138287   -4.262196    0.195123
     15          8           0        0.380711   -4.627754   -0.924689
     16          8           0       -1.104027   -3.798355    0.613373
     17          7           0        4.232532    2.890458    0.145629
     18          6           0        2.898395    2.954127   -0.011591
     19          6           0        2.492468    4.315537   -0.079811
     20          6           0        3.722743    5.054599   -0.164363
     21          6           0        4.816225    4.111631   -0.025999
     22          6           0        1.008406    4.737184   -0.282769
     23          6           0        3.927448    6.477191   -0.495780
     24          8           0        5.101322    6.901286   -0.633621
     25          6           0        2.788350    7.519103   -0.671228
     26          7           0        7.245027    2.184885    0.337803
     27          6           0        7.304962    3.528308    0.183677
     28          6           0        8.818121    3.953673   -0.056455
     29          6           0        9.535716    2.657746    0.353952
     30          6           0        8.439669    1.685365    0.246496
     31          6           0        9.155941    4.538023   -1.415674
     32          6           0       10.266910    2.566177    1.609719
     33          6           0        9.930493    1.777138    2.890259
     34          7           0        6.530040   -0.650267    0.243335
     35          6           0        7.897727   -0.809862    0.161267
     36          6           0        8.170118   -2.203559   -0.093187
     37          6           0        6.908194   -2.798150   -0.119645
     38          6           0        5.940176   -1.816737    0.021238
     39          6           0        9.457605   -2.868737   -0.275857
     40          6           0        6.229872   -4.138729   -0.273031
     41          8           0        6.587441   -5.301807   -0.356635
     42          6           0        4.779766   -3.780646   -0.119886
     43          6           0        3.943957   -4.253897   -1.351902
     44          8           0        3.766225   -3.538186   -2.329954
     45          8           0        3.602422   -5.574353   -1.160155
     46          6           0        3.118146   -6.155158   -2.437032
     47          6           0       -2.074794   -3.595057   -0.478969
     48          6           0       -3.021682   -2.439290   -0.240381
     49          6           0       -4.125572   -2.153113   -0.922954
     50          6           0       -4.582188   -2.909207   -2.128763
     51          6           0       -5.187014   -1.157652   -0.418526
     52          6           0       -6.359751   -1.870920    0.322192
     53          6           0       -6.832282   -1.102040    1.445049
     54          6           0       -8.375760   -1.312731    1.839986
     55          6           0       -8.615634   -1.857841    3.245947
     56          6           0       -9.132246   -0.040405    1.538650
     57          6           0      -10.315772   -0.384064    0.537782
     58          6           0      -11.617684   -0.791952    1.337342
     59          6           0      -12.637328    0.366076    1.384466
     60          6           0      -13.442166    0.240616    2.650332
     61          6           0      -13.502007    0.349900    0.094599
     62          6           0      -13.874142    1.761353   -0.405072
     63          6           0      -15.005872    1.766544   -1.476701
     64          6           0      -15.914604    3.015560   -1.418272
     65          6           0      -17.490969    2.725397   -1.311494
     66          6           0      -15.588171    4.065379   -2.501045
     67          1           0        0.969473    2.071474    0.040698
     68          1           0        6.610003    5.391622   -0.022176
     69          1           0        9.721144    0.113666   -0.176180
     70          1           0        1.873780   -2.570923   -0.666664
     71          1           0        0.779248   -0.639803    1.164422
     72          1           0        0.638078   -0.343159   -2.018609
     73          1           0       -0.587176    0.109987   -0.761656
     74          1           0       -0.235871   -1.564157   -1.234730
     75          1           0        1.311977   -2.329685    2.229708
     76          1           0        2.965793   -3.074831    1.905657
     77          1           0        0.722952   -4.503128    2.220345
     78          1           0        1.971614   -4.917320    1.068623
     79          1           0        0.664637    4.526138   -1.295602
     80          1           0        0.883031    5.776912    0.021481
     81          1           0        0.432655    4.156989    0.438054
     82          1           0        2.118288    7.611268    0.183858
     83          1           0        2.117108    7.268299   -1.492618
     84          1           0        3.194012    8.503105   -0.910147
     85          1           0        8.989432    4.798210    0.610838
     86          1           0       10.219314    2.335519   -0.431661
     87          1           0        9.803889    5.403006   -1.276437
     88          1           0        8.312010    4.663403   -2.094535
     89          1           0        9.720082    3.781872   -1.959886
     90          1           0       10.537152    3.599520    1.830308
     91          1           0       11.271586    2.302077    1.280386
     92          1           0       10.568080    0.893092    2.913355
     93          1           0        8.870772    1.522401    2.900676
     94          1           0       10.055651    2.414730    3.765469
     95          1           0       10.287865   -2.474170    0.309194
     96          1           0        9.735175   -2.755904   -1.324167
     97          1           0        9.435957   -3.869981    0.153696
     98          1           0        4.475443   -4.368688    0.745420
     99          1           0        2.132593   -6.015086   -2.882450
    100          1           0        3.243195   -7.232090   -2.324156
    101          1           0        3.773486   -5.821480   -3.241663
    102          1           0       -2.768720   -4.417009   -0.658707
    103          1           0       -1.608562   -3.312304   -1.422130
    104          1           0       -2.942987   -1.987926    0.747854
    105          1           0       -4.588809   -2.210770   -2.966044
    106          1           0       -5.569906   -3.326297   -1.935580
    107          1           0       -3.817154   -3.608839   -2.465955
    108          1           0       -5.662623   -0.731886   -1.301447
    109          1           0       -4.684402   -0.365817    0.136416
    110          1           0       -5.997405   -2.848914    0.638595
    111          1           0       -7.059727   -2.134837   -0.470363
    112          1           0       -6.600456   -0.093127    1.103677
    113          1           0       -6.129878   -1.488292    2.183622
    114          1           0       -8.737713   -2.078516    1.153856
    115          1           0       -9.357884   -2.655106    3.302702
    116          1           0       -9.067226   -1.102104    3.888045
    117          1           0       -7.727312   -2.268818    3.724726
    118          1           0       -8.576306    0.747307    1.030132
    119          1           0       -9.374574    0.485239    2.461856
    120          1           0      -10.040680   -1.204433   -0.125848
    121          1           0      -10.580656    0.438377   -0.126853
    122          1           0      -11.214660   -1.074158    2.310529
    123          1           0      -12.172809   -1.649807    0.958382
    124          1           0      -12.129831    1.329870    1.422437
    125          1           0      -14.202585   -0.539403    2.611198
    126          1           0      -13.891248    1.228739    2.755937
    127          1           0      -12.657865    0.075340    3.388965
    128          1           0      -14.410324   -0.218686    0.291837
    129          1           0      -13.028414   -0.136097   -0.758141
    130          1           0      -12.965432    2.222050   -0.793656
    131          1           0      -14.131655    2.368435    0.462249
    132          1           0      -15.561403    0.829079   -1.449922
    133          1           0      -14.567021    1.785573   -2.475379
    134          1           0      -15.647136    3.511990   -0.484138
    135          1           0      -17.751851    1.674002   -1.188812
    136          1           0      -17.976341    3.011190   -2.244248
    137          1           0      -17.860985    3.229871   -0.418512
    138          1           0      -15.400126    5.022147   -2.015252
    139          1           0      -16.504590    4.293253   -3.044546
    140          1           0      -14.850710    3.695896   -3.214142
 ---------------------------------------------------------------------

 SCF Done:  E(RwB97XD) =  -3007.84511994     A.U. after   19 cycles

 Excitation energies and oscillator strengths:

 Excited State   1:      Singlet-A      1.7918 eV  691.95 nm  f=0.3924  <S**2>=0.000
     245 -> 248        0.17135
     246 -> 247        0.68455
     245 <- 248        0.10397
 This state for optimization and/or second-order correction.
 Total Energy, E(TD-HF/TD-DFT) =  -3007.77927255
 Copying the excited state density for this state as the 1-particle RhoCI density.

 Excited State   2:      Singlet-A      2.1611 eV  573.72 nm  f=0.1522  <S**2>=0.000
     245 -> 247        0.65534
     246 -> 248       -0.24017

 Excited State   3:      Singlet-A      3.3571 eV  369.32 nm  f=0.0060  <S**2>=0.000
     240 -> 247        0.11150
     241 -> 247        0.60161
     244 -> 247       -0.24783
     246 -> 248        0.19193

 Excited State   4:      Singlet-A      3.5127 eV  352.96 nm  f=0.0002  <S**2>=0.000
     239 -> 247        0.46119
     239 -> 249       -0.26826
     240 -> 247        0.33859
     240 -> 249       -0.19152
     244 -> 247        0.12677

 Excited State   5:      Singlet-A      3.5289 eV  351.34 nm  f=0.0041  <S**2>=0.000
     243 -> 247        0.47478
     243 -> 248       -0.25584
     243 -> 249        0.23149
     243 -> 250        0.33719

 The electronic state is 1-A.
 Alpha  occ. eigenvalues --  -46.95333 -19.31420 -19.31246 -19.25962 -19.25499
 Alpha  occ. eigenvalues --  -19.25014 -19.21832 -14.46398 -14.46047 -14.43361
 Alpha  occ. eigenvalues --  -14.43071 -10.44108 -10.43677 -10.39797 -10.37692
 Alpha  occ. eigenvalues --  -10.36388 -10.35537 -10.34549 -10.34254 -10.34180
 Alpha  occ. eigenvalues --  -10.33932 -10.33453 -10.32791 -10.32655 -10.32396
 Alpha  occ. eigenvalues --  -10.32360 -10.32298 -10.31970 -10.31717 -10.31636
 Alpha  occ. eigenvalues --  -10.31537 -10.31204 -10.31057 -10.30812 -10.30727
 Alpha  occ. eigenvalues --  -10.30544 -10.30530 -10.30354 -10.30188 -10.30170
 Alpha  occ. eigenvalues --  -10.30050 -10.30040 -10.29969 -10.29919 -10.29838
 Alpha  occ. eigenvalues --  -10.29635 -10.29566 -10.29514 -10.29463 -10.29429
 Alpha  occ. eigenvalues --  -10.29308 -10.29281 -10.29156 -10.29078 -10.29068
 Alpha  occ. eigenvalues --  -10.29002 -10.28893 -10.28814 -10.28767 -10.28616
 Alpha  occ. eigenvalues --  -10.28583 -10.28526 -10.28511 -10.28440 -10.28100
 Alpha  occ. eigenvalues --  -10.27997  -3.21186  -1.94796  -1.94302  -1.94139
 Alpha  occ. eigenvalues --   -1.19203  -1.18172  -1.13017  -1.11321  -1.10430
 Alpha  occ. eigenvalues --   -1.08924  -1.07728  -1.06602  -1.05212  -1.04273
 Alpha  occ. eigenvalues --   -0.95224  -0.93346  -0.92268  -0.92072  -0.91805
 Alpha  occ. eigenvalues --   -0.90843  -0.89890  -0.89455  -0.89182  -0.88512
 Alpha  occ. eigenvalues --   -0.87590  -0.87072  -0.86471  -0.85603  -0.84946
 Alpha  occ. eigenvalues --   -0.84217  -0.83486  -0.82915  -0.82156  -0.81906
 Alpha  occ. eigenvalues --   -0.81198  -0.80318  -0.79638  -0.79106  -0.78101
 Alpha  occ. eigenvalues --   -0.78078  -0.77287  -0.76922  -0.76856  -0.76258
 Alpha  occ. eigenvalues --   -0.75376  -0.74905  -0.73429  -0.72434  -0.72365
 Alpha  occ. eigenvalues --   -0.70458  -0.70090  -0.68824  -0.68264  -0.67501
 Alpha  occ. eigenvalues --   -0.67444  -0.67264  -0.66593  -0.66543  -0.66376
 Alpha  occ. eigenvalues --   -0.66051  -0.65479  -0.64234  -0.64148  -0.62142
 Alpha  occ. eigenvalues --   -0.61783  -0.61295  -0.60964  -0.60615  -0.59759
 Alpha  occ. eigenvalues --   -0.59125  -0.58542  -0.58287  -0.57911  -0.57748
 Alpha  occ. eigenvalues --   -0.57396  -0.56973  -0.56682  -0.56268  -0.56118
 Alpha  occ. eigenvalues --   -0.55815  -0.55551  -0.55265  -0.55195  -0.54941
 Alpha  occ. eigenvalues --   -0.54829  -0.54414  -0.54238  -0.53878  -0.53628
 Alpha  occ. eigenvalues --   -0.53301  -0.53282  -0.52925  -0.52691  -0.52586
 Alpha  occ. eigenvalues --   -0.52100  -0.51873  -0.51719  -0.51552  -0.51234
 Alpha  occ. eigenvalues --   -0.51085  -0.50866  -0.50698  -0.50476  -0.50228
 Alpha  occ. eigenvalues --   -0.50134  -0.50105  -0.49871  -0.49707  -0.49543
 Alpha  occ. eigenvalues --   -0.49264  -0.49012  -0.48883  -0.48549  -0.48379
 Alpha  occ. eigenvalues --   -0.48183  -0.48099  -0.47961  -0.47843  -0.47466
 Alpha  occ. eigenvalues --   -0.47367  -0.47276  -0.46968  -0.46749  -0.46681
 Alpha  occ. eigenvalues --   -0.46617  -0.46473  -0.46295  -0.46194  -0.45854
 Alpha  occ. eigenvalues --   -0.45743  -0.45533  -0.45506  -0.45244  -0.44946
 Alpha  occ. eigenvalues --   -0.44775  -0.44572  -0.44414  -0.44390  -0.44055
 Alpha  occ. eigenvalues --   -0.43832  -0.43785  -0.43577  -0.43111  -0.42833
 Alpha  occ. eigenvalues --   -0.42655  -0.42254  -0.42096  -0.42045  -0.41768
 Alpha  occ. eigenvalues --   -0.41379  -0.41110  -0.40987  -0.40872  -0.40680
 Alpha  occ. eigenvalues --   -0.40144  -0.39691  -0.39309  -0.39266  -0.39249
 Alpha  occ. eigenvalues --   -0.39163  -0.39064  -0.38821  -0.38784  -0.38469
 Alpha  occ. eigenvalues --   -0.38114  -0.37998  -0.37348  -0.36729  -0.36336
 Alpha  occ. eigenvalues --   -0.35963  -0.35872  -0.35004  -0.33488  -0.33418
 Alpha  occ. eigenvalues --   -0.32308  -0.31954  -0.31237  -0.30883  -0.25456
 Alpha  occ. eigenvalues --   -0.23060
 Alpha virt. eigenvalues --   -0.06697   0.00998   0.02642   0.04782   0.05914
 Alpha virt. eigenvalues --    0.06607   0.07376   0.08162   0.08590   0.10053
 Alpha virt. eigenvalues --    0.10577   0.11839   0.12033   0.12354   0.12625

 Mulliken charges:
               1
     1  Mg   0.944733
     2  C   -0.008953
     3  C   -0.073549
     4  C   -0.039138
     5  C   -0.090074
     6  N   -0.336009
     7  C   -0.002075
     8  C   -0.197056
     9  C   -0.003526
    10  C    0.060059
    11  C    0.042237
    12  C    0.078908
    13  C   -0.000196
    14  C    0.197537
    15  O   -0.236177
    16  O   -0.372264
    17  N   -0.460929
    18  C    0.098100
    19  C   -0.180611
    20  C   -0.056932
    21  C    0.164980
    22  C    0.069224
    23  C    0.036564
    24  O   -0.282384
    25  C   -0.023443
    26  N   -0.315570
    27  C    0.007658
    28  C   -0.104870
    29  C   -0.030952
    30  C   -0.009431
    31  C    0.049553
    32  C   -0.015238
    33  C    0.014260
    34  N   -0.401874
    35  C    0.119441
    36  C   -0.172442
    37  C   -0.098751
    38  C    0.167807
    39  C    0.073079
    40  C    0.179565
    41  O   -0.184275
    42  C   -0.103350
    43  C    0.278781
    44  O   -0.245930
    45  O   -0.341547
    46  C    0.136629
    47  C    0.230229
    48  C   -0.136441
    49  C   -0.241044
    50  C    0.033100
    51  C    0.015768
    52  C   -0.055120
    53  C    0.037780
    54  C   -0.151108
    55  C    0.010485
    56  C    0.011015
    57  C   -0.039976
    58  C    0.004349
    59  C   -0.187686
    60  C    0.031245
    61  C   -0.000283
    62  C   -0.050500
    63  C    0.035011
    64  C   -0.238710
    65  C   -0.012727
    66  C    0.013496
    67  H   -0.015973
    68  H    0.027503
    69  H    0.002364
    70  H    0.075997
    71  H    0.017731
    72  H    0.053003
    73  H    0.046979
    74  H    0.013780
    75  H    0.034602
    76  H    0.056692
    77  H    0.049300
    78  H    0.052058
    79  H    0.065701
    80  H    0.024244
    81  H    0.039796
    82  H    0.055668
    83  H    0.046737
    84  H    0.049468
    85  H    0.031812
    86  H    0.022081
    87  H    0.046860
    88  H    0.050665
    89  H    0.010700
    90  H    0.008550
    91  H    0.009115
    92  H    0.045256
    93  H    0.043919
    94  H    0.039443
    95  H    0.026986
    96  H    0.066078
    97  H    0.060916
    98  H    0.069608
    99  H    0.068096
   100  H    0.048365
   101  H    0.045740
   102  H    0.063112
   103  H    0.071857
   104  H    0.019966
   105  H    0.041090
   106  H    0.057561
   107  H    0.023430
   108  H    0.020087
   109  H    0.032595
   110  H    0.016894
   111  H    0.013143
   112  H    0.025257
   113  H    0.021609
   114  H    0.028796
   115  H    0.029173
   116  H    0.019736
   117  H    0.027755
   118  H    0.015566
   119  H    0.016743
   120  H    0.018941
   121  H    0.013856
   122  H   -0.003171
   123  H    0.014078
   124  H    0.009073
   125  H    0.033493
   126  H    0.023361
   127  H    0.028935
   128  H    0.010599
   129  H    0.018119
   130  H    0.022228
   131  H    0.016243
   132  H    0.014197
   133  H    0.009932
   134  H    0.025598
   135  H    0.022703
   136  H    0.030731
   137  H    0.039104
   138  H    0.030734
   139  H    0.011067
   140  H    0.035520
 Sum of Mulliken charges =  -0.00000

 Dipole moment (field-independent basis, Debye):
    X=             -3.1076    Y=             -0.6239    Z=              1.8964  Tot=              3.6936
 Quadrupole moment (field-independent basis, Debye-Ang):
   XX=           -362.8836   YY=           -431.8508   ZZ=           -400.1193
   XY=              4.9295   XZ=             14.9703   YZ=              1.7503

 Normal termination of Gaussian 16 at Thu May  5 16:34:42 2022.
