 Gaussian 16, Revision A.03,
 Gaussian 16:  ES64L-G16RevA.03 25-Dec-2016

 --------------------
 #p ZINDO=(nstates=5)
 --------------------

 -----------------------------
 step_951_chromophore_18 ZINDO
 -----------------------------
 Symbolic Z-matrix:
 Charge =  0 Multiplicity = 1

                         Standard orientation:
 ---------------------------------------------------------------------
 Center     Atomic      Atomic             Coordinates (Angstroms)
 Number     Number       Type             X           Y           Z
 ---------------------------------------------------------------------
      1         12           0        5.363181    1.192942    0.390874
      2          6           0        4.649407   -2.276634    0.050488
      3          6           0        2.016771    1.762507    0.029569
      4          6           0        6.213579    4.379303    0.075357
      5          6           0        8.726201    0.316327    0.225046
      6          7           0        3.554910   -0.121308    0.089335
      7          6           0        3.511921   -1.449549    0.215959
      8          6           0        2.038345   -2.004637    0.250589
      9          6           0        1.221148   -0.707549    0.170626
     10          6           0        2.281184    0.423752    0.172833
     11          6           0        0.202994   -0.583465   -1.048969
     12          6           0        1.963782   -2.860939    1.536192
     13          6           0        1.225118   -4.161537    1.315299
     14          6           0        0.138287   -4.262196    0.195123
     15          8           0        0.380711   -4.627754   -0.924689
     16          8           0       -1.104027   -3.798355    0.613373
     17          7           0        4.232532    2.890458    0.145629
     18          6           0        2.898395    2.954127   -0.011591
     19          6           0        2.492468    4.315537   -0.079811
     20          6           0        3.722743    5.054599   -0.164363
     21          6           0        4.816225    4.111631   -0.025999
     22          6           0        1.008406    4.737184   -0.282769
     23          6           0        3.927448    6.477191   -0.495780
     24          8           0        5.101322    6.901286   -0.633621
     25          6           0        2.788350    7.519103   -0.671228
     26          7           0        7.245027    2.184885    0.337803
     27          6           0        7.304962    3.528308    0.183677
     28          6           0        8.818121    3.953673   -0.056455
     29          6           0        9.535716    2.657746    0.353952
     30          6           0        8.439669    1.685365    0.246496
     31          6           0        9.155941    4.538023   -1.415674
     32          6           0       10.266910    2.566177    1.609719
     33          6           0        9.930493    1.777138    2.890259
     34          7           0        6.530040   -0.650267    0.243335
     35          6           0        7.897727   -0.809862    0.161267
     36          6           0        8.170118   -2.203559   -0.093187
     37          6           0        6.908194   -2.798150   -0.119645
     38          6           0        5.940176   -1.816737    0.021238
     39          6           0        9.457605   -2.868737   -0.275857
     40          6           0        6.229872   -4.138729   -0.273031
     41          8           0        6.587441   -5.301807   -0.356635
     42          6           0        4.779766   -3.780646   -0.119886
     43          6           0        3.943957   -4.253897   -1.351902
     44          8           0        3.766225   -3.538186   -2.329954
     45          8           0        3.602422   -5.574353   -1.160155
     46          6           0        3.118146   -6.155158   -2.437032
     47          6           0       -2.074794   -3.595057   -0.478969
     48          6           0       -3.021682   -2.439290   -0.240381
     49          6           0       -4.125572   -2.153113   -0.922954
     50          6           0       -4.582188   -2.909207   -2.128763
     51          6           0       -5.187014   -1.157652   -0.418526
     52          6           0       -6.359751   -1.870920    0.322192
     53          6           0       -6.832282   -1.102040    1.445049
     54          6           0       -8.375760   -1.312731    1.839986
     55          6           0       -8.615634   -1.857841    3.245947
     56          6           0       -9.132246   -0.040405    1.538650
     57          6           0      -10.315772   -0.384064    0.537782
     58          6           0      -11.617684   -0.791952    1.337342
     59          6           0      -12.637328    0.366076    1.384466
     60          6           0      -13.442166    0.240616    2.650332
     61          6           0      -13.502007    0.349900    0.094599
     62          6           0      -13.874142    1.761353   -0.405072
     63          6           0      -15.005872    1.766544   -1.476701
     64          6           0      -15.914604    3.015560   -1.418272
     65          6           0      -17.490969    2.725397   -1.311494
     66          6           0      -15.588171    4.065379   -2.501045
     67          1           0        0.969473    2.071474    0.040698
     68          1           0        6.610003    5.391622   -0.022176
     69          1           0        9.721144    0.113666   -0.176180
     70          1           0        1.873780   -2.570923   -0.666664
     71          1           0        0.779248   -0.639803    1.164422
     72          1           0        0.638078   -0.343159   -2.018609
     73          1           0       -0.587176    0.109987   -0.761656
     74          1           0       -0.235871   -1.564157   -1.234730
     75          1           0        1.311977   -2.329685    2.229708
     76          1           0        2.965793   -3.074831    1.905657
     77          1           0        0.722952   -4.503128    2.220345
     78          1           0        1.971614   -4.917320    1.068623
     79          1           0        0.664637    4.526138   -1.295602
     80          1           0        0.883031    5.776912    0.021481
     81          1           0        0.432655    4.156989    0.438054
     82          1           0        2.118288    7.611268    0.183858
     83          1           0        2.117108    7.268299   -1.492618
     84          1           0        3.194012    8.503105   -0.910147
     85          1           0        8.989432    4.798210    0.610838
     86          1           0       10.219314    2.335519   -0.431661
     87          1           0        9.803889    5.403006   -1.276437
     88          1           0        8.312010    4.663403   -2.094535
     89          1           0        9.720082    3.781872   -1.959886
     90          1           0       10.537152    3.599520    1.830308
     91          1           0       11.271586    2.302077    1.280386
     92          1           0       10.568080    0.893092    2.913355
     93          1           0        8.870772    1.522401    2.900676
     94          1           0       10.055651    2.414730    3.765469
     95          1           0       10.287865   -2.474170    0.309194
     96          1           0        9.735175   -2.755904   -1.324167
     97          1           0        9.435957   -3.869981    0.153696
     98          1           0        4.475443   -4.368688    0.745420
     99          1           0        2.132593   -6.015086   -2.882450
    100          1           0        3.243195   -7.232090   -2.324156
    101          1           0        3.773486   -5.821480   -3.241663
    102          1           0       -2.768720   -4.417009   -0.658707
    103          1           0       -1.608562   -3.312304   -1.422130
    104          1           0       -2.942987   -1.987926    0.747854
    105          1           0       -4.588809   -2.210770   -2.966044
    106          1           0       -5.569906   -3.326297   -1.935580
    107          1           0       -3.817154   -3.608839   -2.465955
    108          1           0       -5.662623   -0.731886   -1.301447
    109          1           0       -4.684402   -0.365817    0.136416
    110          1           0       -5.997405   -2.848914    0.638595
    111          1           0       -7.059727   -2.134837   -0.470363
    112          1           0       -6.600456   -0.093127    1.103677
    113          1           0       -6.129878   -1.488292    2.183622
    114          1           0       -8.737713   -2.078516    1.153856
    115          1           0       -9.357884   -2.655106    3.302702
    116          1           0       -9.067226   -1.102104    3.888045
    117          1           0       -7.727312   -2.268818    3.724726
    118          1           0       -8.576306    0.747307    1.030132
    119          1           0       -9.374574    0.485239    2.461856
    120          1           0      -10.040680   -1.204433   -0.125848
    121          1           0      -10.580656    0.438377   -0.126853
    122          1           0      -11.214660   -1.074158    2.310529
    123          1           0      -12.172809   -1.649807    0.958382
    124          1           0      -12.129831    1.329870    1.422437
    125          1           0      -14.202585   -0.539403    2.611198
    126          1           0      -13.891248    1.228739    2.755937
    127          1           0      -12.657865    0.075340    3.388965
    128          1           0      -14.410324   -0.218686    0.291837
    129          1           0      -13.028414   -0.136097   -0.758141
    130          1           0      -12.965432    2.222050   -0.793656
    131          1           0      -14.131655    2.368435    0.462249
    132          1           0      -15.561403    0.829079   -1.449922
    133          1           0      -14.567021    1.785573   -2.475379
    134          1           0      -15.647136    3.511990   -0.484138
    135          1           0      -17.751851    1.674002   -1.188812
    136          1           0      -17.976341    3.011190   -2.244248
    137          1           0      -17.860985    3.229871   -0.418512
    138          1           0      -15.400126    5.022147   -2.015252
    139          1           0      -16.504590    4.293253   -3.044546
    140          1           0      -14.850710    3.695896   -3.214142
 ---------------------------------------------------------------------

 SCF Done:  E(RZINDO/S) =  -474.567758577     A.U. after   19 cycles

 Excitation energies and oscillator strengths:

 Excited State   1:      Singlet-A      1.4322 eV  865.70 nm  f=0.5138  <S**2>=0.000
     175 ->178         0.14703
     176 ->177         0.67536
 This state for optimization and/or second-order correction.
 Total Energy, E(CIS/TDA) =  -474.515126866
 Copying the excited state density for this state as the 1-particle RhoCI density.

 Excited State   2:      Singlet-A      1.9572 eV  633.47 nm  f=0.1206  <S**2>=0.000
     175 ->177         0.58797
     176 ->178        -0.33785

 Excited State   3:      Singlet-A      2.9419 eV  421.44 nm  f=0.0186  <S**2>=0.000
     171 ->177         0.22180
     171 ->178        -0.13879
     171 ->179         0.23962
     171 ->180         0.25600
     171 ->181        -0.20794
     171 ->182        -0.26337
     171 ->183         0.12177
     171 ->186         0.18984
     171 ->188         0.21077
     171 ->204        -0.11117

 Excited State   4:      Singlet-A      2.9727 eV  417.08 nm  f=0.0034  <S**2>=0.000
     167 ->177         0.25375
     167 ->178        -0.11307
     167 ->179        -0.30618
     167 ->182        -0.10773
     167 ->186        -0.13378
     168 ->177         0.28671
     168 ->178        -0.11436
     168 ->179        -0.29506
     168 ->182        -0.10535
     168 ->186        -0.12861

 Excited State   5:      Singlet-A      3.0351 eV  408.50 nm  f=0.8096  <S**2>=0.000
     170 ->177        -0.16777
     172 ->177        -0.14374
     175 ->177         0.29030
     176 ->178         0.50378
     176 ->179        -0.17421
     176 ->180        -0.10472

 The electronic state is 1-A.
 Alpha  occ. eigenvalues --   -1.87557  -1.84325  -1.79945  -1.74001  -1.71897
 Alpha  occ. eigenvalues --   -1.70741  -1.66553  -1.62107  -1.59857  -1.55895
 Alpha  occ. eigenvalues --   -1.54735  -1.52442  -1.50781  -1.49700  -1.48588
 Alpha  occ. eigenvalues --   -1.45130  -1.44299  -1.41063  -1.39764  -1.36845
 Alpha  occ. eigenvalues --   -1.36457  -1.34665  -1.33690  -1.30065  -1.29353
 Alpha  occ. eigenvalues --   -1.27723  -1.25032  -1.21357  -1.19649  -1.18152
 Alpha  occ. eigenvalues --   -1.17631  -1.15427  -1.14747  -1.14660  -1.14594
 Alpha  occ. eigenvalues --   -1.13154  -1.10985  -1.09194  -1.05444  -1.04159
 Alpha  occ. eigenvalues --   -1.02231  -1.01591  -0.99487  -0.98100  -0.97687
 Alpha  occ. eigenvalues --   -0.95903  -0.94736  -0.94274  -0.92950  -0.92341
 Alpha  occ. eigenvalues --   -0.90859  -0.90457  -0.89739  -0.88523  -0.87149
 Alpha  occ. eigenvalues --   -0.85477  -0.85201  -0.83864  -0.81514  -0.79941
 Alpha  occ. eigenvalues --   -0.79527  -0.79109  -0.77546  -0.77208  -0.76552
 Alpha  occ. eigenvalues --   -0.75624  -0.75022  -0.74212  -0.73920  -0.73698
 Alpha  occ. eigenvalues --   -0.73193  -0.72670  -0.71713  -0.71107  -0.70476
 Alpha  occ. eigenvalues --   -0.70080  -0.69136  -0.68497  -0.67844  -0.67512
 Alpha  occ. eigenvalues --   -0.67229  -0.66953  -0.66415  -0.66305  -0.65264
 Alpha  occ. eigenvalues --   -0.64813  -0.64572  -0.63804  -0.63752  -0.63474
 Alpha  occ. eigenvalues --   -0.63406  -0.62998  -0.62783  -0.61880  -0.61858
 Alpha  occ. eigenvalues --   -0.61076  -0.60718  -0.60422  -0.60008  -0.59601
 Alpha  occ. eigenvalues --   -0.59326  -0.59167  -0.59048  -0.58328  -0.58164
 Alpha  occ. eigenvalues --   -0.58081  -0.57698  -0.57161  -0.56570  -0.56102
 Alpha  occ. eigenvalues --   -0.55940  -0.55182  -0.54766  -0.54227  -0.53928
 Alpha  occ. eigenvalues --   -0.53810  -0.53388  -0.53226  -0.52871  -0.52737
 Alpha  occ. eigenvalues --   -0.52616  -0.52204  -0.52032  -0.51391  -0.51321
 Alpha  occ. eigenvalues --   -0.51166  -0.51028  -0.50739  -0.50396  -0.50218
 Alpha  occ. eigenvalues --   -0.49699  -0.49565  -0.49272  -0.49042  -0.48669
 Alpha  occ. eigenvalues --   -0.48563  -0.48403  -0.47792  -0.47665  -0.47548
 Alpha  occ. eigenvalues --   -0.47274  -0.47068  -0.47036  -0.46372  -0.46074
 Alpha  occ. eigenvalues --   -0.45744  -0.45621  -0.45402  -0.45086  -0.44780
 Alpha  occ. eigenvalues --   -0.44606  -0.44543  -0.44100  -0.43945  -0.43842
 Alpha  occ. eigenvalues --   -0.43346  -0.42823  -0.42737  -0.42564  -0.42332
 Alpha  occ. eigenvalues --   -0.42036  -0.41196  -0.40948  -0.39121  -0.38940
 Alpha  occ. eigenvalues --   -0.38546  -0.36722  -0.35993  -0.34380  -0.34040
 Alpha  occ. eigenvalues --   -0.32942  -0.32147  -0.31933  -0.30804  -0.26353
 Alpha  occ. eigenvalues --   -0.22112
 Alpha virt. eigenvalues --   -0.08054  -0.01336  -0.00524   0.01592   0.01843
 Alpha virt. eigenvalues --    0.02351   0.02517   0.03791   0.04781   0.04823
 Alpha virt. eigenvalues --    0.06438   0.07099   0.07425   0.07765   0.08370

 Mulliken charges:
               1
     1  Mg   0.424636
     2  C   -0.068062
     3  C   -0.067046
     4  C   -0.042491
     5  C   -0.098077
     6  N   -0.277973
     7  C    0.178446
     8  C   -0.002058
     9  C    0.003459
    10  C    0.077502
    11  C   -0.049954
    12  C   -0.014858
    13  C    0.003223
    14  C    0.467355
    15  O   -0.502627
    16  O   -0.271722
    17  N   -0.297332
    18  C    0.063916
    19  C   -0.042693
    20  C   -0.056230
    21  C    0.111103
    22  C   -0.048198
    23  C    0.314939
    24  O   -0.562373
    25  C   -0.031826
    26  N   -0.252589
    27  C    0.069082
    28  C    0.003102
    29  C    0.028897
    30  C    0.207553
    31  C   -0.048683
    32  C   -0.024408
    33  C   -0.046559
    34  N   -0.358075
    35  C    0.137751
    36  C    0.071042
    37  C   -0.045819
    38  C    0.153245
    39  C   -0.035412
    40  C    0.338046
    41  O   -0.504189
    42  C    0.053249
    43  C    0.483122
    44  O   -0.508759
    45  O   -0.246085
    46  C    0.070224
    47  C    0.099931
    48  C   -0.097338
    49  C   -0.010918
    50  C   -0.046275
    51  C   -0.028987
    52  C   -0.019879
    53  C   -0.039826
    54  C   -0.005333
    55  C   -0.055016
    56  C   -0.028913
    57  C   -0.042887
    58  C   -0.042907
    59  C   -0.009361
    60  C   -0.058851
    61  C   -0.035625
    62  C   -0.036471
    63  C   -0.032365
    64  C   -0.018753
    65  C   -0.062831
    66  C   -0.060575
    67  H    0.019500
    68  H    0.050365
    69  H    0.013960
    70  H    0.057636
    71  H    0.027872
    72  H    0.036065
    73  H    0.023143
    74  H    0.018402
    75  H    0.029112
    76  H    0.036050
    77  H    0.028383
    78  H    0.032940
    79  H    0.035407
    80  H    0.021294
    81  H    0.019510
    82  H    0.031730
    83  H    0.028815
    84  H    0.032591
    85  H    0.025955
    86  H    0.023965
    87  H    0.027978
    88  H    0.037147
    89  H    0.006192
    90  H    0.013259
    91  H    0.006810
    92  H    0.027262
    93  H    0.024831
    94  H    0.023796
    95  H    0.019110
    96  H    0.047663
    97  H    0.037927
    98  H    0.056406
    99  H    0.060416
   100  H    0.024148
   101  H    0.038146
   102  H    0.053178
   103  H    0.056515
   104  H    0.022980
   105  H    0.023274
   106  H    0.038802
   107  H    0.020073
   108  H    0.015729
   109  H    0.025853
   110  H    0.009491
   111  H    0.014461
   112  H    0.028321
   113  H    0.025489
   114  H    0.022066
   115  H    0.014638
   116  H    0.016892
   117  H    0.018876
   118  H    0.009592
   119  H    0.024122
   120  H    0.018548
   121  H    0.015765
   122  H    0.015701
   123  H    0.019493
   124  H    0.019490
   125  H    0.028090
   126  H    0.014356
   127  H    0.020932
   128  H    0.016726
   129  H    0.015895
   130  H    0.016567
   131  H    0.018439
   132  H    0.020546
   133  H    0.014456
   134  H    0.013661
   135  H    0.015458
   136  H    0.023714
   137  H    0.022490
   138  H    0.021667
   139  H    0.011771
   140  H    0.029485
 Sum of Mulliken charges =  -0.00000

 Dipole moment (field-independent basis, Debye):
    X=             -2.0096    Y=             -3.6512    Z=              3.6409  Tot=              5.5341
 N-N= 4.298920825454D+03 E-N= 0.000000000000D+00  KE=-9.272798806855D+03
 Leave Link  601 at Thu May  5 17:02:31 2022, MaxMem=  6710886400 cpu:               0.8 elap:               0.0
 (Enter /sw/apps/gaussian-16.0/g16/l9999.exe)
 1\1\GINC-BP1-COMPUTE141\SP\RZINDO CIS\STO-3G\C55H74Mg1N4O6\OF15641\05-
 May-2022\0\\#p ZINDO=(nstates=5)\\step_951_chromophore_18 ZINDO\\0,1\M
 g,0,34.685,48.878,25.303\C,0,34.839,47.141,28.405\C,0,33.153,51.427,26
 .979\C,0,34.026,50.1,22.295\C,0,35.797,45.932,23.823\N,0,34.086,49.23,
 27.449\C,0,34.457,48.501,28.504\C,0,34.124,49.207,29.872\C,0,33.524,50
 .536,29.392\C,0,33.641,50.483,27.847\C,0,32.042,50.863,29.878\C,0,35.4
 61,49.224,30.649\C,0,35.28,48.867,32.107\C,0,33.913,49.143,32.815\O,0,

 Normal termination of Gaussian 16 at Thu May  5 17:02:32 2022.
