 Gaussian 16, Revision A.03,
 Gaussian 16:  ES64L-G16RevA.03 25-Dec-2016

 ------------------------------
 #p blyp/Def2SVP td=(nstates=5)
 ------------------------------

 --------------------------------------------------
 step_1351_chromophore_2 TDDFT with blyp functional
 --------------------------------------------------
 Symbolic Z-matrix:
 Charge =  0 Multiplicity = 1

                         Standard orientation:
 ---------------------------------------------------------------------
 Center     Atomic      Atomic             Coordinates (Angstroms)
 Number     Number       Type             X           Y           Z
 ---------------------------------------------------------------------
      1         12           0       -4.587497    1.319670    0.628200
      2          6           0       -5.216877   -2.158103    0.470486
      3          6           0       -2.075265    0.703075    2.906276
      4          6           0       -3.692419    4.467997    0.118201
      5          6           0       -6.972876    1.618210   -2.092277
      6          7           0       -3.551485   -0.512729    1.309869
      7          6           0       -4.018298   -1.784333    1.220823
      8          6           0       -3.113407   -2.727161    1.961294
      9          6           0       -2.468381   -1.795505    3.082132
     10          6           0       -2.741149   -0.399302    2.472257
     11          6           0       -3.017922   -2.004732    4.510181
     12          6           0       -2.016362   -3.652398    1.255156
     13          6           0       -1.415019   -3.123534   -0.101518
     14          6           0       -0.751075   -4.074959   -1.051578
     15          8           0       -1.189105   -5.205491   -1.288816
     16          8           0        0.465507   -3.500246   -1.512302
     17          7           0       -3.044245    2.417244    1.450887
     18          6           0       -2.168510    2.008894    2.443327
     19          6           0       -1.404013    3.167122    2.845438
     20          6           0       -1.994893    4.294531    2.164535
     21          6           0       -2.901472    3.778829    1.142416
     22          6           0       -0.345188    3.021466    3.911619
     23          6           0       -1.629361    5.767531    2.392591
     24          8           0       -0.692248    5.949113    3.156065
     25          6           0       -2.190498    6.879136    1.550860
     26          7           0       -5.209444    2.797046   -0.885264
     27          6           0       -4.610009    4.047111   -0.817490
     28          6           0       -5.284731    5.009761   -1.821569
     29          6           0       -6.328485    4.102938   -2.575441
     30          6           0       -6.195001    2.776207   -1.795176
     31          6           0       -5.717330    6.409834   -1.354646
     32          6           0       -6.133543    3.978732   -4.126086
     33          6           0       -7.445784    4.013187   -4.944485
     34          7           0       -5.903464   -0.015498   -0.443468
     35          6           0       -6.869796    0.318439   -1.466627
     36          6           0       -7.590995   -0.888970   -1.772902
     37          6           0       -7.010073   -1.882162   -1.010504
     38          6           0       -5.982916   -1.324296   -0.233170
     39          6           0       -8.644917   -1.020788   -2.839884
     40          6           0       -7.008077   -3.262785   -0.698908
     41          8           0       -7.798714   -4.138593   -0.998953
     42          6           0       -5.785728   -3.522833    0.203480
     43          6           0       -6.176425   -4.372825    1.356797
     44          8           0       -6.285605   -5.618491    1.458482
     45          8           0       -6.304135   -3.546946    2.431169
     46          6           0       -6.469181   -4.213460    3.807516
     47          6           0        1.228020   -4.394661   -2.391772
     48          6           0        2.427256   -3.674868   -2.958664
     49          6           0        3.539841   -3.193055   -2.269431
     50          6           0        3.840847   -3.317620   -0.794107
     51          6           0        4.724739   -2.645885   -3.031104
     52          6           0        5.091410   -1.138058   -2.720454
     53          6           0        6.478213   -0.831790   -2.143514
     54          6           0        6.404165   -0.348578   -0.644939
     55          6           0        6.214429    1.186764   -0.655624
     56          6           0        7.603041   -0.775378    0.145313
     57          6           0        8.998731   -0.545141   -0.521250
     58          6           0        9.911637    0.472438    0.205499
     59          6           0       11.203678   -0.305686    0.763474
     60          6           0       10.836538   -1.111790    1.933846
     61          6           0       12.354323    0.647951    1.073464
     62          6           0       13.136413    0.975079   -0.209915
     63          6           0       14.554079    0.299466   -0.231365
     64          6           0       15.682672    1.336833   -0.683788
     65          6           0       16.971581    0.635561   -1.142214
     66          6           0       16.096570    2.216116    0.532690
     67          1           0       -1.422071    0.527622    3.763555
     68          1           0       -3.464311    5.510723   -0.110996
     69          1           0       -7.810758    1.731704   -2.782108
     70          1           0       -3.768604   -3.494529    2.371651
     71          1           0       -1.391299   -1.882182    2.935532
     72          1           0       -3.750627   -1.239257    4.764676
     73          1           0       -2.121413   -1.966888    5.129241
     74          1           0       -3.513200   -2.962861    4.670005
     75          1           0       -2.568224   -4.582812    1.118098
     76          1           0       -1.146510   -3.764325    1.902309
     77          1           0       -0.638419   -2.462106    0.283279
     78          1           0       -2.114756   -2.448960   -0.595232
     79          1           0        0.542174    3.581084    3.617986
     80          1           0        0.003489    1.990939    3.968409
     81          1           0       -0.658149    3.361327    4.899125
     82          1           0       -3.252430    7.053600    1.729489
     83          1           0       -1.924791    6.740357    0.502610
     84          1           0       -1.709721    7.813897    1.838820
     85          1           0       -4.571307    5.238882   -2.613200
     86          1           0       -7.333009    4.503413   -2.434545
     87          1           0       -5.335614    6.782735   -0.403633
     88          1           0       -6.798295    6.528444   -1.432611
     89          1           0       -5.338332    7.070947   -2.134289
     90          1           0       -5.686984    2.993957   -4.260070
     91          1           0       -5.496634    4.732050   -4.590537
     92          1           0       -7.621256    3.026622   -5.375646
     93          1           0       -7.432354    4.784971   -5.713084
     94          1           0       -8.309243    4.255027   -4.323556
     95          1           0       -9.579272   -0.789206   -2.327994
     96          1           0       -8.698149   -2.049496   -3.197403
     97          1           0       -8.535059   -0.292673   -3.643365
     98          1           0       -5.108675   -4.121640   -0.406670
     99          1           0       -6.781982   -3.448657    4.518520
    100          1           0       -5.568770   -4.635793    4.253875
    101          1           0       -7.312192   -4.898888    3.716921
    102          1           0        0.561352   -4.801226   -3.151768
    103          1           0        1.627495   -5.252154   -1.849792
    104          1           0        2.441441   -3.628183   -4.047529
    105          1           0        4.692910   -3.996445   -0.741289
    106          1           0        3.081350   -3.806299   -0.184063
    107          1           0        4.105424   -2.336354   -0.401435
    108          1           0        4.380236   -2.685397   -4.064705
    109          1           0        5.499238   -3.410318   -2.973809
    110          1           0        4.265972   -0.615839   -2.235611
    111          1           0        5.080476   -0.651122   -3.695701
    112          1           0        6.949114   -0.117737   -2.819402
    113          1           0        7.101262   -1.723656   -2.205566
    114          1           0        5.458493   -0.739136   -0.268411
    115          1           0        5.446464    1.528706    0.038664
    116          1           0        5.933312    1.523777   -1.652772
    117          1           0        7.203464    1.596364   -0.454225
    118          1           0        7.453791   -1.843308    0.302544
    119          1           0        7.569131   -0.386256    1.162634
    120          1           0        9.028639   -0.277565   -1.578040
    121          1           0        9.411878   -1.553821   -0.484368
    122          1           0        9.408778    1.123170    0.921167
    123          1           0       10.249449    1.257063   -0.470511
    124          1           0       11.449778   -0.932967   -0.092376
    125          1           0        9.824397   -1.516858    1.928714
    126          1           0       10.944161   -0.526485    2.847024
    127          1           0       11.573852   -1.914283    1.909076
    128          1           0       13.013320    0.328205    1.880795
    129          1           0       11.896947    1.567338    1.437556
    130          1           0       13.174311    2.061819   -0.276173
    131          1           0       12.535299    0.647465   -1.058515
    132          1           0       14.538167   -0.464576   -1.008742
    133          1           0       14.840111   -0.153341    0.718070
    134          1           0       15.170561    1.843563   -1.502177
    135          1           0       17.496229    1.277166   -1.850139
    136          1           0       16.731873   -0.323010   -1.601486
    137          1           0       17.652880    0.422450   -0.318431
    138          1           0       15.554136    3.147502    0.366928
    139          1           0       17.169979    2.360249    0.656422
    140          1           0       15.672650    1.774914    1.434913
 ---------------------------------------------------------------------

 SCF Done:  E(RB-LYP) =  -3007.37143674     A.U. after   22 cycles

 Excitation energies and oscillator strengths:

 Excited State   1:      Singlet-A      1.7002 eV  729.23 nm  f=0.0417  <S**2>=0.000
     244 -> 247        0.63818
     245 -> 247       -0.11947
     246 -> 247        0.26204
 This state for optimization and/or second-order correction.
 Total Energy, E(TD-HF/TD-DFT) =  -3007.30895540
 Copying the excited state density for this state as the 1-particle RhoCI density.

 Excited State   2:      Singlet-A      1.7722 eV  699.60 nm  f=0.1627  <S**2>=0.000
     243 -> 247       -0.32596
     244 -> 247       -0.27839
     245 -> 248        0.15034
     246 -> 247        0.54260
     246 <- 247       -0.11616

 Excited State   3:      Singlet-A      1.8264 eV  678.83 nm  f=0.0952  <S**2>=0.000
     243 -> 247        0.55018
     245 -> 247        0.26309
     245 -> 248        0.10445
     246 -> 247        0.33795

 Excited State   4:      Singlet-A      1.9791 eV  626.48 nm  f=0.0575  <S**2>=0.000
     240 -> 247       -0.13121
     243 -> 247       -0.28652
     245 -> 247        0.57468
     246 -> 248       -0.23481

 Excited State   5:      Singlet-A      2.1521 eV  576.10 nm  f=0.0007  <S**2>=0.000
     241 -> 247        0.69923
     242 -> 247        0.10244

 The electronic state is 1-A.
 Alpha  occ. eigenvalues --  -46.27768 -18.82312 -18.81797 -18.77329 -18.75967
 Alpha  occ. eigenvalues --  -18.75417 -18.75309 -14.03598 -14.03557 -14.01008
 Alpha  occ. eigenvalues --  -14.00752 -10.04185 -10.03741  -9.99716  -9.99213
 Alpha  occ. eigenvalues --   -9.98603  -9.97518  -9.97358  -9.97255  -9.96813
 Alpha  occ. eigenvalues --   -9.96674  -9.96460  -9.96393  -9.95109  -9.94537
 Alpha  occ. eigenvalues --   -9.94331  -9.94318  -9.94209  -9.93901  -9.93887
 Alpha  occ. eigenvalues --   -9.93886  -9.93811  -9.93768  -9.93650  -9.93506
 Alpha  occ. eigenvalues --   -9.93397  -9.93342  -9.93320  -9.93189  -9.93123
 Alpha  occ. eigenvalues --   -9.93119  -9.92839  -9.92810  -9.92563  -9.92495
 Alpha  occ. eigenvalues --   -9.92382  -9.92091  -9.92080  -9.91975  -9.91958
 Alpha  occ. eigenvalues --   -9.91870  -9.91739  -9.91640  -9.91447  -9.91371
 Alpha  occ. eigenvalues --   -9.91213  -9.91136  -9.91099  -9.91053  -9.91019
 Alpha  occ. eigenvalues --   -9.90924  -9.90701  -9.90608  -9.90518  -9.90506
 Alpha  occ. eigenvalues --   -9.90292  -2.92241  -1.72649  -1.72161  -1.71926
 Alpha  occ. eigenvalues --   -0.96646  -0.95993  -0.91590  -0.91443  -0.89490
 Alpha  occ. eigenvalues --   -0.87428  -0.86370  -0.85821  -0.85077  -0.83881
 Alpha  occ. eigenvalues --   -0.76473  -0.73590  -0.72961  -0.72480  -0.72372
 Alpha  occ. eigenvalues --   -0.72082  -0.71798  -0.71283  -0.70782  -0.70705
 Alpha  occ. eigenvalues --   -0.69140  -0.68528  -0.67848  -0.67752  -0.67302
 Alpha  occ. eigenvalues --   -0.66452  -0.66145  -0.65334  -0.65173  -0.64686
 Alpha  occ. eigenvalues --   -0.64006  -0.62945  -0.62481  -0.61972  -0.61456
 Alpha  occ. eigenvalues --   -0.60564  -0.60111  -0.59959  -0.59513  -0.58992
 Alpha  occ. eigenvalues --   -0.58423  -0.57702  -0.57212  -0.55428  -0.54867
 Alpha  occ. eigenvalues --   -0.54358  -0.53841  -0.52484  -0.52186  -0.51830
 Alpha  occ. eigenvalues --   -0.51773  -0.51267  -0.50874  -0.50579  -0.49560
 Alpha  occ. eigenvalues --   -0.49162  -0.49124  -0.48904  -0.47976  -0.46728
 Alpha  occ. eigenvalues --   -0.45782  -0.45627  -0.45343  -0.44649  -0.44282
 Alpha  occ. eigenvalues --   -0.43992  -0.43362  -0.43153  -0.43016  -0.42634
 Alpha  occ. eigenvalues --   -0.42232  -0.42028  -0.41734  -0.41282  -0.40819
 Alpha  occ. eigenvalues --   -0.40618  -0.40458  -0.40190  -0.40146  -0.39924
 Alpha  occ. eigenvalues --   -0.39800  -0.39708  -0.39611  -0.39413  -0.39040
 Alpha  occ. eigenvalues --   -0.38996  -0.38941  -0.38789  -0.38342  -0.38217
 Alpha  occ. eigenvalues --   -0.38052  -0.37941  -0.37831  -0.37458  -0.37406
 Alpha  occ. eigenvalues --   -0.37245  -0.37042  -0.36761  -0.36565  -0.36448
 Alpha  occ. eigenvalues --   -0.36286  -0.36240  -0.35899  -0.35834  -0.35662
 Alpha  occ. eigenvalues --   -0.35617  -0.34965  -0.34913  -0.34802  -0.34676
 Alpha  occ. eigenvalues --   -0.34579  -0.34418  -0.34312  -0.34237  -0.34061
 Alpha  occ. eigenvalues --   -0.33762  -0.33737  -0.33650  -0.33533  -0.33264
 Alpha  occ. eigenvalues --   -0.33193  -0.33012  -0.32886  -0.32754  -0.32362
 Alpha  occ. eigenvalues --   -0.32085  -0.31967  -0.31809  -0.31662  -0.31535
 Alpha  occ. eigenvalues --   -0.31447  -0.31310  -0.30997  -0.30870  -0.30747
 Alpha  occ. eigenvalues --   -0.30568  -0.30520  -0.30245  -0.30182  -0.29702
 Alpha  occ. eigenvalues --   -0.29618  -0.29440  -0.29308  -0.29067  -0.28974
 Alpha  occ. eigenvalues --   -0.28659  -0.28474  -0.28420  -0.28340  -0.27755
 Alpha  occ. eigenvalues --   -0.27717  -0.27463  -0.26943  -0.26815  -0.26208
 Alpha  occ. eigenvalues --   -0.26069  -0.25843  -0.25532  -0.25398  -0.24848
 Alpha  occ. eigenvalues --   -0.24814  -0.24761  -0.24605  -0.24406  -0.23762
 Alpha  occ. eigenvalues --   -0.23273  -0.22487  -0.22130  -0.21146  -0.20788
 Alpha  occ. eigenvalues --   -0.19955  -0.19793  -0.18647  -0.18219  -0.17634
 Alpha  occ. eigenvalues --   -0.16263
 Alpha virt. eigenvalues --   -0.12046  -0.07420  -0.06306  -0.04737  -0.03530
 Alpha virt. eigenvalues --   -0.03324  -0.03030  -0.02932  -0.02290   0.00059
 Alpha virt. eigenvalues --    0.00692   0.01370   0.01842   0.02251   0.02482

 Mulliken charges:
               1
     1  Mg   0.669103
     2  C    0.083965
     3  C   -0.068278
     4  C   -0.028858
     5  C   -0.061920
     6  N   -0.232827
     7  C   -0.064415
     8  C    0.009399
     9  C   -0.001954
    10  C    0.027858
    11  C    0.156333
    12  C    0.098971
    13  C    0.092663
    14  C    0.117868
    15  O   -0.194517
    16  O   -0.290064
    17  N   -0.334941
    18  C    0.157296
    19  C   -0.124880
    20  C    0.008744
    21  C    0.128208
    22  C    0.181320
    23  C   -0.084706
    24  O   -0.164571
    25  C    0.141438
    26  N   -0.207288
    27  C   -0.004746
    28  C    0.038524
    29  C    0.008057
    30  C    0.005814
    31  C    0.133306
    32  C    0.087385
    33  C    0.046569
    34  N   -0.253475
    35  C    0.103085
    36  C   -0.197113
    37  C    0.166264
    38  C    0.017325
    39  C    0.186334
    40  C   -0.119498
    41  O   -0.112844
    42  C    0.054027
    43  C    0.124970
    44  O   -0.193937
    45  O   -0.290619
    46  C    0.206077
    47  C    0.317209
    48  C   -0.099809
    49  C   -0.168864
    50  C    0.168038
    51  C    0.141888
    52  C    0.074082
    53  C    0.096076
    54  C   -0.064041
    55  C    0.105529
    56  C    0.111662
    57  C    0.066210
    58  C    0.072024
    59  C   -0.096260
    60  C    0.139399
    61  C    0.121877
    62  C    0.072386
    63  C    0.084745
    64  C   -0.123972
    65  C    0.113132
    66  C    0.117335
    67  H   -0.059111
    68  H   -0.068512
    69  H   -0.059786
    70  H   -0.044302
    71  H   -0.023983
    72  H   -0.000950
    73  H    0.001310
    74  H   -0.010574
    75  H    0.004970
    76  H   -0.014949
    77  H   -0.014776
    78  H    0.023507
    79  H   -0.001308
    80  H   -0.026452
    81  H    0.008961
    82  H    0.009899
    83  H    0.031520
    84  H   -0.020192
    85  H   -0.024862
    86  H   -0.023620
    87  H    0.005234
    88  H   -0.012985
    89  H   -0.021595
    90  H   -0.011536
    91  H   -0.011295
    92  H    0.001744
    93  H   -0.006053
    94  H   -0.013237
    95  H    0.001425
    96  H    0.015013
    97  H   -0.004050
    98  H    0.021927
    99  H    0.006873
   100  H    0.034122
   101  H    0.034152
   102  H   -0.012256
   103  H   -0.004380
   104  H   -0.034696
   105  H   -0.008946
   106  H   -0.017271
   107  H    0.001684
   108  H   -0.046925
   109  H   -0.011885
   110  H   -0.021400
   111  H   -0.042320
   112  H   -0.027556
   113  H   -0.040935
   114  H   -0.043397
   115  H   -0.012738
   116  H   -0.026166
   117  H   -0.017929
   118  H   -0.043527
   119  H   -0.031197
   120  H   -0.016337
   121  H   -0.021417
   122  H   -0.032561
   123  H   -0.054496
   124  H   -0.038460
   125  H   -0.020449
   126  H   -0.020071
   127  H   -0.019306
   128  H   -0.035763
   129  H   -0.047156
   130  H   -0.033785
   131  H   -0.024475
   132  H   -0.038332
   133  H   -0.024956
   134  H   -0.026395
   135  H   -0.012180
   136  H   -0.029919
   137  H   -0.017497
   138  H   -0.015701
   139  H   -0.005179
   140  H   -0.018355
 Sum of Mulliken charges =  -0.00000

 Dipole moment (field-independent basis, Debye):
    X=              1.0755    Y=              5.6335    Z=             -0.0942  Tot=              5.7361
 Quadrupole moment (field-independent basis, Debye-Ang):
   XX=           -400.5683   YY=           -442.5939   ZZ=           -384.0818
   XY=            -66.2594   XZ=             -9.4645   YZ=            -34.3673

 Normal termination of Gaussian 16 at Thu Apr 28 00:05:58 2022.
