 Gaussian 16, Revision A.03,
 Gaussian 16:  ES64L-G16RevA.03 25-Dec-2016

 -----------------------------------
 #p cam-b3lyp/Def2SVP td=(nstates=5)
 -----------------------------------

 -------------------------------------------------------
 step_1351_chromophore_2 TDDFT with cam-b3lyp functional
 -------------------------------------------------------
 Symbolic Z-matrix:
 Charge =  0 Multiplicity = 1

                         Standard orientation:
 ---------------------------------------------------------------------
 Center     Atomic      Atomic             Coordinates (Angstroms)
 Number     Number       Type             X           Y           Z
 ---------------------------------------------------------------------
      1         12           0       -4.587497    1.319670    0.628200
      2          6           0       -5.216877   -2.158103    0.470486
      3          6           0       -2.075265    0.703075    2.906276
      4          6           0       -3.692419    4.467997    0.118201
      5          6           0       -6.972876    1.618210   -2.092277
      6          7           0       -3.551485   -0.512729    1.309869
      7          6           0       -4.018298   -1.784333    1.220823
      8          6           0       -3.113407   -2.727161    1.961294
      9          6           0       -2.468381   -1.795505    3.082132
     10          6           0       -2.741149   -0.399302    2.472257
     11          6           0       -3.017922   -2.004732    4.510181
     12          6           0       -2.016362   -3.652398    1.255156
     13          6           0       -1.415019   -3.123534   -0.101518
     14          6           0       -0.751075   -4.074959   -1.051578
     15          8           0       -1.189105   -5.205491   -1.288816
     16          8           0        0.465507   -3.500246   -1.512302
     17          7           0       -3.044245    2.417244    1.450887
     18          6           0       -2.168510    2.008894    2.443327
     19          6           0       -1.404013    3.167122    2.845438
     20          6           0       -1.994893    4.294531    2.164535
     21          6           0       -2.901472    3.778829    1.142416
     22          6           0       -0.345188    3.021466    3.911619
     23          6           0       -1.629361    5.767531    2.392591
     24          8           0       -0.692248    5.949113    3.156065
     25          6           0       -2.190498    6.879136    1.550860
     26          7           0       -5.209444    2.797046   -0.885264
     27          6           0       -4.610009    4.047111   -0.817490
     28          6           0       -5.284731    5.009761   -1.821569
     29          6           0       -6.328485    4.102938   -2.575441
     30          6           0       -6.195001    2.776207   -1.795176
     31          6           0       -5.717330    6.409834   -1.354646
     32          6           0       -6.133543    3.978732   -4.126086
     33          6           0       -7.445784    4.013187   -4.944485
     34          7           0       -5.903464   -0.015498   -0.443468
     35          6           0       -6.869796    0.318439   -1.466627
     36          6           0       -7.590995   -0.888970   -1.772902
     37          6           0       -7.010073   -1.882162   -1.010504
     38          6           0       -5.982916   -1.324296   -0.233170
     39          6           0       -8.644917   -1.020788   -2.839884
     40          6           0       -7.008077   -3.262785   -0.698908
     41          8           0       -7.798714   -4.138593   -0.998953
     42          6           0       -5.785728   -3.522833    0.203480
     43          6           0       -6.176425   -4.372825    1.356797
     44          8           0       -6.285605   -5.618491    1.458482
     45          8           0       -6.304135   -3.546946    2.431169
     46          6           0       -6.469181   -4.213460    3.807516
     47          6           0        1.228020   -4.394661   -2.391772
     48          6           0        2.427256   -3.674868   -2.958664
     49          6           0        3.539841   -3.193055   -2.269431
     50          6           0        3.840847   -3.317620   -0.794107
     51          6           0        4.724739   -2.645885   -3.031104
     52          6           0        5.091410   -1.138058   -2.720454
     53          6           0        6.478213   -0.831790   -2.143514
     54          6           0        6.404165   -0.348578   -0.644939
     55          6           0        6.214429    1.186764   -0.655624
     56          6           0        7.603041   -0.775378    0.145313
     57          6           0        8.998731   -0.545141   -0.521250
     58          6           0        9.911637    0.472438    0.205499
     59          6           0       11.203678   -0.305686    0.763474
     60          6           0       10.836538   -1.111790    1.933846
     61          6           0       12.354323    0.647951    1.073464
     62          6           0       13.136413    0.975079   -0.209915
     63          6           0       14.554079    0.299466   -0.231365
     64          6           0       15.682672    1.336833   -0.683788
     65          6           0       16.971581    0.635561   -1.142214
     66          6           0       16.096570    2.216116    0.532690
     67          1           0       -1.422071    0.527622    3.763555
     68          1           0       -3.464311    5.510723   -0.110996
     69          1           0       -7.810758    1.731704   -2.782108
     70          1           0       -3.768604   -3.494529    2.371651
     71          1           0       -1.391299   -1.882182    2.935532
     72          1           0       -3.750627   -1.239257    4.764676
     73          1           0       -2.121413   -1.966888    5.129241
     74          1           0       -3.513200   -2.962861    4.670005
     75          1           0       -2.568224   -4.582812    1.118098
     76          1           0       -1.146510   -3.764325    1.902309
     77          1           0       -0.638419   -2.462106    0.283279
     78          1           0       -2.114756   -2.448960   -0.595232
     79          1           0        0.542174    3.581084    3.617986
     80          1           0        0.003489    1.990939    3.968409
     81          1           0       -0.658149    3.361327    4.899125
     82          1           0       -3.252430    7.053600    1.729489
     83          1           0       -1.924791    6.740357    0.502610
     84          1           0       -1.709721    7.813897    1.838820
     85          1           0       -4.571307    5.238882   -2.613200
     86          1           0       -7.333009    4.503413   -2.434545
     87          1           0       -5.335614    6.782735   -0.403633
     88          1           0       -6.798295    6.528444   -1.432611
     89          1           0       -5.338332    7.070947   -2.134289
     90          1           0       -5.686984    2.993957   -4.260070
     91          1           0       -5.496634    4.732050   -4.590537
     92          1           0       -7.621256    3.026622   -5.375646
     93          1           0       -7.432354    4.784971   -5.713084
     94          1           0       -8.309243    4.255027   -4.323556
     95          1           0       -9.579272   -0.789206   -2.327994
     96          1           0       -8.698149   -2.049496   -3.197403
     97          1           0       -8.535059   -0.292673   -3.643365
     98          1           0       -5.108675   -4.121640   -0.406670
     99          1           0       -6.781982   -3.448657    4.518520
    100          1           0       -5.568770   -4.635793    4.253875
    101          1           0       -7.312192   -4.898888    3.716921
    102          1           0        0.561352   -4.801226   -3.151768
    103          1           0        1.627495   -5.252154   -1.849792
    104          1           0        2.441441   -3.628183   -4.047529
    105          1           0        4.692910   -3.996445   -0.741289
    106          1           0        3.081350   -3.806299   -0.184063
    107          1           0        4.105424   -2.336354   -0.401435
    108          1           0        4.380236   -2.685397   -4.064705
    109          1           0        5.499238   -3.410318   -2.973809
    110          1           0        4.265972   -0.615839   -2.235611
    111          1           0        5.080476   -0.651122   -3.695701
    112          1           0        6.949114   -0.117737   -2.819402
    113          1           0        7.101262   -1.723656   -2.205566
    114          1           0        5.458493   -0.739136   -0.268411
    115          1           0        5.446464    1.528706    0.038664
    116          1           0        5.933312    1.523777   -1.652772
    117          1           0        7.203464    1.596364   -0.454225
    118          1           0        7.453791   -1.843308    0.302544
    119          1           0        7.569131   -0.386256    1.162634
    120          1           0        9.028639   -0.277565   -1.578040
    121          1           0        9.411878   -1.553821   -0.484368
    122          1           0        9.408778    1.123170    0.921167
    123          1           0       10.249449    1.257063   -0.470511
    124          1           0       11.449778   -0.932967   -0.092376
    125          1           0        9.824397   -1.516858    1.928714
    126          1           0       10.944161   -0.526485    2.847024
    127          1           0       11.573852   -1.914283    1.909076
    128          1           0       13.013320    0.328205    1.880795
    129          1           0       11.896947    1.567338    1.437556
    130          1           0       13.174311    2.061819   -0.276173
    131          1           0       12.535299    0.647465   -1.058515
    132          1           0       14.538167   -0.464576   -1.008742
    133          1           0       14.840111   -0.153341    0.718070
    134          1           0       15.170561    1.843563   -1.502177
    135          1           0       17.496229    1.277166   -1.850139
    136          1           0       16.731873   -0.323010   -1.601486
    137          1           0       17.652880    0.422450   -0.318431
    138          1           0       15.554136    3.147502    0.366928
    139          1           0       17.169979    2.360249    0.656422
    140          1           0       15.672650    1.774914    1.434913
 ---------------------------------------------------------------------

 SCF Done:  E(RCAM-B3LYP) =  -3007.15635506     A.U. after   17 cycles

 Excitation energies and oscillator strengths:

 Excited State   1:      Singlet-A      1.7053 eV  727.04 nm  f=0.3480  <S**2>=0.000
     245 -> 248        0.17404
     246 -> 247        0.68680
     245 <- 248        0.10503
 This state for optimization and/or second-order correction.
 Total Energy, E(TD-HF/TD-DFT) =  -3007.09368565
 Copying the excited state density for this state as the 1-particle RhoCI density.

 Excited State   2:      Singlet-A      2.2031 eV  562.77 nm  f=0.0978  <S**2>=0.000
     245 -> 247        0.63569
     246 -> 248       -0.29071

 Excited State   3:      Singlet-A      3.0974 eV  400.29 nm  f=0.0084  <S**2>=0.000
     242 -> 247       -0.13139
     244 -> 247        0.67048

 Excited State   4:      Singlet-A      3.3026 eV  375.41 nm  f=0.0410  <S**2>=0.000
     240 -> 247        0.49260
     240 -> 249       -0.21755
     240 -> 251       -0.10561
     241 -> 247        0.22219
     242 -> 247       -0.21146
     246 -> 248        0.26833

 Excited State   5:      Singlet-A      3.3256 eV  372.82 nm  f=0.0518  <S**2>=0.000
     239 -> 247       -0.10227
     240 -> 247        0.35076
     240 -> 249       -0.16565
     241 -> 247       -0.33195
     242 -> 247        0.30986
     244 -> 247        0.12659
     246 -> 248       -0.28491

 The electronic state is 1-A.
 Alpha  occ. eigenvalues --  -46.89382 -19.25450 -19.24708 -19.20393 -19.19213
 Alpha  occ. eigenvalues --  -19.19134 -19.18104 -14.42624 -14.42442 -14.39356
 Alpha  occ. eigenvalues --  -14.39198 -10.39666 -10.39413 -10.34927 -10.34433
 Alpha  occ. eigenvalues --  -10.32897 -10.32565 -10.32236 -10.31486 -10.31331
 Alpha  occ. eigenvalues --  -10.31007 -10.30587 -10.30466 -10.29334 -10.28655
 Alpha  occ. eigenvalues --  -10.28645 -10.28573 -10.28487 -10.28280 -10.28218
 Alpha  occ. eigenvalues --  -10.28116 -10.28103 -10.28100 -10.27865 -10.27584
 Alpha  occ. eigenvalues --  -10.27473 -10.27192 -10.27158 -10.27106 -10.26979
 Alpha  occ. eigenvalues --  -10.26818 -10.26796 -10.26712 -10.26303 -10.26280
 Alpha  occ. eigenvalues --  -10.26144 -10.25891 -10.25780 -10.25705 -10.25669
 Alpha  occ. eigenvalues --  -10.25577 -10.25523 -10.25308 -10.25104 -10.25061
 Alpha  occ. eigenvalues --  -10.25043 -10.24860 -10.24833 -10.24717 -10.24706
 Alpha  occ. eigenvalues --  -10.24703 -10.24259 -10.24225 -10.24068 -10.24037
 Alpha  occ. eigenvalues --  -10.23801  -3.17746  -1.92635  -1.92228  -1.92015
 Alpha  occ. eigenvalues --   -1.15310  -1.14437  -1.10488  -1.09431  -1.07373
 Alpha  occ. eigenvalues --   -1.05482  -1.04368  -1.03586  -1.02788  -1.00931
 Alpha  occ. eigenvalues --   -0.93952  -0.90429  -0.89752  -0.89200  -0.88989
 Alpha  occ. eigenvalues --   -0.88819  -0.88476  -0.87956  -0.87602  -0.87273
 Alpha  occ. eigenvalues --   -0.85454  -0.84594  -0.84175  -0.83971  -0.83443
 Alpha  occ. eigenvalues --   -0.82525  -0.82161  -0.81255  -0.81002  -0.80639
 Alpha  occ. eigenvalues --   -0.79772  -0.78747  -0.78109  -0.77453  -0.77015
 Alpha  occ. eigenvalues --   -0.75906  -0.75336  -0.75269  -0.74800  -0.74223
 Alpha  occ. eigenvalues --   -0.73540  -0.72623  -0.72227  -0.70210  -0.69560
 Alpha  occ. eigenvalues --   -0.69123  -0.68414  -0.66762  -0.66483  -0.66100
 Alpha  occ. eigenvalues --   -0.65970  -0.65327  -0.64836  -0.64624  -0.63523
 Alpha  occ. eigenvalues --   -0.63007  -0.62922  -0.62828  -0.61708  -0.60451
 Alpha  occ. eigenvalues --   -0.59424  -0.59040  -0.58736  -0.58018  -0.57662
 Alpha  occ. eigenvalues --   -0.57438  -0.56912  -0.56455  -0.56331  -0.55904
 Alpha  occ. eigenvalues --   -0.55284  -0.54923  -0.54690  -0.54185  -0.53952
 Alpha  occ. eigenvalues --   -0.53418  -0.53258  -0.53023  -0.52719  -0.52591
 Alpha  occ. eigenvalues --   -0.52358  -0.52292  -0.52106  -0.52093  -0.51945
 Alpha  occ. eigenvalues --   -0.51647  -0.51481  -0.51246  -0.50855  -0.50635
 Alpha  occ. eigenvalues --   -0.50572  -0.50257  -0.50099  -0.49810  -0.49667
 Alpha  occ. eigenvalues --   -0.49537  -0.49314  -0.49137  -0.49033  -0.48863
 Alpha  occ. eigenvalues --   -0.48631  -0.48500  -0.48422  -0.47812  -0.47741
 Alpha  occ. eigenvalues --   -0.47549  -0.47003  -0.46909  -0.46758  -0.46628
 Alpha  occ. eigenvalues --   -0.46445  -0.46304  -0.46217  -0.46052  -0.45981
 Alpha  occ. eigenvalues --   -0.45594  -0.45371  -0.45358  -0.45329  -0.45096
 Alpha  occ. eigenvalues --   -0.44925  -0.44622  -0.44520  -0.44263  -0.44000
 Alpha  occ. eigenvalues --   -0.43982  -0.43734  -0.43519  -0.43316  -0.43028
 Alpha  occ. eigenvalues --   -0.42845  -0.42676  -0.42617  -0.42338  -0.42074
 Alpha  occ. eigenvalues --   -0.41998  -0.41735  -0.41630  -0.41451  -0.41322
 Alpha  occ. eigenvalues --   -0.40988  -0.40804  -0.40693  -0.40239  -0.40093
 Alpha  occ. eigenvalues --   -0.39605  -0.39481  -0.39443  -0.39350  -0.38718
 Alpha  occ. eigenvalues --   -0.38609  -0.38277  -0.37760  -0.37622  -0.37201
 Alpha  occ. eigenvalues --   -0.36896  -0.36674  -0.36468  -0.36404  -0.36249
 Alpha  occ. eigenvalues --   -0.35985  -0.35302  -0.35114  -0.34756  -0.34245
 Alpha  occ. eigenvalues --   -0.34071  -0.33905  -0.33292  -0.31624  -0.31147
 Alpha  occ. eigenvalues --   -0.30562  -0.30412  -0.29478  -0.28319  -0.24570
 Alpha  occ. eigenvalues --   -0.21609
 Alpha virt. eigenvalues --   -0.09151  -0.02360   0.00219   0.01600   0.02418
 Alpha virt. eigenvalues --    0.04288   0.04336   0.04455   0.05172   0.06786
 Alpha virt. eigenvalues --    0.07331   0.07990   0.08388   0.08499   0.08565

 Mulliken charges:
               1
     1  Mg   0.798192
     2  C    0.047999
     3  C   -0.072215
     4  C   -0.054036
     5  C   -0.078453
     6  N   -0.293952
     7  C   -0.007286
     8  C   -0.035705
     9  C   -0.059390
    10  C    0.034114
    11  C    0.101424
    12  C    0.052880
    13  C    0.021444
    14  C    0.200595
    15  O   -0.235444
    16  O   -0.354046
    17  N   -0.419382
    18  C    0.154226
    19  C   -0.134280
    20  C   -0.055356
    21  C    0.151326
    22  C    0.127776
    23  C   -0.009770
    24  O   -0.206100
    25  C    0.053801
    26  N   -0.279897
    27  C    0.022773
    28  C   -0.019971
    29  C   -0.040687
    30  C    0.034250
    31  C    0.073277
    32  C    0.028697
    33  C   -0.015232
    34  N   -0.343899
    35  C    0.117437
    36  C   -0.186565
    37  C    0.082499
    38  C    0.058734
    39  C    0.132607
    40  C   -0.014424
    41  O   -0.147463
    42  C   -0.022201
    43  C    0.210918
    44  O   -0.233386
    45  O   -0.354824
    46  C    0.171733
    47  C    0.282880
    48  C   -0.127018
    49  C   -0.181040
    50  C    0.109301
    51  C    0.080077
    52  C    0.012950
    53  C    0.039060
    54  C   -0.116118
    55  C    0.051305
    56  C    0.059537
    57  C    0.001980
    58  C    0.022445
    59  C   -0.146672
    60  C    0.078842
    61  C    0.063409
    62  C    0.017166
    63  C    0.033985
    64  C   -0.179319
    65  C    0.052291
    66  C    0.055043
    67  H   -0.023549
    68  H   -0.036761
    69  H   -0.024982
    70  H   -0.009692
    71  H    0.010390
    72  H    0.024252
    73  H    0.024726
    74  H    0.009239
    75  H    0.033352
    76  H    0.015599
    77  H    0.021013
    78  H    0.053228
    79  H    0.025307
    80  H   -0.003723
    81  H    0.032904
    82  H    0.036634
    83  H    0.056595
    84  H    0.015958
    85  H    0.010286
    86  H    0.010308
    87  H    0.028086
    88  H    0.011719
    89  H    0.003552
    90  H    0.019300
    91  H    0.018331
    92  H    0.023541
    93  H    0.019165
    94  H    0.009157
    95  H    0.030830
    96  H    0.043987
    97  H    0.021865
    98  H    0.062133
    99  H    0.031596
   100  H    0.052765
   101  H    0.059889
   102  H    0.018930
   103  H    0.022499
   104  H   -0.002344
   105  H    0.014767
   106  H    0.009326
   107  H    0.022464
   108  H   -0.013998
   109  H    0.016472
   110  H    0.008137
   111  H   -0.010115
   112  H    0.001044
   113  H   -0.011938
   114  H   -0.012630
   115  H    0.012534
   116  H   -0.001951
   117  H    0.002835
   118  H   -0.014440
   119  H   -0.002282
   120  H    0.012352
   121  H    0.007266
   122  H   -0.005124
   123  H   -0.024168
   124  H   -0.007567
   125  H    0.002375
   126  H    0.004406
   127  H    0.005670
   128  H   -0.006195
   129  H   -0.016311
   130  H   -0.005107
   131  H    0.002821
   132  H   -0.009310
   133  H    0.001143
   134  H    0.003857
   135  H    0.012793
   136  H   -0.005446
   137  H    0.005982
   138  H    0.007634
   139  H    0.019286
   140  H    0.004493
 Sum of Mulliken charges =  -0.00000

 Dipole moment (field-independent basis, Debye):
    X=              0.3076    Y=              5.3227    Z=             -0.5208  Tot=              5.3570
 Quadrupole moment (field-independent basis, Debye-Ang):
   XX=           -393.9723   YY=           -441.7238   ZZ=           -382.3960
   XY=            -66.8781   XZ=             -7.3611   YZ=            -37.0458

 Normal termination of Gaussian 16 at Wed Apr 27 22:42:16 2022.
