 Gaussian 16, Revision A.03,
 Gaussian 16:  ES64L-G16RevA.03 25-Dec-2016

 ---------------------------------
 #p PBE1PBE/Def2SVP td=(nstates=5)
 ---------------------------------

 -----------------------------------------------------
 step_1351_chromophore_2 TDDFT with PBE1PBE functional
 -----------------------------------------------------
 Symbolic Z-matrix:
 Charge =  0 Multiplicity = 1

                         Standard orientation:
 ---------------------------------------------------------------------
 Center     Atomic      Atomic             Coordinates (Angstroms)
 Number     Number       Type             X           Y           Z
 ---------------------------------------------------------------------
      1         12           0       -4.587497    1.319670    0.628200
      2          6           0       -5.216877   -2.158103    0.470486
      3          6           0       -2.075265    0.703075    2.906276
      4          6           0       -3.692419    4.467997    0.118201
      5          6           0       -6.972876    1.618210   -2.092277
      6          7           0       -3.551485   -0.512729    1.309869
      7          6           0       -4.018298   -1.784333    1.220823
      8          6           0       -3.113407   -2.727161    1.961294
      9          6           0       -2.468381   -1.795505    3.082132
     10          6           0       -2.741149   -0.399302    2.472257
     11          6           0       -3.017922   -2.004732    4.510181
     12          6           0       -2.016362   -3.652398    1.255156
     13          6           0       -1.415019   -3.123534   -0.101518
     14          6           0       -0.751075   -4.074959   -1.051578
     15          8           0       -1.189105   -5.205491   -1.288816
     16          8           0        0.465507   -3.500246   -1.512302
     17          7           0       -3.044245    2.417244    1.450887
     18          6           0       -2.168510    2.008894    2.443327
     19          6           0       -1.404013    3.167122    2.845438
     20          6           0       -1.994893    4.294531    2.164535
     21          6           0       -2.901472    3.778829    1.142416
     22          6           0       -0.345188    3.021466    3.911619
     23          6           0       -1.629361    5.767531    2.392591
     24          8           0       -0.692248    5.949113    3.156065
     25          6           0       -2.190498    6.879136    1.550860
     26          7           0       -5.209444    2.797046   -0.885264
     27          6           0       -4.610009    4.047111   -0.817490
     28          6           0       -5.284731    5.009761   -1.821569
     29          6           0       -6.328485    4.102938   -2.575441
     30          6           0       -6.195001    2.776207   -1.795176
     31          6           0       -5.717330    6.409834   -1.354646
     32          6           0       -6.133543    3.978732   -4.126086
     33          6           0       -7.445784    4.013187   -4.944485
     34          7           0       -5.903464   -0.015498   -0.443468
     35          6           0       -6.869796    0.318439   -1.466627
     36          6           0       -7.590995   -0.888970   -1.772902
     37          6           0       -7.010073   -1.882162   -1.010504
     38          6           0       -5.982916   -1.324296   -0.233170
     39          6           0       -8.644917   -1.020788   -2.839884
     40          6           0       -7.008077   -3.262785   -0.698908
     41          8           0       -7.798714   -4.138593   -0.998953
     42          6           0       -5.785728   -3.522833    0.203480
     43          6           0       -6.176425   -4.372825    1.356797
     44          8           0       -6.285605   -5.618491    1.458482
     45          8           0       -6.304135   -3.546946    2.431169
     46          6           0       -6.469181   -4.213460    3.807516
     47          6           0        1.228020   -4.394661   -2.391772
     48          6           0        2.427256   -3.674868   -2.958664
     49          6           0        3.539841   -3.193055   -2.269431
     50          6           0        3.840847   -3.317620   -0.794107
     51          6           0        4.724739   -2.645885   -3.031104
     52          6           0        5.091410   -1.138058   -2.720454
     53          6           0        6.478213   -0.831790   -2.143514
     54          6           0        6.404165   -0.348578   -0.644939
     55          6           0        6.214429    1.186764   -0.655624
     56          6           0        7.603041   -0.775378    0.145313
     57          6           0        8.998731   -0.545141   -0.521250
     58          6           0        9.911637    0.472438    0.205499
     59          6           0       11.203678   -0.305686    0.763474
     60          6           0       10.836538   -1.111790    1.933846
     61          6           0       12.354323    0.647951    1.073464
     62          6           0       13.136413    0.975079   -0.209915
     63          6           0       14.554079    0.299466   -0.231365
     64          6           0       15.682672    1.336833   -0.683788
     65          6           0       16.971581    0.635561   -1.142214
     66          6           0       16.096570    2.216116    0.532690
     67          1           0       -1.422071    0.527622    3.763555
     68          1           0       -3.464311    5.510723   -0.110996
     69          1           0       -7.810758    1.731704   -2.782108
     70          1           0       -3.768604   -3.494529    2.371651
     71          1           0       -1.391299   -1.882182    2.935532
     72          1           0       -3.750627   -1.239257    4.764676
     73          1           0       -2.121413   -1.966888    5.129241
     74          1           0       -3.513200   -2.962861    4.670005
     75          1           0       -2.568224   -4.582812    1.118098
     76          1           0       -1.146510   -3.764325    1.902309
     77          1           0       -0.638419   -2.462106    0.283279
     78          1           0       -2.114756   -2.448960   -0.595232
     79          1           0        0.542174    3.581084    3.617986
     80          1           0        0.003489    1.990939    3.968409
     81          1           0       -0.658149    3.361327    4.899125
     82          1           0       -3.252430    7.053600    1.729489
     83          1           0       -1.924791    6.740357    0.502610
     84          1           0       -1.709721    7.813897    1.838820
     85          1           0       -4.571307    5.238882   -2.613200
     86          1           0       -7.333009    4.503413   -2.434545
     87          1           0       -5.335614    6.782735   -0.403633
     88          1           0       -6.798295    6.528444   -1.432611
     89          1           0       -5.338332    7.070947   -2.134289
     90          1           0       -5.686984    2.993957   -4.260070
     91          1           0       -5.496634    4.732050   -4.590537
     92          1           0       -7.621256    3.026622   -5.375646
     93          1           0       -7.432354    4.784971   -5.713084
     94          1           0       -8.309243    4.255027   -4.323556
     95          1           0       -9.579272   -0.789206   -2.327994
     96          1           0       -8.698149   -2.049496   -3.197403
     97          1           0       -8.535059   -0.292673   -3.643365
     98          1           0       -5.108675   -4.121640   -0.406670
     99          1           0       -6.781982   -3.448657    4.518520
    100          1           0       -5.568770   -4.635793    4.253875
    101          1           0       -7.312192   -4.898888    3.716921
    102          1           0        0.561352   -4.801226   -3.151768
    103          1           0        1.627495   -5.252154   -1.849792
    104          1           0        2.441441   -3.628183   -4.047529
    105          1           0        4.692910   -3.996445   -0.741289
    106          1           0        3.081350   -3.806299   -0.184063
    107          1           0        4.105424   -2.336354   -0.401435
    108          1           0        4.380236   -2.685397   -4.064705
    109          1           0        5.499238   -3.410318   -2.973809
    110          1           0        4.265972   -0.615839   -2.235611
    111          1           0        5.080476   -0.651122   -3.695701
    112          1           0        6.949114   -0.117737   -2.819402
    113          1           0        7.101262   -1.723656   -2.205566
    114          1           0        5.458493   -0.739136   -0.268411
    115          1           0        5.446464    1.528706    0.038664
    116          1           0        5.933312    1.523777   -1.652772
    117          1           0        7.203464    1.596364   -0.454225
    118          1           0        7.453791   -1.843308    0.302544
    119          1           0        7.569131   -0.386256    1.162634
    120          1           0        9.028639   -0.277565   -1.578040
    121          1           0        9.411878   -1.553821   -0.484368
    122          1           0        9.408778    1.123170    0.921167
    123          1           0       10.249449    1.257063   -0.470511
    124          1           0       11.449778   -0.932967   -0.092376
    125          1           0        9.824397   -1.516858    1.928714
    126          1           0       10.944161   -0.526485    2.847024
    127          1           0       11.573852   -1.914283    1.909076
    128          1           0       13.013320    0.328205    1.880795
    129          1           0       11.896947    1.567338    1.437556
    130          1           0       13.174311    2.061819   -0.276173
    131          1           0       12.535299    0.647465   -1.058515
    132          1           0       14.538167   -0.464576   -1.008742
    133          1           0       14.840111   -0.153341    0.718070
    134          1           0       15.170561    1.843563   -1.502177
    135          1           0       17.496229    1.277166   -1.850139
    136          1           0       16.731873   -0.323010   -1.601486
    137          1           0       17.652880    0.422450   -0.318431
    138          1           0       15.554136    3.147502    0.366928
    139          1           0       17.169979    2.360249    0.656422
    140          1           0       15.672650    1.774914    1.434913
 ---------------------------------------------------------------------

 SCF Done:  E(RPBE1PBE) =  -3005.34496762     A.U. after   16 cycles

 Excitation energies and oscillator strengths:

 Excited State   1:      Singlet-A      1.8258 eV  679.08 nm  f=0.3392  <S**2>=0.000
     245 -> 248        0.17169
     246 -> 247        0.69327
     246 <- 247       -0.10526
 This state for optimization and/or second-order correction.
 Total Energy, E(TD-HF/TD-DFT) =  -3005.27787164
 Copying the excited state density for this state as the 1-particle RhoCI density.

 Excited State   2:      Singlet-A      2.1991 eV  563.81 nm  f=0.0900  <S**2>=0.000
     245 -> 247        0.64566
     246 -> 248       -0.26675

 Excited State   3:      Singlet-A      2.6385 eV  469.90 nm  f=0.0060  <S**2>=0.000
     244 -> 247        0.69620

 Excited State   4:      Singlet-A      2.8378 eV  436.90 nm  f=0.0008  <S**2>=0.000
     241 -> 247        0.66922
     241 -> 249       -0.15131
     242 -> 247        0.10744

 Excited State   5:      Singlet-A      3.0155 eV  411.16 nm  f=0.0019  <S**2>=0.000
     240 -> 247        0.16875
     242 -> 247        0.64883
     242 -> 249        0.10781
     246 -> 248       -0.10116

 The electronic state is 1-A.
 Alpha  occ. eigenvalues --  -46.92767 -19.25989 -19.25363 -19.20598 -19.19367
 Alpha  occ. eigenvalues --  -19.19013 -19.18593 -14.42103 -14.41947 -14.39079
 Alpha  occ. eigenvalues --  -14.38903 -10.36629 -10.36310 -10.31870 -10.31746
 Alpha  occ. eigenvalues --  -10.30037 -10.30010 -10.29690 -10.28924 -10.28811
 Alpha  occ. eigenvalues --  -10.28720 -10.28676 -10.28495 -10.26832 -10.26568
 Alpha  occ. eigenvalues --  -10.26423 -10.26168 -10.26094 -10.25892 -10.25876
 Alpha  occ. eigenvalues --  -10.25864 -10.25749 -10.25684 -10.25439 -10.25335
 Alpha  occ. eigenvalues --  -10.25284 -10.25246 -10.24761 -10.24527 -10.24461
 Alpha  occ. eigenvalues --  -10.24435 -10.24338 -10.24333 -10.24139 -10.23779
 Alpha  occ. eigenvalues --  -10.23533 -10.23478 -10.23362 -10.23362 -10.23120
 Alpha  occ. eigenvalues --  -10.23080 -10.23018 -10.22871 -10.22799 -10.22743
 Alpha  occ. eigenvalues --  -10.22708 -10.22463 -10.22437 -10.22323 -10.22291
 Alpha  occ. eigenvalues --  -10.22276 -10.21798 -10.21661 -10.21465 -10.21438
 Alpha  occ. eigenvalues --  -10.21164  -3.14717  -1.87544  -1.87116  -1.86909
 Alpha  occ. eigenvalues --   -1.09936  -1.09159  -1.04915  -1.04446  -1.02179
 Alpha  occ. eigenvalues --   -1.00177  -0.98797  -0.98134  -0.97337  -0.95885
 Alpha  occ. eigenvalues --   -0.88124  -0.84520  -0.83863  -0.83469  -0.83355
 Alpha  occ. eigenvalues --   -0.83005  -0.82631  -0.82219  -0.81808  -0.81380
 Alpha  occ. eigenvalues --   -0.79721  -0.79161  -0.78351  -0.78219  -0.77691
 Alpha  occ. eigenvalues --   -0.76768  -0.76366  -0.75524  -0.75288  -0.74835
 Alpha  occ. eigenvalues --   -0.73931  -0.72947  -0.72368  -0.71824  -0.71272
 Alpha  occ. eigenvalues --   -0.70077  -0.69754  -0.69382  -0.68890  -0.68395
 Alpha  occ. eigenvalues --   -0.67943  -0.67056  -0.66600  -0.64513  -0.63851
 Alpha  occ. eigenvalues --   -0.63531  -0.62627  -0.61272  -0.60782  -0.60371
 Alpha  occ. eigenvalues --   -0.60282  -0.59842  -0.59497  -0.59170  -0.57670
 Alpha  occ. eigenvalues --   -0.57437  -0.57406  -0.56999  -0.55953  -0.54924
 Alpha  occ. eigenvalues --   -0.53959  -0.53683  -0.53133  -0.52689  -0.52210
 Alpha  occ. eigenvalues --   -0.51871  -0.51151  -0.51103  -0.50760  -0.50254
 Alpha  occ. eigenvalues --   -0.49866  -0.49289  -0.49124  -0.48649  -0.48480
 Alpha  occ. eigenvalues --   -0.47978  -0.47853  -0.47586  -0.47181  -0.47148
 Alpha  occ. eigenvalues --   -0.46896  -0.46803  -0.46665  -0.46555  -0.46359
 Alpha  occ. eigenvalues --   -0.46174  -0.45970  -0.45738  -0.45500  -0.45301
 Alpha  occ. eigenvalues --   -0.45097  -0.44786  -0.44612  -0.44305  -0.44224
 Alpha  occ. eigenvalues --   -0.44215  -0.43955  -0.43762  -0.43629  -0.43467
 Alpha  occ. eigenvalues --   -0.43256  -0.43101  -0.43048  -0.42437  -0.42384
 Alpha  occ. eigenvalues --   -0.42198  -0.41719  -0.41642  -0.41451  -0.41312
 Alpha  occ. eigenvalues --   -0.41090  -0.41010  -0.40906  -0.40791  -0.40620
 Alpha  occ. eigenvalues --   -0.40254  -0.40186  -0.39991  -0.39973  -0.39865
 Alpha  occ. eigenvalues --   -0.39701  -0.39496  -0.39178  -0.38933  -0.38649
 Alpha  occ. eigenvalues --   -0.38607  -0.38457  -0.38229  -0.38075  -0.37975
 Alpha  occ. eigenvalues --   -0.37708  -0.37455  -0.37373  -0.37199  -0.37004
 Alpha  occ. eigenvalues --   -0.36901  -0.36703  -0.36318  -0.36212  -0.36168
 Alpha  occ. eigenvalues --   -0.35860  -0.35629  -0.35433  -0.35105  -0.34863
 Alpha  occ. eigenvalues --   -0.34434  -0.34386  -0.34308  -0.34201  -0.33667
 Alpha  occ. eigenvalues --   -0.33410  -0.33108  -0.32687  -0.32569  -0.32270
 Alpha  occ. eigenvalues --   -0.31755  -0.31680  -0.31369  -0.31279  -0.31136
 Alpha  occ. eigenvalues --   -0.30846  -0.30222  -0.29997  -0.29996  -0.29071
 Alpha  occ. eigenvalues --   -0.29041  -0.28955  -0.28457  -0.27170  -0.25978
 Alpha  occ. eigenvalues --   -0.25719  -0.25573  -0.24817  -0.24121  -0.21436
 Alpha  occ. eigenvalues --   -0.19225
 Alpha virt. eigenvalues --   -0.11662  -0.05845  -0.03983  -0.02092  -0.01161
 Alpha virt. eigenvalues --   -0.00238  -0.00078  -0.00023   0.00669   0.03129
 Alpha virt. eigenvalues --    0.03490   0.04206   0.04672   0.05195   0.05352

 Mulliken charges:
               1
     1  Mg   0.938630
     2  C    0.034865
     3  C   -0.070755
     4  C   -0.069969
     5  C   -0.069641
     6  N   -0.386543
     7  C    0.071293
     8  C   -0.090556
     9  C   -0.148834
    10  C    0.068679
    11  C    0.042466
    12  C   -0.002267
    13  C   -0.055712
    14  C    0.264497
    15  O   -0.267578
    16  O   -0.381854
    17  N   -0.533054
    18  C    0.187553
    19  C   -0.161936
    20  C   -0.105455
    21  C    0.193998
    22  C    0.070042
    23  C    0.044791
    24  O   -0.238552
    25  C   -0.024967
    26  N   -0.382641
    27  C    0.068647
    28  C   -0.100193
    29  C   -0.108093
    30  C    0.069145
    31  C    0.011926
    32  C   -0.032030
    33  C   -0.086047
    34  N   -0.465797
    35  C    0.137309
    36  C   -0.207859
    37  C    0.026745
    38  C    0.102527
    39  C    0.079147
    40  C    0.088858
    41  O   -0.197210
    42  C   -0.132906
    43  C    0.298302
    44  O   -0.270953
    45  O   -0.382677
    46  C    0.116295
    47  C    0.239482
    48  C   -0.143200
    49  C   -0.217104
    50  C    0.043718
    51  C    0.015889
    52  C   -0.048982
    53  C   -0.015527
    54  C   -0.209395
    55  C   -0.006404
    56  C    0.001340
    57  C   -0.061056
    58  C   -0.023139
    59  C   -0.240490
    60  C    0.018722
    61  C    0.009288
    62  C   -0.043714
    63  C   -0.019548
    64  C   -0.271561
    65  C   -0.010403
    66  C   -0.005186
    67  H    0.007350
    68  H   -0.001534
    69  H    0.008638
    70  H    0.038130
    71  H    0.048110
    72  H    0.051431
    73  H    0.051557
    74  H    0.040015
    75  H    0.063921
    76  H    0.046857
    77  H    0.053541
    78  H    0.087439
    79  H    0.055127
    80  H    0.024754
    81  H    0.062363
    82  H    0.065153
    83  H    0.082270
    84  H    0.045573
    85  H    0.050217
    86  H    0.047737
    87  H    0.054072
    88  H    0.040200
    89  H    0.031679
    90  H    0.053211
    91  H    0.048840
    92  H    0.050648
    93  H    0.046471
    94  H    0.035512
    95  H    0.058622
    96  H    0.070014
    97  H    0.046190
    98  H    0.098968
    99  H    0.052799
   100  H    0.071582
   101  H    0.080958
   102  H    0.045416
   103  H    0.049279
   104  H    0.027179
   105  H    0.042658
   106  H    0.037479
   107  H    0.053340
   108  H    0.019775
   109  H    0.047578
   110  H    0.039557
   111  H    0.023907
   112  H    0.032325
   113  H    0.021701
   114  H    0.031326
   115  H    0.039199
   116  H    0.025819
   117  H    0.034112
   118  H    0.019397
   119  H    0.029506
   120  H    0.043348
   121  H    0.038964
   122  H    0.024549
   123  H    0.009005
   124  H    0.031056
   125  H    0.031786
   126  H    0.032241
   127  H    0.034880
   128  H    0.024971
   129  H    0.017706
   130  H    0.026675
   131  H    0.034857
   132  H    0.024125
   133  H    0.031777
   134  H    0.040621
   135  H    0.041529
   136  H    0.022314
   137  H    0.033545
   138  H    0.035421
   139  H    0.045909
   140  H    0.032384
 Sum of Mulliken charges =  -0.00000

 Dipole moment (field-independent basis, Debye):
    X=              0.8338    Y=              5.8890    Z=             -0.2105  Tot=              5.9514
 Quadrupole moment (field-independent basis, Debye-Ang):
   XX=           -394.7691   YY=           -437.5113   ZZ=           -378.1728
   XY=            -69.3461   XZ=             -7.4515   YZ=            -37.1239

 Normal termination of Gaussian 16 at Wed Apr 27 23:10:43 2022.
