 Gaussian 16, Revision A.03,
 Gaussian 16:  ES64L-G16RevA.03 25-Dec-2016

 --------------------------------
 #p wB97XD/Def2SVP td=(nstates=5)
 --------------------------------

 ----------------------------------------------------
 step_1351_chromophore_2 TDDFT with wB97XD functional
 ----------------------------------------------------
 Symbolic Z-matrix:
 Charge =  0 Multiplicity = 1

                         Standard orientation:
 ---------------------------------------------------------------------
 Center     Atomic      Atomic             Coordinates (Angstroms)
 Number     Number       Type             X           Y           Z
 ---------------------------------------------------------------------
      1         12           0       -4.587497    1.319670    0.628200
      2          6           0       -5.216877   -2.158103    0.470486
      3          6           0       -2.075265    0.703075    2.906276
      4          6           0       -3.692419    4.467997    0.118201
      5          6           0       -6.972876    1.618210   -2.092277
      6          7           0       -3.551485   -0.512729    1.309869
      7          6           0       -4.018298   -1.784333    1.220823
      8          6           0       -3.113407   -2.727161    1.961294
      9          6           0       -2.468381   -1.795505    3.082132
     10          6           0       -2.741149   -0.399302    2.472257
     11          6           0       -3.017922   -2.004732    4.510181
     12          6           0       -2.016362   -3.652398    1.255156
     13          6           0       -1.415019   -3.123534   -0.101518
     14          6           0       -0.751075   -4.074959   -1.051578
     15          8           0       -1.189105   -5.205491   -1.288816
     16          8           0        0.465507   -3.500246   -1.512302
     17          7           0       -3.044245    2.417244    1.450887
     18          6           0       -2.168510    2.008894    2.443327
     19          6           0       -1.404013    3.167122    2.845438
     20          6           0       -1.994893    4.294531    2.164535
     21          6           0       -2.901472    3.778829    1.142416
     22          6           0       -0.345188    3.021466    3.911619
     23          6           0       -1.629361    5.767531    2.392591
     24          8           0       -0.692248    5.949113    3.156065
     25          6           0       -2.190498    6.879136    1.550860
     26          7           0       -5.209444    2.797046   -0.885264
     27          6           0       -4.610009    4.047111   -0.817490
     28          6           0       -5.284731    5.009761   -1.821569
     29          6           0       -6.328485    4.102938   -2.575441
     30          6           0       -6.195001    2.776207   -1.795176
     31          6           0       -5.717330    6.409834   -1.354646
     32          6           0       -6.133543    3.978732   -4.126086
     33          6           0       -7.445784    4.013187   -4.944485
     34          7           0       -5.903464   -0.015498   -0.443468
     35          6           0       -6.869796    0.318439   -1.466627
     36          6           0       -7.590995   -0.888970   -1.772902
     37          6           0       -7.010073   -1.882162   -1.010504
     38          6           0       -5.982916   -1.324296   -0.233170
     39          6           0       -8.644917   -1.020788   -2.839884
     40          6           0       -7.008077   -3.262785   -0.698908
     41          8           0       -7.798714   -4.138593   -0.998953
     42          6           0       -5.785728   -3.522833    0.203480
     43          6           0       -6.176425   -4.372825    1.356797
     44          8           0       -6.285605   -5.618491    1.458482
     45          8           0       -6.304135   -3.546946    2.431169
     46          6           0       -6.469181   -4.213460    3.807516
     47          6           0        1.228020   -4.394661   -2.391772
     48          6           0        2.427256   -3.674868   -2.958664
     49          6           0        3.539841   -3.193055   -2.269431
     50          6           0        3.840847   -3.317620   -0.794107
     51          6           0        4.724739   -2.645885   -3.031104
     52          6           0        5.091410   -1.138058   -2.720454
     53          6           0        6.478213   -0.831790   -2.143514
     54          6           0        6.404165   -0.348578   -0.644939
     55          6           0        6.214429    1.186764   -0.655624
     56          6           0        7.603041   -0.775378    0.145313
     57          6           0        8.998731   -0.545141   -0.521250
     58          6           0        9.911637    0.472438    0.205499
     59          6           0       11.203678   -0.305686    0.763474
     60          6           0       10.836538   -1.111790    1.933846
     61          6           0       12.354323    0.647951    1.073464
     62          6           0       13.136413    0.975079   -0.209915
     63          6           0       14.554079    0.299466   -0.231365
     64          6           0       15.682672    1.336833   -0.683788
     65          6           0       16.971581    0.635561   -1.142214
     66          6           0       16.096570    2.216116    0.532690
     67          1           0       -1.422071    0.527622    3.763555
     68          1           0       -3.464311    5.510723   -0.110996
     69          1           0       -7.810758    1.731704   -2.782108
     70          1           0       -3.768604   -3.494529    2.371651
     71          1           0       -1.391299   -1.882182    2.935532
     72          1           0       -3.750627   -1.239257    4.764676
     73          1           0       -2.121413   -1.966888    5.129241
     74          1           0       -3.513200   -2.962861    4.670005
     75          1           0       -2.568224   -4.582812    1.118098
     76          1           0       -1.146510   -3.764325    1.902309
     77          1           0       -0.638419   -2.462106    0.283279
     78          1           0       -2.114756   -2.448960   -0.595232
     79          1           0        0.542174    3.581084    3.617986
     80          1           0        0.003489    1.990939    3.968409
     81          1           0       -0.658149    3.361327    4.899125
     82          1           0       -3.252430    7.053600    1.729489
     83          1           0       -1.924791    6.740357    0.502610
     84          1           0       -1.709721    7.813897    1.838820
     85          1           0       -4.571307    5.238882   -2.613200
     86          1           0       -7.333009    4.503413   -2.434545
     87          1           0       -5.335614    6.782735   -0.403633
     88          1           0       -6.798295    6.528444   -1.432611
     89          1           0       -5.338332    7.070947   -2.134289
     90          1           0       -5.686984    2.993957   -4.260070
     91          1           0       -5.496634    4.732050   -4.590537
     92          1           0       -7.621256    3.026622   -5.375646
     93          1           0       -7.432354    4.784971   -5.713084
     94          1           0       -8.309243    4.255027   -4.323556
     95          1           0       -9.579272   -0.789206   -2.327994
     96          1           0       -8.698149   -2.049496   -3.197403
     97          1           0       -8.535059   -0.292673   -3.643365
     98          1           0       -5.108675   -4.121640   -0.406670
     99          1           0       -6.781982   -3.448657    4.518520
    100          1           0       -5.568770   -4.635793    4.253875
    101          1           0       -7.312192   -4.898888    3.716921
    102          1           0        0.561352   -4.801226   -3.151768
    103          1           0        1.627495   -5.252154   -1.849792
    104          1           0        2.441441   -3.628183   -4.047529
    105          1           0        4.692910   -3.996445   -0.741289
    106          1           0        3.081350   -3.806299   -0.184063
    107          1           0        4.105424   -2.336354   -0.401435
    108          1           0        4.380236   -2.685397   -4.064705
    109          1           0        5.499238   -3.410318   -2.973809
    110          1           0        4.265972   -0.615839   -2.235611
    111          1           0        5.080476   -0.651122   -3.695701
    112          1           0        6.949114   -0.117737   -2.819402
    113          1           0        7.101262   -1.723656   -2.205566
    114          1           0        5.458493   -0.739136   -0.268411
    115          1           0        5.446464    1.528706    0.038664
    116          1           0        5.933312    1.523777   -1.652772
    117          1           0        7.203464    1.596364   -0.454225
    118          1           0        7.453791   -1.843308    0.302544
    119          1           0        7.569131   -0.386256    1.162634
    120          1           0        9.028639   -0.277565   -1.578040
    121          1           0        9.411878   -1.553821   -0.484368
    122          1           0        9.408778    1.123170    0.921167
    123          1           0       10.249449    1.257063   -0.470511
    124          1           0       11.449778   -0.932967   -0.092376
    125          1           0        9.824397   -1.516858    1.928714
    126          1           0       10.944161   -0.526485    2.847024
    127          1           0       11.573852   -1.914283    1.909076
    128          1           0       13.013320    0.328205    1.880795
    129          1           0       11.896947    1.567338    1.437556
    130          1           0       13.174311    2.061819   -0.276173
    131          1           0       12.535299    0.647465   -1.058515
    132          1           0       14.538167   -0.464576   -1.008742
    133          1           0       14.840111   -0.153341    0.718070
    134          1           0       15.170561    1.843563   -1.502177
    135          1           0       17.496229    1.277166   -1.850139
    136          1           0       16.731873   -0.323010   -1.601486
    137          1           0       17.652880    0.422450   -0.318431
    138          1           0       15.554136    3.147502    0.366928
    139          1           0       17.169979    2.360249    0.656422
    140          1           0       15.672650    1.774914    1.434913
 ---------------------------------------------------------------------

 SCF Done:  E(RwB97XD) =  -3007.85606462     A.U. after   18 cycles

 Excitation energies and oscillator strengths:

 Excited State   1:      Singlet-A      1.6685 eV  743.11 nm  f=0.3476  <S**2>=0.000
     245 -> 248        0.17739
     246 -> 247        0.68466
     245 <- 248        0.11268
 This state for optimization and/or second-order correction.
 Total Energy, E(TD-HF/TD-DFT) =  -3007.79474991
 Copying the excited state density for this state as the 1-particle RhoCI density.

 Excited State   2:      Singlet-A      2.1485 eV  577.07 nm  f=0.0962  <S**2>=0.000
     245 -> 247        0.63380
     246 -> 248       -0.29063

 Excited State   3:      Singlet-A      3.1563 eV  392.81 nm  f=0.0124  <S**2>=0.000
     241 -> 247       -0.23151
     242 -> 247       -0.10390
     244 -> 247        0.63282
     244 -> 249        0.11435

 Excited State   4:      Singlet-A      3.2964 eV  376.12 nm  f=0.0468  <S**2>=0.000
     240 -> 247        0.43854
     240 -> 249       -0.20814
     241 -> 247       -0.33392
     244 -> 247       -0.11530
     246 -> 248        0.30056

 Excited State   5:      Singlet-A      3.3308 eV  372.23 nm  f=0.0398  <S**2>=0.000
     240 -> 247        0.40572
     240 -> 249       -0.20769
     241 -> 247        0.37008
     244 -> 247        0.18727
     246 -> 248       -0.25356

 The electronic state is 1-A.
 Alpha  occ. eigenvalues --  -46.95724 -19.30712 -19.29955 -19.25333 -19.24273
 Alpha  occ. eigenvalues --  -19.24248 -19.23017 -14.47254 -14.47030 -14.44033
 Alpha  occ. eigenvalues --  -14.43751 -10.43488 -10.43325 -10.39005 -10.38303
 Alpha  occ. eigenvalues --  -10.36706 -10.36681 -10.36326 -10.35683 -10.35210
 Alpha  occ. eigenvalues --  -10.34991 -10.34545 -10.34438 -10.33576 -10.32723
 Alpha  occ. eigenvalues --  -10.32640 -10.32581 -10.32541 -10.32333 -10.32266
 Alpha  occ. eigenvalues --  -10.32255 -10.32212 -10.32203 -10.31873 -10.31594
 Alpha  occ. eigenvalues --  -10.31508 -10.31165 -10.31151 -10.31008 -10.30942
 Alpha  occ. eigenvalues --  -10.30694 -10.30668 -10.30654 -10.30290 -10.30089
 Alpha  occ. eigenvalues --  -10.29991 -10.29846 -10.29718 -10.29716 -10.29609
 Alpha  occ. eigenvalues --  -10.29528 -10.29465 -10.29275 -10.29051 -10.28999
 Alpha  occ. eigenvalues --  -10.28891 -10.28803 -10.28766 -10.28652 -10.28637
 Alpha  occ. eigenvalues --  -10.28622 -10.28139 -10.28066 -10.27877 -10.27837
 Alpha  occ. eigenvalues --  -10.27599  -3.21555  -1.95127  -1.94697  -1.94489
 Alpha  occ. eigenvalues --   -1.17527  -1.16601  -1.12806  -1.11546  -1.09580
 Alpha  occ. eigenvalues --   -1.07737  -1.06455  -1.05608  -1.04824  -1.02883
 Alpha  occ. eigenvalues --   -0.96034  -0.92177  -0.91525  -0.91083  -0.90900
 Alpha  occ. eigenvalues --   -0.90666  -0.90279  -0.89923  -0.89579  -0.89031
 Alpha  occ. eigenvalues --   -0.87322  -0.86453  -0.86128  -0.85815  -0.85306
 Alpha  occ. eigenvalues --   -0.84431  -0.83994  -0.83145  -0.82948  -0.82566
 Alpha  occ. eigenvalues --   -0.81602  -0.80685  -0.80043  -0.79385  -0.78941
 Alpha  occ. eigenvalues --   -0.77742  -0.77276  -0.77055  -0.76579  -0.76043
 Alpha  occ. eigenvalues --   -0.75517  -0.74581  -0.74217  -0.72125  -0.71502
 Alpha  occ. eigenvalues --   -0.71144  -0.70260  -0.68708  -0.68386  -0.67952
 Alpha  occ. eigenvalues --   -0.67881  -0.67335  -0.66789  -0.66655  -0.65322
 Alpha  occ. eigenvalues --   -0.65044  -0.64925  -0.64643  -0.63549  -0.62456
 Alpha  occ. eigenvalues --   -0.61502  -0.61017  -0.60639  -0.60011  -0.59593
 Alpha  occ. eigenvalues --   -0.59386  -0.58866  -0.58423  -0.58257  -0.57796
 Alpha  occ. eigenvalues --   -0.57223  -0.56780  -0.56613  -0.56118  -0.55941
 Alpha  occ. eigenvalues --   -0.55385  -0.55203  -0.54935  -0.54576  -0.54532
 Alpha  occ. eigenvalues --   -0.54272  -0.54192  -0.54012  -0.53947  -0.53932
 Alpha  occ. eigenvalues --   -0.53577  -0.53350  -0.53123  -0.52790  -0.52560
 Alpha  occ. eigenvalues --   -0.52450  -0.52180  -0.51985  -0.51734  -0.51533
 Alpha  occ. eigenvalues --   -0.51502  -0.51227  -0.51023  -0.50963  -0.50748
 Alpha  occ. eigenvalues --   -0.50523  -0.50422  -0.50300  -0.49677  -0.49634
 Alpha  occ. eigenvalues --   -0.49421  -0.48961  -0.48892  -0.48674  -0.48538
 Alpha  occ. eigenvalues --   -0.48315  -0.48255  -0.48183  -0.47945  -0.47836
 Alpha  occ. eigenvalues --   -0.47567  -0.47262  -0.47204  -0.47191  -0.47018
 Alpha  occ. eigenvalues --   -0.46870  -0.46544  -0.46363  -0.46118  -0.46004
 Alpha  occ. eigenvalues --   -0.45844  -0.45732  -0.45428  -0.45219  -0.44914
 Alpha  occ. eigenvalues --   -0.44739  -0.44578  -0.44481  -0.44238  -0.44038
 Alpha  occ. eigenvalues --   -0.43898  -0.43666  -0.43617  -0.43330  -0.43250
 Alpha  occ. eigenvalues --   -0.42869  -0.42714  -0.42528  -0.42134  -0.41930
 Alpha  occ. eigenvalues --   -0.41444  -0.41402  -0.41293  -0.41275  -0.40647
 Alpha  occ. eigenvalues --   -0.40439  -0.40115  -0.39680  -0.39595  -0.39157
 Alpha  occ. eigenvalues --   -0.38730  -0.38677  -0.38456  -0.38325  -0.38220
 Alpha  occ. eigenvalues --   -0.37819  -0.37142  -0.36947  -0.36828  -0.36156
 Alpha  occ. eigenvalues --   -0.35924  -0.35909  -0.35479  -0.33848  -0.33194
 Alpha  occ. eigenvalues --   -0.32749  -0.32312  -0.31517  -0.30372  -0.26519
 Alpha  occ. eigenvalues --   -0.23430
 Alpha virt. eigenvalues --   -0.07490  -0.00436   0.02285   0.04549   0.04723
 Alpha virt. eigenvalues --    0.06528   0.06570   0.06648   0.07435   0.09792
 Alpha virt. eigenvalues --    0.09913   0.10972   0.11354   0.11940   0.12029

 Mulliken charges:
               1
     1  Mg   0.931919
     2  C    0.035980
     3  C   -0.081137
     4  C   -0.066931
     5  C   -0.090779
     6  N   -0.356840
     7  C    0.035454
     8  C   -0.066655
     9  C   -0.113545
    10  C    0.051436
    11  C    0.052938
    12  C    0.011105
    13  C   -0.037594
    14  C    0.256344
    15  O   -0.265453
    16  O   -0.381482
    17  N   -0.500963
    18  C    0.170222
    19  C   -0.155388
    20  C   -0.097017
    21  C    0.176846
    22  C    0.081964
    23  C    0.036782
    24  O   -0.236204
    25  C   -0.011566
    26  N   -0.350686
    27  C    0.049106
    28  C   -0.070701
    29  C   -0.085552
    30  C    0.062182
    31  C    0.024177
    32  C   -0.018835
    33  C   -0.070136
    34  N   -0.431643
    35  C    0.135414
    36  C   -0.199107
    37  C    0.033921
    38  C    0.091193
    39  C    0.088310
    40  C    0.068477
    41  O   -0.183828
    42  C   -0.095423
    43  C    0.276340
    44  O   -0.264311
    45  O   -0.382349
    46  C    0.131367
    47  C    0.251680
    48  C   -0.148922
    49  C   -0.206953
    50  C    0.060029
    51  C    0.033676
    52  C   -0.034785
    53  C   -0.001293
    54  C   -0.173968
    55  C    0.004904
    56  C    0.019453
    57  C   -0.045734
    58  C   -0.015812
    59  C   -0.196907
    60  C    0.028538
    61  C    0.022318
    62  C   -0.028679
    63  C   -0.004570
    64  C   -0.241751
    65  C    0.002939
    66  C    0.005862
    67  H    0.000934
    68  H   -0.018592
    69  H    0.001497
    70  H    0.014633
    71  H    0.035774
    72  H    0.045718
    73  H    0.046623
    74  H    0.031563
    75  H    0.057760
    76  H    0.040579
    77  H    0.047324
    78  H    0.078207
    79  H    0.049223
    80  H    0.016767
    81  H    0.056362
    82  H    0.058707
    83  H    0.077145
    84  H    0.042825
    85  H    0.037383
    86  H    0.034128
    87  H    0.048458
    88  H    0.033781
    89  H    0.025767
    90  H    0.043849
    91  H    0.043021
    92  H    0.044561
    93  H    0.042153
    94  H    0.028503
    95  H    0.055125
    96  H    0.068404
    97  H    0.042967
    98  H    0.093324
    99  H    0.050089
   100  H    0.068790
   101  H    0.077933
   102  H    0.041642
   103  H    0.043931
   104  H    0.023819
   105  H    0.036155
   106  H    0.033164
   107  H    0.043474
   108  H    0.011619
   109  H    0.040380
   110  H    0.030803
   111  H    0.017125
   112  H    0.023535
   113  H    0.010622
   114  H    0.013659
   115  H    0.035675
   116  H    0.019031
   117  H    0.023752
   118  H    0.009948
   119  H    0.020773
   120  H    0.035546
   121  H    0.029012
   122  H    0.015936
   123  H    0.000166
   124  H    0.014761
   125  H    0.023811
   126  H    0.026038
   127  H    0.028853
   128  H    0.015930
   129  H    0.008633
   130  H    0.018394
   131  H    0.025003
   132  H    0.015251
   133  H    0.021687
   134  H    0.030100
   135  H    0.035888
   136  H    0.015899
   137  H    0.026567
   138  H    0.029266
   139  H    0.040824
   140  H    0.024663
 Sum of Mulliken charges =  -0.00000

 Dipole moment (field-independent basis, Debye):
    X=              0.1668    Y=              5.2893    Z=             -0.5741  Tot=              5.3230
 Quadrupole moment (field-independent basis, Debye-Ang):
   XX=           -388.3078   YY=           -438.4156   ZZ=           -378.3642
   XY=            -67.0864   XZ=             -6.3208   YZ=            -37.9129

 Normal termination of Gaussian 16 at Wed Apr 27 23:45:56 2022.
