 Gaussian 16, Revision A.03,
 Gaussian 16:  ES64L-G16RevA.03 25-Dec-2016

 --------------------
 #p ZINDO=(nstates=5)
 --------------------

 -----------------------------
 step_1351_chromophore_2 ZINDO
 -----------------------------
 Symbolic Z-matrix:
 Charge =  0 Multiplicity = 1

                         Standard orientation:
 ---------------------------------------------------------------------
 Center     Atomic      Atomic             Coordinates (Angstroms)
 Number     Number       Type             X           Y           Z
 ---------------------------------------------------------------------
      1         12           0       -4.587497    1.319670    0.628200
      2          6           0       -5.216877   -2.158103    0.470486
      3          6           0       -2.075265    0.703075    2.906276
      4          6           0       -3.692419    4.467997    0.118201
      5          6           0       -6.972876    1.618210   -2.092277
      6          7           0       -3.551485   -0.512729    1.309869
      7          6           0       -4.018298   -1.784333    1.220823
      8          6           0       -3.113407   -2.727161    1.961294
      9          6           0       -2.468381   -1.795505    3.082132
     10          6           0       -2.741149   -0.399302    2.472257
     11          6           0       -3.017922   -2.004732    4.510181
     12          6           0       -2.016362   -3.652398    1.255156
     13          6           0       -1.415019   -3.123534   -0.101518
     14          6           0       -0.751075   -4.074959   -1.051578
     15          8           0       -1.189105   -5.205491   -1.288816
     16          8           0        0.465507   -3.500246   -1.512302
     17          7           0       -3.044245    2.417244    1.450887
     18          6           0       -2.168510    2.008894    2.443327
     19          6           0       -1.404013    3.167122    2.845438
     20          6           0       -1.994893    4.294531    2.164535
     21          6           0       -2.901472    3.778829    1.142416
     22          6           0       -0.345188    3.021466    3.911619
     23          6           0       -1.629361    5.767531    2.392591
     24          8           0       -0.692248    5.949113    3.156065
     25          6           0       -2.190498    6.879136    1.550860
     26          7           0       -5.209444    2.797046   -0.885264
     27          6           0       -4.610009    4.047111   -0.817490
     28          6           0       -5.284731    5.009761   -1.821569
     29          6           0       -6.328485    4.102938   -2.575441
     30          6           0       -6.195001    2.776207   -1.795176
     31          6           0       -5.717330    6.409834   -1.354646
     32          6           0       -6.133543    3.978732   -4.126086
     33          6           0       -7.445784    4.013187   -4.944485
     34          7           0       -5.903464   -0.015498   -0.443468
     35          6           0       -6.869796    0.318439   -1.466627
     36          6           0       -7.590995   -0.888970   -1.772902
     37          6           0       -7.010073   -1.882162   -1.010504
     38          6           0       -5.982916   -1.324296   -0.233170
     39          6           0       -8.644917   -1.020788   -2.839884
     40          6           0       -7.008077   -3.262785   -0.698908
     41          8           0       -7.798714   -4.138593   -0.998953
     42          6           0       -5.785728   -3.522833    0.203480
     43          6           0       -6.176425   -4.372825    1.356797
     44          8           0       -6.285605   -5.618491    1.458482
     45          8           0       -6.304135   -3.546946    2.431169
     46          6           0       -6.469181   -4.213460    3.807516
     47          6           0        1.228020   -4.394661   -2.391772
     48          6           0        2.427256   -3.674868   -2.958664
     49          6           0        3.539841   -3.193055   -2.269431
     50          6           0        3.840847   -3.317620   -0.794107
     51          6           0        4.724739   -2.645885   -3.031104
     52          6           0        5.091410   -1.138058   -2.720454
     53          6           0        6.478213   -0.831790   -2.143514
     54          6           0        6.404165   -0.348578   -0.644939
     55          6           0        6.214429    1.186764   -0.655624
     56          6           0        7.603041   -0.775378    0.145313
     57          6           0        8.998731   -0.545141   -0.521250
     58          6           0        9.911637    0.472438    0.205499
     59          6           0       11.203678   -0.305686    0.763474
     60          6           0       10.836538   -1.111790    1.933846
     61          6           0       12.354323    0.647951    1.073464
     62          6           0       13.136413    0.975079   -0.209915
     63          6           0       14.554079    0.299466   -0.231365
     64          6           0       15.682672    1.336833   -0.683788
     65          6           0       16.971581    0.635561   -1.142214
     66          6           0       16.096570    2.216116    0.532690
     67          1           0       -1.422071    0.527622    3.763555
     68          1           0       -3.464311    5.510723   -0.110996
     69          1           0       -7.810758    1.731704   -2.782108
     70          1           0       -3.768604   -3.494529    2.371651
     71          1           0       -1.391299   -1.882182    2.935532
     72          1           0       -3.750627   -1.239257    4.764676
     73          1           0       -2.121413   -1.966888    5.129241
     74          1           0       -3.513200   -2.962861    4.670005
     75          1           0       -2.568224   -4.582812    1.118098
     76          1           0       -1.146510   -3.764325    1.902309
     77          1           0       -0.638419   -2.462106    0.283279
     78          1           0       -2.114756   -2.448960   -0.595232
     79          1           0        0.542174    3.581084    3.617986
     80          1           0        0.003489    1.990939    3.968409
     81          1           0       -0.658149    3.361327    4.899125
     82          1           0       -3.252430    7.053600    1.729489
     83          1           0       -1.924791    6.740357    0.502610
     84          1           0       -1.709721    7.813897    1.838820
     85          1           0       -4.571307    5.238882   -2.613200
     86          1           0       -7.333009    4.503413   -2.434545
     87          1           0       -5.335614    6.782735   -0.403633
     88          1           0       -6.798295    6.528444   -1.432611
     89          1           0       -5.338332    7.070947   -2.134289
     90          1           0       -5.686984    2.993957   -4.260070
     91          1           0       -5.496634    4.732050   -4.590537
     92          1           0       -7.621256    3.026622   -5.375646
     93          1           0       -7.432354    4.784971   -5.713084
     94          1           0       -8.309243    4.255027   -4.323556
     95          1           0       -9.579272   -0.789206   -2.327994
     96          1           0       -8.698149   -2.049496   -3.197403
     97          1           0       -8.535059   -0.292673   -3.643365
     98          1           0       -5.108675   -4.121640   -0.406670
     99          1           0       -6.781982   -3.448657    4.518520
    100          1           0       -5.568770   -4.635793    4.253875
    101          1           0       -7.312192   -4.898888    3.716921
    102          1           0        0.561352   -4.801226   -3.151768
    103          1           0        1.627495   -5.252154   -1.849792
    104          1           0        2.441441   -3.628183   -4.047529
    105          1           0        4.692910   -3.996445   -0.741289
    106          1           0        3.081350   -3.806299   -0.184063
    107          1           0        4.105424   -2.336354   -0.401435
    108          1           0        4.380236   -2.685397   -4.064705
    109          1           0        5.499238   -3.410318   -2.973809
    110          1           0        4.265972   -0.615839   -2.235611
    111          1           0        5.080476   -0.651122   -3.695701
    112          1           0        6.949114   -0.117737   -2.819402
    113          1           0        7.101262   -1.723656   -2.205566
    114          1           0        5.458493   -0.739136   -0.268411
    115          1           0        5.446464    1.528706    0.038664
    116          1           0        5.933312    1.523777   -1.652772
    117          1           0        7.203464    1.596364   -0.454225
    118          1           0        7.453791   -1.843308    0.302544
    119          1           0        7.569131   -0.386256    1.162634
    120          1           0        9.028639   -0.277565   -1.578040
    121          1           0        9.411878   -1.553821   -0.484368
    122          1           0        9.408778    1.123170    0.921167
    123          1           0       10.249449    1.257063   -0.470511
    124          1           0       11.449778   -0.932967   -0.092376
    125          1           0        9.824397   -1.516858    1.928714
    126          1           0       10.944161   -0.526485    2.847024
    127          1           0       11.573852   -1.914283    1.909076
    128          1           0       13.013320    0.328205    1.880795
    129          1           0       11.896947    1.567338    1.437556
    130          1           0       13.174311    2.061819   -0.276173
    131          1           0       12.535299    0.647465   -1.058515
    132          1           0       14.538167   -0.464576   -1.008742
    133          1           0       14.840111   -0.153341    0.718070
    134          1           0       15.170561    1.843563   -1.502177
    135          1           0       17.496229    1.277166   -1.850139
    136          1           0       16.731873   -0.323010   -1.601486
    137          1           0       17.652880    0.422450   -0.318431
    138          1           0       15.554136    3.147502    0.366928
    139          1           0       17.169979    2.360249    0.656422
    140          1           0       15.672650    1.774914    1.434913
 ---------------------------------------------------------------------

 SCF Done:  E(RZINDO/S) =  -474.049044097     A.U. after   20 cycles

 Excitation energies and oscillator strengths:

 Excited State   1:      Singlet-A      1.3072 eV  948.49 nm  f=0.5091  <S**2>=0.000
     175 ->178        -0.15880
     176 ->177         0.67335
 This state for optimization and/or second-order correction.
 Total Energy, E(CIS/TDA) =  -474.001006557
 Copying the excited state density for this state as the 1-particle RhoCI density.

 Excited State   2:      Singlet-A      1.9247 eV  644.16 nm  f=0.0326  <S**2>=0.000
     175 ->177         0.53424
     176 ->178         0.42916

 Excited State   3:      Singlet-A      2.7958 eV  443.46 nm  f=0.0021  <S**2>=0.000
     167 ->179        -0.10967
     168 ->177         0.41442
     168 ->179         0.38838
     168 ->183         0.10335
     168 ->186         0.20102

 Excited State   4:      Singlet-A      2.9255 eV  423.80 nm  f=0.8169  <S**2>=0.000
     170 ->177        -0.14090
     171 ->177         0.10724
     171 ->182        -0.13283
     172 ->177        -0.13092
     175 ->177        -0.34053
     176 ->178         0.46333

 Excited State   5:      Singlet-A      2.9534 eV  419.81 nm  f=0.1816  <S**2>=0.000
     170 ->177         0.11040
     171 ->177         0.11095
     171 ->178         0.10180
     171 ->179        -0.17578
     171 ->180         0.12057
     171 ->182        -0.28109
     171 ->183         0.14521
     171 ->184        -0.17876
     171 ->186        -0.16436
     171 ->187         0.10611
     171 ->188         0.13015
     174 ->177         0.15396
     174 ->182        -0.10877
     175 ->177         0.15114
     176 ->178        -0.21124
     176 ->179        -0.16703

 The electronic state is 1-A.
 Alpha  occ. eigenvalues --   -1.86321  -1.79043  -1.78307  -1.71512  -1.70732
 Alpha  occ. eigenvalues --   -1.69335  -1.66622  -1.61506  -1.59898  -1.57886
 Alpha  occ. eigenvalues --   -1.55079  -1.51685  -1.49354  -1.48024  -1.47266
 Alpha  occ. eigenvalues --   -1.43046  -1.42130  -1.41100  -1.38584  -1.37472
 Alpha  occ. eigenvalues --   -1.36079  -1.34632  -1.31560  -1.30339  -1.27644
 Alpha  occ. eigenvalues --   -1.27036  -1.25972  -1.22604  -1.21530  -1.19308
 Alpha  occ. eigenvalues --   -1.17787  -1.16031  -1.15698  -1.14005  -1.13597
 Alpha  occ. eigenvalues --   -1.12540  -1.11672  -1.09074  -1.07099  -1.04596
 Alpha  occ. eigenvalues --   -1.02640  -1.01491  -0.99254  -0.97880  -0.97637
 Alpha  occ. eigenvalues --   -0.97137  -0.93860  -0.93603  -0.92350  -0.91741
 Alpha  occ. eigenvalues --   -0.91295  -0.90625  -0.88221  -0.87815  -0.85585
 Alpha  occ. eigenvalues --   -0.85306  -0.84841  -0.83909  -0.83336  -0.80596
 Alpha  occ. eigenvalues --   -0.79178  -0.78333  -0.77925  -0.77377  -0.77234
 Alpha  occ. eigenvalues --   -0.75529  -0.74344  -0.73725  -0.73378  -0.73201
 Alpha  occ. eigenvalues --   -0.73026  -0.72689  -0.72349  -0.71949  -0.71100
 Alpha  occ. eigenvalues --   -0.70468  -0.69030  -0.68764  -0.68665  -0.68393
 Alpha  occ. eigenvalues --   -0.68216  -0.67516  -0.67285  -0.66600  -0.65903
 Alpha  occ. eigenvalues --   -0.65835  -0.65239  -0.64537  -0.64166  -0.63729
 Alpha  occ. eigenvalues --   -0.63368  -0.63073  -0.62666  -0.62566  -0.61954
 Alpha  occ. eigenvalues --   -0.61309  -0.61163  -0.60733  -0.60340  -0.59999
 Alpha  occ. eigenvalues --   -0.59534  -0.59125  -0.58775  -0.58496  -0.58482
 Alpha  occ. eigenvalues --   -0.58052  -0.57574  -0.56965  -0.56782  -0.56555
 Alpha  occ. eigenvalues --   -0.56394  -0.55858  -0.55591  -0.55088  -0.54560
 Alpha  occ. eigenvalues --   -0.54307  -0.54189  -0.54025  -0.53634  -0.53370
 Alpha  occ. eigenvalues --   -0.52941  -0.52894  -0.52453  -0.52143  -0.51961
 Alpha  occ. eigenvalues --   -0.51733  -0.51452  -0.51276  -0.51000  -0.50596
 Alpha  occ. eigenvalues --   -0.50545  -0.50016  -0.49509  -0.49443  -0.48935
 Alpha  occ. eigenvalues --   -0.48868  -0.48530  -0.48227  -0.48082  -0.47646
 Alpha  occ. eigenvalues --   -0.47514  -0.47050  -0.46747  -0.46597  -0.46497
 Alpha  occ. eigenvalues --   -0.46324  -0.46112  -0.45721  -0.45571  -0.45365
 Alpha  occ. eigenvalues --   -0.44888  -0.44853  -0.44488  -0.44349  -0.44164
 Alpha  occ. eigenvalues --   -0.43538  -0.43436  -0.43125  -0.42680  -0.42606
 Alpha  occ. eigenvalues --   -0.41951  -0.41944  -0.41784  -0.39724  -0.39538
 Alpha  occ. eigenvalues --   -0.38737  -0.37535  -0.36080  -0.35381  -0.34685
 Alpha  occ. eigenvalues --   -0.34390  -0.33115  -0.31778  -0.30920  -0.27521
 Alpha  occ. eigenvalues --   -0.22370
 Alpha virt. eigenvalues --   -0.08889  -0.02692  -0.00953   0.00976   0.01071
 Alpha virt. eigenvalues --    0.01249   0.01731   0.02627   0.04152   0.04243
 Alpha virt. eigenvalues --    0.05842   0.05914   0.06659   0.07213   0.07867

 Mulliken charges:
               1
     1  Mg   0.429321
     2  C   -0.060504
     3  C   -0.039880
     4  C   -0.063745
     5  C   -0.086746
     6  N   -0.291382
     7  C    0.191239
     8  C   -0.005865
     9  C   -0.007135
    10  C    0.071082
    11  C   -0.044308
    12  C   -0.018698
    13  C    0.000137
    14  C    0.468891
    15  O   -0.503234
    16  O   -0.270217
    17  N   -0.325984
    18  C    0.067336
    19  C    0.004297
    20  C   -0.052969
    21  C    0.078732
    22  C   -0.035098
    23  C    0.320505
    24  O   -0.522093
    25  C   -0.026838
    26  N   -0.269292
    27  C    0.087693
    28  C   -0.002077
    29  C    0.004558
    30  C    0.179422
    31  C   -0.049972
    32  C   -0.028639
    33  C   -0.059798
    34  N   -0.365230
    35  C    0.120059
    36  C    0.070468
    37  C   -0.032625
    38  C    0.155006
    39  C   -0.036390
    40  C    0.338961
    41  O   -0.501652
    42  C    0.064382
    43  C    0.488085
    44  O   -0.519513
    45  O   -0.278746
    46  C    0.070567
    47  C    0.106790
    48  C   -0.105195
    49  C    0.002811
    50  C   -0.040963
    51  C   -0.024203
    52  C   -0.032302
    53  C   -0.031045
    54  C   -0.009399
    55  C   -0.061732
    56  C   -0.022200
    57  C   -0.033825
    58  C   -0.044897
    59  C   -0.004693
    60  C   -0.050398
    61  C   -0.034238
    62  C   -0.039402
    63  C   -0.040979
    64  C   -0.021256
    65  C   -0.055740
    66  C   -0.057572
    67  H    0.026407
    68  H    0.025962
    69  H    0.031211
    70  H    0.023488
    71  H    0.034492
    72  H    0.029424
    73  H    0.022243
    74  H    0.021875
    75  H    0.034768
    76  H    0.033603
    77  H    0.026667
    78  H    0.050912
    79  H    0.030014
    80  H    0.014406
    81  H    0.036754
    82  H    0.036108
    83  H    0.042920
    84  H    0.025677
    85  H    0.023413
    86  H    0.031188
    87  H    0.033685
    88  H    0.019480
    89  H    0.011935
    90  H    0.021955
    91  H    0.029526
    92  H    0.020477
    93  H    0.021984
    94  H    0.016532
    95  H    0.036476
    96  H    0.041295
    97  H    0.031156
    98  H    0.065628
    99  H    0.025973
   100  H    0.051599
   101  H    0.055146
   102  H    0.045604
   103  H    0.043421
   104  H    0.029010
   105  H    0.025539
   106  H    0.021349
   107  H    0.034769
   108  H    0.011136
   109  H    0.035407
   110  H    0.028115
   111  H    0.005638
   112  H    0.021794
   113  H    0.012775
   114  H    0.019652
   115  H    0.022174
   116  H    0.015059
   117  H    0.020729
   118  H    0.004157
   119  H    0.017509
   120  H    0.025466
   121  H    0.015326
   122  H    0.024286
   123  H    0.006449
   124  H    0.020371
   125  H    0.017896
   126  H    0.017942
   127  H    0.012708
   128  H    0.021364
   129  H    0.011159
   130  H    0.017517
   131  H    0.020726
   132  H    0.012667
   133  H    0.027227
   134  H    0.028959
   135  H    0.016907
   136  H    0.011793
   137  H    0.019684
   138  H    0.013402
   139  H    0.028068
   140  H    0.020195
 Sum of Mulliken charges =  -0.00000

 Dipole moment (field-independent basis, Debye):
    X=             -1.6862    Y=              5.2166    Z=             -2.8907  Tot=              6.1977
 N-N= 4.337904970758D+03 E-N= 0.000000000000D+00  KE=-9.349300646876D+03
 Leave Link  601 at Thu Apr 28 00:06:04 2022, MaxMem=  6710886400 cpu:               0.7 elap:               0.0
 (Enter /sw/apps/gaussian-16.0/g16/l9999.exe)
 1\1\GINC-BP1-COMPUTE164\SP\RZINDO CIS\STO-3G\C55H74Mg1N4O6\OF15641\28-
 Apr-2022\0\\#p ZINDO=(nstates=5)\\step_1351_chromophore_2 ZINDO\\0,1\M
 g,0,2.708,0.642,44.303\C,0,5.946,2.061,44.17\C,0,1.503,3.374,42.581\C,
 0,-0.059,-1.137,43.913\C,0,4.326,-2.29,45.705\N,0,3.666,2.309,43.208\C
 ,0,4.938,2.755,43.369\C,0,5.153,4.018,42.585\C,0,3.692,4.652,42.523\C,
 0,2.835,3.405,42.849\C,0,3.46,5.866,43.449\C,0,5.885,4.074,41.164\C,0,
 5.798,2.777,40.274\C,0,6.79,2.553,39.172\O,0,7.993,2.81,39.286\O,0,6.1

 Normal termination of Gaussian 16 at Thu Apr 28 00:06:04 2022.
