 Gaussian 16, Revision A.03,
 Gaussian 16:  ES64L-G16RevA.03 25-Dec-2016

 ------------------------------
 #p blyp/Def2SVP td=(nstates=5)
 ------------------------------

 --------------------------------------------------
 step_101_chromophore_22 TDDFT with blyp functional
 --------------------------------------------------
 Symbolic Z-matrix:
 Charge =  0 Multiplicity = 1

                         Standard orientation:
 ---------------------------------------------------------------------
 Center     Atomic      Atomic             Coordinates (Angstroms)
 Number     Number       Type             X           Y           Z
 ---------------------------------------------------------------------
      1         12           0        6.119821    0.651728    0.016464
      2          6           0        4.125846   -2.234430   -0.743894
      3          6           0        3.771513    2.583346   -1.481346
      4          6           0        8.223382    3.252553    0.276874
      5          6           0        8.780997   -1.556501    0.659233
      6          7           0        4.272985    0.200713   -1.222826
      7          6           0        3.555726   -1.007718   -1.080538
      8          6           0        2.102482   -0.865510   -1.465146
      9          6           0        2.139691    0.615393   -2.101767
     10          6           0        3.422362    1.236781   -1.509297
     11          6           0        2.180329    0.538206   -3.683175
     12          6           0        1.088006   -0.885800   -0.318411
     13          6           0       -0.416392   -1.072964   -0.715330
     14          6           0       -1.160243   -1.795927    0.370063
     15          8           0       -0.650143   -2.519987    1.296186
     16          8           0       -2.497021   -1.508867    0.314677
     17          7           0        5.929995    2.589164   -0.338303
     18          6           0        4.875479    3.222508   -0.951078
     19          6           0        5.140157    4.596979   -0.905365
     20          6           0        6.398296    4.864238   -0.240379
     21          6           0        6.884125    3.506208   -0.049928
     22          6           0        4.066193    5.676947   -1.362330
     23          6           0        7.090878    6.106534    0.092053
     24          8           0        8.229512    6.196233    0.542489
     25          6           0        6.391192    7.456974   -0.220584
     26          7           0        8.241321    0.763128    0.281131
     27          6           0        8.848764    2.002661    0.366092
     28          6           0       10.373213    1.832727    0.566923
     29          6           0       10.478855    0.336849    1.112961
     30          6           0        9.169834   -0.212622    0.581308
     31          6           0       11.140102    2.083045   -0.748570
     32          6           0       10.682599    0.244584    2.650938
     33          6           0       11.603335   -0.884794    3.140902
     34          7           0        6.438553   -1.485112    0.026048
     35          6           0        7.530040   -2.199171    0.354776
     36          6           0        7.150700   -3.622798    0.397274
     37          6           0        5.860940   -3.661689   -0.021295
     38          6           0        5.453055   -2.359387   -0.301974
     39          6           0        8.079282   -4.740288    0.731523
     40          6           0        4.770522   -4.605936   -0.300523
     41          8           0        4.695636   -5.825352   -0.168544
     42          6           0        3.612838   -3.729961   -0.857781
     43          6           0        2.427706   -4.121856   -0.083673
     44          8           0        2.260061   -3.977917    1.107567
     45          8           0        1.477669   -4.604179   -0.961067
     46          6           0        0.228786   -5.102902   -0.399991
     47          6           0       -3.412291   -2.073973    1.357201
     48          6           0       -4.917906   -1.596626    1.087759
     49          6           0       -6.008492   -2.368817    0.681658
     50          6           0       -5.825986   -3.797004    0.203469
     51          6           0       -7.424838   -1.793627    0.580334
     52          6           0       -8.208981   -2.077813   -0.709640
     53          6           0       -8.705375   -0.650032   -1.247615
     54          6           0      -10.057239   -0.174482   -0.670009
     55          6           0      -11.197057   -0.171689   -1.758976
     56          6           0       -9.936616    1.140350    0.086772
     57          6           0      -10.852804    1.317197    1.308624
     58          6           0      -11.799207    2.545873    1.176083
     59          6           0      -12.801276    2.552346    2.269005
     60          6           0      -12.425321    3.688275    3.313759
     61          6           0      -14.182869    2.766109    1.706371
     62          6           0      -14.874099    1.436718    1.219775
     63          6           0      -15.089418    1.546629   -0.310162
     64          6           0      -16.181077    0.632642   -0.768038
     65          6           0      -15.783681   -0.893293   -0.602055
     66          6           0      -16.386818    0.916321   -2.232112
     67          1           0        3.063736    3.248725   -1.982420
     68          1           0        8.926978    4.061712    0.485261
     69          1           0        9.449817   -2.307014    1.083733
     70          1           0        1.801398   -1.608885   -2.203365
     71          1           0        1.266255    1.202044   -1.816177
     72          1           0        1.159495    0.440863   -4.050103
     73          1           0        2.877458   -0.244617   -3.984066
     74          1           0        2.645866    1.487223   -3.948843
     75          1           0        1.165557    0.006462    0.303190
     76          1           0        1.385990   -1.651762    0.397169
     77          1           0       -0.521931   -1.566331   -1.681694
     78          1           0       -0.859431   -0.079205   -0.787222
     79          1           0        3.243021    5.266911   -1.948077
     80          1           0        4.467949    6.364254   -2.105991
     81          1           0        3.641938    6.203666   -0.507501
     82          1           0        5.411537    7.577169    0.242076
     83          1           0        6.402764    7.642015   -1.294249
     84          1           0        6.911085    8.281249    0.267893
     85          1           0       10.772281    2.430021    1.385849
     86          1           0       11.377801   -0.077486    0.656299
     87          1           0       10.432792    2.255725   -1.559515
     88          1           0       11.834157    1.267540   -0.951934
     89          1           0       11.752674    2.952135   -0.511219
     90          1           0        9.724644    0.002842    3.111476
     91          1           0       10.934371    1.249357    2.991966
     92          1           0       11.371970   -1.452451    4.041884
     93          1           0       12.632743   -0.555042    3.285212
     94          1           0       11.636207   -1.602564    2.320422
     95          1           0        7.482492   -5.370367    1.390446
     96          1           0        8.987554   -4.322894    1.166297
     97          1           0        8.384020   -5.241246   -0.187478
     98          1           0        3.547857   -3.993539   -1.913623
     99          1           0       -0.478020   -4.424812   -0.878185
    100          1           0        0.177228   -5.049091    0.686779
    101          1           0       -0.004669   -6.072307   -0.841779
    102          1           0       -3.261379   -1.704897    2.370757
    103          1           0       -3.363703   -3.147534    1.174931
    104          1           0       -5.075999   -0.588185    1.471349
    105          1           0       -4.896130   -4.112700   -0.269837
    106          1           0       -6.651774   -4.115668   -0.433103
    107          1           0       -5.806613   -4.367805    1.131778
    108          1           0       -7.244664   -0.721074    0.650996
    109          1           0       -7.889612   -2.101536    1.516994
    110          1           0       -9.046436   -2.689165   -0.371745
    111          1           0       -7.598623   -2.637476   -1.418147
    112          1           0       -8.943368   -0.784151   -2.303210
    113          1           0       -7.952181    0.135103   -1.176418
    114          1           0      -10.441740   -0.930221    0.014608
    115          1           0      -11.870696    0.685162   -1.718829
    116          1           0      -11.836411   -1.045688   -1.639531
    117          1           0      -10.885519   -0.143459   -2.803025
    118          1           0       -9.946828    2.009792   -0.570245
    119          1           0       -8.952975    1.161174    0.556533
    120          1           0      -10.274574    1.531905    2.207263
    121          1           0      -11.337258    0.376751    1.572651
    122          1           0      -12.337183    2.559141    0.228322
    123          1           0      -11.258267    3.487458    1.083413
    124          1           0      -12.922355    1.663169    2.889155
    125          1           0      -11.464089    4.162959    3.117948
    126          1           0      -12.342291    3.348472    4.345998
    127          1           0      -13.194377    4.453631    3.210012
    128          1           0      -14.137613    3.532279    0.932734
    129          1           0      -14.787498    3.120100    2.541571
    130          1           0      -15.833582    1.239520    1.697765
    131          1           0      -14.246009    0.563189    1.393322
    132          1           0      -14.162260    1.339062   -0.843950
    133          1           0      -15.464687    2.547034   -0.524072
    134          1           0      -17.088074    0.900501   -0.226731
    135          1           0      -15.062645   -1.284768   -1.318622
    136          1           0      -16.648541   -1.553670   -0.672257
    137          1           0      -15.220507   -1.035792    0.319970
    138          1           0      -17.424779    1.128886   -2.488705
    139          1           0      -16.181023    0.031732   -2.833783
    140          1           0      -15.692273    1.642717   -2.653240
 ---------------------------------------------------------------------

 SCF Done:  E(RB-LYP) =  -3007.38198885     A.U. after   21 cycles

 Excitation energies and oscillator strengths:

 Excited State   1:      Singlet-A      1.7900 eV  692.66 nm  f=0.3037  <S**2>=0.000
     245 -> 248       -0.17438
     246 -> 247        0.69322
     246 <- 247       -0.15364
 This state for optimization and/or second-order correction.
 Total Energy, E(TD-HF/TD-DFT) =  -3007.31620820
 Copying the excited state density for this state as the 1-particle RhoCI density.

 Excited State   2:      Singlet-A      1.8395 eV  674.00 nm  f=0.0009  <S**2>=0.000
     244 -> 247        0.70520

 Excited State   3:      Singlet-A      2.0020 eV  619.31 nm  f=0.0464  <S**2>=0.000
     243 -> 247       -0.45788
     245 -> 247        0.49693
     246 -> 248        0.16537

 Excited State   4:      Singlet-A      2.0123 eV  616.14 nm  f=0.0322  <S**2>=0.000
     243 -> 247        0.53727
     245 -> 247        0.42197
     246 -> 248        0.15215

 Excited State   5:      Singlet-A      2.2950 eV  540.23 nm  f=0.0006  <S**2>=0.000
     242 -> 247        0.70692

 The electronic state is 1-A.
 Alpha  occ. eigenvalues --  -46.27092 -18.82197 -18.80971 -18.76384 -18.76021
 Alpha  occ. eigenvalues --  -18.75757 -18.75252 -14.03144 -14.03009 -14.01066
 Alpha  occ. eigenvalues --  -14.00460 -10.04383 -10.02965  -9.99732  -9.99594
 Alpha  occ. eigenvalues --   -9.98878  -9.96605  -9.96594  -9.96383  -9.96297
 Alpha  occ. eigenvalues --   -9.96026  -9.95654  -9.95303  -9.95285  -9.94451
 Alpha  occ. eigenvalues --   -9.94150  -9.94063  -9.94016  -9.93945  -9.93903
 Alpha  occ. eigenvalues --   -9.93870  -9.93687  -9.93625  -9.93393  -9.93027
 Alpha  occ. eigenvalues --   -9.92992  -9.92973  -9.92773  -9.92764  -9.92739
 Alpha  occ. eigenvalues --   -9.92679  -9.92671  -9.92639  -9.92563  -9.92544
 Alpha  occ. eigenvalues --   -9.92391  -9.92174  -9.92097  -9.92048  -9.92021
 Alpha  occ. eigenvalues --   -9.91991  -9.91756  -9.91724  -9.91448  -9.91294
 Alpha  occ. eigenvalues --   -9.91166  -9.91134  -9.91132  -9.91096  -9.90997
 Alpha  occ. eigenvalues --   -9.90793  -9.90729  -9.90708  -9.90553  -9.90336
 Alpha  occ. eigenvalues --   -9.90137  -2.91775  -1.72159  -1.71684  -1.71489
 Alpha  occ. eigenvalues --   -0.96736  -0.96410  -0.91161  -0.91085  -0.89211
 Alpha  occ. eigenvalues --   -0.87197  -0.86595  -0.86263  -0.84887  -0.84364
 Alpha  occ. eigenvalues --   -0.75135  -0.73996  -0.73512  -0.72474  -0.72303
 Alpha  occ. eigenvalues --   -0.71995  -0.71532  -0.71445  -0.70549  -0.69990
 Alpha  occ. eigenvalues --   -0.69535  -0.68937  -0.68003  -0.67477  -0.67339
 Alpha  occ. eigenvalues --   -0.66297  -0.65687  -0.64943  -0.64783  -0.64132
 Alpha  occ. eigenvalues --   -0.63701  -0.62366  -0.62323  -0.61582  -0.60758
 Alpha  occ. eigenvalues --   -0.60543  -0.60072  -0.59936  -0.59805  -0.59046
 Alpha  occ. eigenvalues --   -0.58155  -0.57367  -0.56574  -0.55593  -0.54497
 Alpha  occ. eigenvalues --   -0.54347  -0.53927  -0.53005  -0.52767  -0.51752
 Alpha  occ. eigenvalues --   -0.51214  -0.50929  -0.50402  -0.50385  -0.50266
 Alpha  occ. eigenvalues --   -0.49424  -0.48983  -0.48908  -0.47696  -0.46822
 Alpha  occ. eigenvalues --   -0.46247  -0.46077  -0.45730  -0.45105  -0.44421
 Alpha  occ. eigenvalues --   -0.44233  -0.43833  -0.42903  -0.42549  -0.42106
 Alpha  occ. eigenvalues --   -0.41858  -0.41648  -0.41523  -0.41185  -0.40836
 Alpha  occ. eigenvalues --   -0.40672  -0.40523  -0.40457  -0.40099  -0.39894
 Alpha  occ. eigenvalues --   -0.39663  -0.39451  -0.39321  -0.39256  -0.39089
 Alpha  occ. eigenvalues --   -0.38907  -0.38614  -0.38530  -0.38410  -0.38107
 Alpha  occ. eigenvalues --   -0.37874  -0.37771  -0.37267  -0.37134  -0.37083
 Alpha  occ. eigenvalues --   -0.36657  -0.36485  -0.36377  -0.36261  -0.36217
 Alpha  occ. eigenvalues --   -0.36011  -0.35910  -0.35840  -0.35583  -0.35493
 Alpha  occ. eigenvalues --   -0.35279  -0.35268  -0.35182  -0.34856  -0.34731
 Alpha  occ. eigenvalues --   -0.34506  -0.34318  -0.34108  -0.33892  -0.33870
 Alpha  occ. eigenvalues --   -0.33642  -0.33349  -0.33278  -0.33179  -0.32809
 Alpha  occ. eigenvalues --   -0.32741  -0.32368  -0.32295  -0.32266  -0.32056
 Alpha  occ. eigenvalues --   -0.31924  -0.31645  -0.31590  -0.31383  -0.31314
 Alpha  occ. eigenvalues --   -0.30995  -0.30866  -0.30661  -0.30605  -0.30503
 Alpha  occ. eigenvalues --   -0.30345  -0.30142  -0.29998  -0.29948  -0.29722
 Alpha  occ. eigenvalues --   -0.29652  -0.29447  -0.29392  -0.29374  -0.28956
 Alpha  occ. eigenvalues --   -0.28881  -0.28685  -0.28286  -0.28251  -0.27917
 Alpha  occ. eigenvalues --   -0.27671  -0.27302  -0.27181  -0.26775  -0.26390
 Alpha  occ. eigenvalues --   -0.26328  -0.26088  -0.25954  -0.25535  -0.25433
 Alpha  occ. eigenvalues --   -0.24832  -0.24261  -0.24066  -0.23528  -0.23413
 Alpha  occ. eigenvalues --   -0.23140  -0.22287  -0.21514  -0.21126  -0.20852
 Alpha  occ. eigenvalues --   -0.20533  -0.20111  -0.18969  -0.18341  -0.17338
 Alpha  occ. eigenvalues --   -0.15870
 Alpha virt. eigenvalues --   -0.11679  -0.06837  -0.06155  -0.04760  -0.03993
 Alpha virt. eigenvalues --   -0.03311  -0.03031  -0.01967  -0.01809   0.00773
 Alpha virt. eigenvalues --    0.01655   0.01834   0.01946   0.02487   0.02831

 Mulliken charges:
               1
     1  Mg   0.710531
     2  C    0.009188
     3  C   -0.072453
     4  C   -0.053647
     5  C   -0.048314
     6  N   -0.235818
     7  C   -0.064389
     8  C    0.015861
     9  C   -0.013466
    10  C    0.027676
    11  C    0.148481
    12  C    0.079176
    13  C    0.141239
    14  C    0.099043
    15  O   -0.239126
    16  O   -0.272946
    17  N   -0.326937
    18  C    0.189346
    19  C   -0.141029
    20  C    0.065465
    21  C    0.132708
    22  C    0.151195
    23  C   -0.087219
    24  O   -0.164867
    25  C    0.115193
    26  N   -0.238364
    27  C    0.028384
    28  C   -0.044964
    29  C    0.000521
    30  C    0.072095
    31  C    0.157289
    32  C    0.125477
    33  C    0.051988
    34  N   -0.210021
    35  C    0.039929
    36  C   -0.202672
    37  C    0.107823
    38  C    0.074075
    39  C    0.183688
    40  C   -0.058534
    41  O   -0.129775
    42  C    0.102611
    43  C    0.116047
    44  O   -0.159244
    45  O   -0.289103
    46  C    0.214333
    47  C    0.311354
    48  C   -0.119167
    49  C   -0.169727
    50  C    0.119998
    51  C    0.127007
    52  C    0.072659
    53  C    0.114990
    54  C   -0.060695
    55  C    0.074745
    56  C    0.144911
    57  C    0.058248
    58  C    0.130450
    59  C   -0.098838
    60  C    0.105255
    61  C    0.132227
    62  C    0.082483
    63  C    0.025846
    64  C   -0.059439
    65  C    0.088350
    66  C    0.135922
    67  H   -0.069583
    68  H   -0.041287
    69  H   -0.075155
    70  H   -0.031251
    71  H   -0.043065
    72  H    0.003322
    73  H   -0.002873
    74  H   -0.020162
    75  H   -0.034550
    76  H    0.019991
    77  H    0.008057
    78  H    0.001718
    79  H   -0.028761
    80  H   -0.008835
    81  H    0.016334
    82  H   -0.007899
    83  H    0.013958
    84  H   -0.022929
    85  H   -0.027591
    86  H   -0.037458
    87  H    0.010831
    88  H   -0.011874
    89  H   -0.002355
    90  H   -0.019995
    91  H   -0.019777
    92  H   -0.002907
    93  H   -0.011412
    94  H   -0.008436
    95  H    0.023908
    96  H   -0.022695
    97  H    0.012077
    98  H    0.001485
    99  H   -0.008398
   100  H    0.052464
   101  H    0.004389
   102  H    0.021621
   103  H   -0.010518
   104  H   -0.032717
   105  H    0.004439
   106  H   -0.004922
   107  H    0.001729
   108  H   -0.020772
   109  H   -0.006935
   110  H   -0.020214
   111  H   -0.003784
   112  H   -0.047645
   113  H   -0.015555
   114  H   -0.042015
   115  H   -0.012996
   116  H   -0.012893
   117  H   -0.018908
   118  H   -0.033142
   119  H   -0.049793
   120  H   -0.039071
   121  H   -0.033723
   122  H   -0.046043
   123  H   -0.037467
   124  H   -0.040930
   125  H   -0.027074
   126  H   -0.018031
   127  H   -0.024457
   128  H   -0.032834
   129  H   -0.051207
   130  H   -0.034472
   131  H   -0.018554
   132  H   -0.014261
   133  H   -0.025857
   134  H   -0.036153
   135  H   -0.020609
   136  H   -0.010356
   137  H   -0.029540
   138  H   -0.022125
   139  H   -0.040961
   140  H   -0.023590
 Sum of Mulliken charges =  -0.00000

 Dipole moment (field-independent basis, Debye):
    X=             -4.4734    Y=              1.9717    Z=             -1.9204  Tot=              5.2523
 Quadrupole moment (field-independent basis, Debye-Ang):
   XX=           -369.1131   YY=           -435.5688   ZZ=           -404.5670
   XY=              3.0047   XZ=              1.5723   YZ=              0.5624

 Normal termination of Gaussian 16 at Wed Apr 27 01:18:25 2022.
