 Gaussian 16, Revision A.03,
 Gaussian 16:  ES64L-G16RevA.03 25-Dec-2016

 -----------------------------------
 #p cam-b3lyp/Def2SVP td=(nstates=5)
 -----------------------------------

 -------------------------------------------------------
 step_101_chromophore_22 TDDFT with cam-b3lyp functional
 -------------------------------------------------------
 Symbolic Z-matrix:
 Charge =  0 Multiplicity = 1

                         Standard orientation:
 ---------------------------------------------------------------------
 Center     Atomic      Atomic             Coordinates (Angstroms)
 Number     Number       Type             X           Y           Z
 ---------------------------------------------------------------------
      1         12           0        6.119821    0.651728    0.016464
      2          6           0        4.125846   -2.234430   -0.743894
      3          6           0        3.771513    2.583346   -1.481346
      4          6           0        8.223382    3.252553    0.276874
      5          6           0        8.780997   -1.556501    0.659233
      6          7           0        4.272985    0.200713   -1.222826
      7          6           0        3.555726   -1.007718   -1.080538
      8          6           0        2.102482   -0.865510   -1.465146
      9          6           0        2.139691    0.615393   -2.101767
     10          6           0        3.422362    1.236781   -1.509297
     11          6           0        2.180329    0.538206   -3.683175
     12          6           0        1.088006   -0.885800   -0.318411
     13          6           0       -0.416392   -1.072964   -0.715330
     14          6           0       -1.160243   -1.795927    0.370063
     15          8           0       -0.650143   -2.519987    1.296186
     16          8           0       -2.497021   -1.508867    0.314677
     17          7           0        5.929995    2.589164   -0.338303
     18          6           0        4.875479    3.222508   -0.951078
     19          6           0        5.140157    4.596979   -0.905365
     20          6           0        6.398296    4.864238   -0.240379
     21          6           0        6.884125    3.506208   -0.049928
     22          6           0        4.066193    5.676947   -1.362330
     23          6           0        7.090878    6.106534    0.092053
     24          8           0        8.229512    6.196233    0.542489
     25          6           0        6.391192    7.456974   -0.220584
     26          7           0        8.241321    0.763128    0.281131
     27          6           0        8.848764    2.002661    0.366092
     28          6           0       10.373213    1.832727    0.566923
     29          6           0       10.478855    0.336849    1.112961
     30          6           0        9.169834   -0.212622    0.581308
     31          6           0       11.140102    2.083045   -0.748570
     32          6           0       10.682599    0.244584    2.650938
     33          6           0       11.603335   -0.884794    3.140902
     34          7           0        6.438553   -1.485112    0.026048
     35          6           0        7.530040   -2.199171    0.354776
     36          6           0        7.150700   -3.622798    0.397274
     37          6           0        5.860940   -3.661689   -0.021295
     38          6           0        5.453055   -2.359387   -0.301974
     39          6           0        8.079282   -4.740288    0.731523
     40          6           0        4.770522   -4.605936   -0.300523
     41          8           0        4.695636   -5.825352   -0.168544
     42          6           0        3.612838   -3.729961   -0.857781
     43          6           0        2.427706   -4.121856   -0.083673
     44          8           0        2.260061   -3.977917    1.107567
     45          8           0        1.477669   -4.604179   -0.961067
     46          6           0        0.228786   -5.102902   -0.399991
     47          6           0       -3.412291   -2.073973    1.357201
     48          6           0       -4.917906   -1.596626    1.087759
     49          6           0       -6.008492   -2.368817    0.681658
     50          6           0       -5.825986   -3.797004    0.203469
     51          6           0       -7.424838   -1.793627    0.580334
     52          6           0       -8.208981   -2.077813   -0.709640
     53          6           0       -8.705375   -0.650032   -1.247615
     54          6           0      -10.057239   -0.174482   -0.670009
     55          6           0      -11.197057   -0.171689   -1.758976
     56          6           0       -9.936616    1.140350    0.086772
     57          6           0      -10.852804    1.317197    1.308624
     58          6           0      -11.799207    2.545873    1.176083
     59          6           0      -12.801276    2.552346    2.269005
     60          6           0      -12.425321    3.688275    3.313759
     61          6           0      -14.182869    2.766109    1.706371
     62          6           0      -14.874099    1.436718    1.219775
     63          6           0      -15.089418    1.546629   -0.310162
     64          6           0      -16.181077    0.632642   -0.768038
     65          6           0      -15.783681   -0.893293   -0.602055
     66          6           0      -16.386818    0.916321   -2.232112
     67          1           0        3.063736    3.248725   -1.982420
     68          1           0        8.926978    4.061712    0.485261
     69          1           0        9.449817   -2.307014    1.083733
     70          1           0        1.801398   -1.608885   -2.203365
     71          1           0        1.266255    1.202044   -1.816177
     72          1           0        1.159495    0.440863   -4.050103
     73          1           0        2.877458   -0.244617   -3.984066
     74          1           0        2.645866    1.487223   -3.948843
     75          1           0        1.165557    0.006462    0.303190
     76          1           0        1.385990   -1.651762    0.397169
     77          1           0       -0.521931   -1.566331   -1.681694
     78          1           0       -0.859431   -0.079205   -0.787222
     79          1           0        3.243021    5.266911   -1.948077
     80          1           0        4.467949    6.364254   -2.105991
     81          1           0        3.641938    6.203666   -0.507501
     82          1           0        5.411537    7.577169    0.242076
     83          1           0        6.402764    7.642015   -1.294249
     84          1           0        6.911085    8.281249    0.267893
     85          1           0       10.772281    2.430021    1.385849
     86          1           0       11.377801   -0.077486    0.656299
     87          1           0       10.432792    2.255725   -1.559515
     88          1           0       11.834157    1.267540   -0.951934
     89          1           0       11.752674    2.952135   -0.511219
     90          1           0        9.724644    0.002842    3.111476
     91          1           0       10.934371    1.249357    2.991966
     92          1           0       11.371970   -1.452451    4.041884
     93          1           0       12.632743   -0.555042    3.285212
     94          1           0       11.636207   -1.602564    2.320422
     95          1           0        7.482492   -5.370367    1.390446
     96          1           0        8.987554   -4.322894    1.166297
     97          1           0        8.384020   -5.241246   -0.187478
     98          1           0        3.547857   -3.993539   -1.913623
     99          1           0       -0.478020   -4.424812   -0.878185
    100          1           0        0.177228   -5.049091    0.686779
    101          1           0       -0.004669   -6.072307   -0.841779
    102          1           0       -3.261379   -1.704897    2.370757
    103          1           0       -3.363703   -3.147534    1.174931
    104          1           0       -5.075999   -0.588185    1.471349
    105          1           0       -4.896130   -4.112700   -0.269837
    106          1           0       -6.651774   -4.115668   -0.433103
    107          1           0       -5.806613   -4.367805    1.131778
    108          1           0       -7.244664   -0.721074    0.650996
    109          1           0       -7.889612   -2.101536    1.516994
    110          1           0       -9.046436   -2.689165   -0.371745
    111          1           0       -7.598623   -2.637476   -1.418147
    112          1           0       -8.943368   -0.784151   -2.303210
    113          1           0       -7.952181    0.135103   -1.176418
    114          1           0      -10.441740   -0.930221    0.014608
    115          1           0      -11.870696    0.685162   -1.718829
    116          1           0      -11.836411   -1.045688   -1.639531
    117          1           0      -10.885519   -0.143459   -2.803025
    118          1           0       -9.946828    2.009792   -0.570245
    119          1           0       -8.952975    1.161174    0.556533
    120          1           0      -10.274574    1.531905    2.207263
    121          1           0      -11.337258    0.376751    1.572651
    122          1           0      -12.337183    2.559141    0.228322
    123          1           0      -11.258267    3.487458    1.083413
    124          1           0      -12.922355    1.663169    2.889155
    125          1           0      -11.464089    4.162959    3.117948
    126          1           0      -12.342291    3.348472    4.345998
    127          1           0      -13.194377    4.453631    3.210012
    128          1           0      -14.137613    3.532279    0.932734
    129          1           0      -14.787498    3.120100    2.541571
    130          1           0      -15.833582    1.239520    1.697765
    131          1           0      -14.246009    0.563189    1.393322
    132          1           0      -14.162260    1.339062   -0.843950
    133          1           0      -15.464687    2.547034   -0.524072
    134          1           0      -17.088074    0.900501   -0.226731
    135          1           0      -15.062645   -1.284768   -1.318622
    136          1           0      -16.648541   -1.553670   -0.672257
    137          1           0      -15.220507   -1.035792    0.319970
    138          1           0      -17.424779    1.128886   -2.488705
    139          1           0      -16.181023    0.031732   -2.833783
    140          1           0      -15.692273    1.642717   -2.653240
 ---------------------------------------------------------------------

 SCF Done:  E(RCAM-B3LYP) =  -3007.17333791     A.U. after   17 cycles

 Excitation energies and oscillator strengths:

 Excited State   1:      Singlet-A      1.6712 eV  741.89 nm  f=0.3731  <S**2>=0.000
     245 -> 248       -0.17733
     246 -> 247        0.68680
     245 <- 248       -0.10917
 This state for optimization and/or second-order correction.
 Total Energy, E(TD-HF/TD-DFT) =  -3007.11192250
 Copying the excited state density for this state as the 1-particle RhoCI density.

 Excited State   2:      Singlet-A      2.2093 eV  561.20 nm  f=0.1176  <S**2>=0.000
     245 -> 247        0.64386
     246 -> 248        0.27881

 Excited State   3:      Singlet-A      3.4097 eV  363.63 nm  f=0.0068  <S**2>=0.000
     243 -> 247        0.67850
     246 -> 248       -0.10050

 Excited State   4:      Singlet-A      3.4664 eV  357.67 nm  f=0.0401  <S**2>=0.000
     241 -> 247       -0.29121
     241 -> 248       -0.11481
     241 -> 249       -0.19529
     241 -> 250        0.11298
     241 -> 251       -0.12304
     242 -> 247        0.48082
     246 -> 248       -0.25516

 Excited State   5:      Singlet-A      3.5257 eV  351.66 nm  f=0.1262  <S**2>=0.000
     241 -> 247        0.45742
     241 -> 249        0.18372
     241 -> 250       -0.10289
     241 -> 251        0.10805
     242 -> 247        0.23150
     243 -> 247       -0.11595
     245 -> 247        0.11950
     246 -> 248       -0.34793

 The electronic state is 1-A.
 Alpha  occ. eigenvalues --  -46.88650 -19.25110 -19.23897 -19.19379 -19.19320
 Alpha  occ. eigenvalues --  -19.18914 -19.18439 -14.42116 -14.41863 -14.39441
 Alpha  occ. eigenvalues --  -14.38920 -10.39794 -10.38466 -10.35185 -10.34809
 Alpha  occ. eigenvalues --  -10.33132 -10.31190 -10.31059 -10.30793 -10.30458
 Alpha  occ. eigenvalues --  -10.30258 -10.30004 -10.29617 -10.29441 -10.28730
 Alpha  occ. eigenvalues --  -10.28651 -10.28379 -10.28334 -10.28318 -10.28150
 Alpha  occ. eigenvalues --  -10.27999 -10.27752 -10.27542 -10.27486 -10.27317
 Alpha  occ. eigenvalues --  -10.26955 -10.26891 -10.26828 -10.26729 -10.26721
 Alpha  occ. eigenvalues --  -10.26605 -10.26452 -10.26335 -10.26326 -10.26267
 Alpha  occ. eigenvalues --  -10.26238 -10.26080 -10.25849 -10.25727 -10.25724
 Alpha  occ. eigenvalues --  -10.25605 -10.25599 -10.25383 -10.25303 -10.25101
 Alpha  occ. eigenvalues --  -10.24905 -10.24794 -10.24783 -10.24752 -10.24629
 Alpha  occ. eigenvalues --  -10.24525 -10.24419 -10.24383 -10.24347 -10.24167
 Alpha  occ. eigenvalues --  -10.23692  -3.17235  -1.92094  -1.91701  -1.91544
 Alpha  occ. eigenvalues --   -1.15333  -1.14778  -1.09688  -1.09461  -1.07198
 Alpha  occ. eigenvalues --   -1.04955  -1.04330  -1.03859  -1.02500  -1.01933
 Alpha  occ. eigenvalues --   -0.92347  -0.90860  -0.90339  -0.89232  -0.89043
 Alpha  occ. eigenvalues --   -0.88667  -0.88130  -0.88054  -0.87199  -0.86496
 Alpha  occ. eigenvalues --   -0.86166  -0.85252  -0.84263  -0.83695  -0.83491
 Alpha  occ. eigenvalues --   -0.82322  -0.81695  -0.80762  -0.80643  -0.79935
 Alpha  occ. eigenvalues --   -0.79736  -0.78081  -0.77980  -0.77090  -0.76137
 Alpha  occ. eigenvalues --   -0.75941  -0.75422  -0.75242  -0.75077  -0.74303
 Alpha  occ. eigenvalues --   -0.73195  -0.72389  -0.71446  -0.70400  -0.69088
 Alpha  occ. eigenvalues --   -0.69027  -0.68596  -0.67481  -0.67160  -0.65958
 Alpha  occ. eigenvalues --   -0.65357  -0.65053  -0.64514  -0.64429  -0.64121
 Alpha  occ. eigenvalues --   -0.63378  -0.62804  -0.62674  -0.61452  -0.60418
 Alpha  occ. eigenvalues --   -0.59795  -0.59637  -0.59180  -0.58571  -0.58146
 Alpha  occ. eigenvalues --   -0.57634  -0.57019  -0.56176  -0.55685  -0.55234
 Alpha  occ. eigenvalues --   -0.54901  -0.54555  -0.54254  -0.54248  -0.53828
 Alpha  occ. eigenvalues --   -0.53476  -0.53139  -0.53050  -0.52975  -0.52795
 Alpha  occ. eigenvalues --   -0.52487  -0.52396  -0.52103  -0.51847  -0.51559
 Alpha  occ. eigenvalues --   -0.51295  -0.51203  -0.51095  -0.51021  -0.50789
 Alpha  occ. eigenvalues --   -0.50180  -0.50084  -0.49606  -0.49380  -0.49255
 Alpha  occ. eigenvalues --   -0.49186  -0.49115  -0.48706  -0.48597  -0.48424
 Alpha  occ. eigenvalues --   -0.48275  -0.48153  -0.47952  -0.47849  -0.47786
 Alpha  occ. eigenvalues --   -0.47424  -0.47210  -0.47062  -0.46821  -0.46647
 Alpha  occ. eigenvalues --   -0.46469  -0.46107  -0.46056  -0.45719  -0.45594
 Alpha  occ. eigenvalues --   -0.45548  -0.45259  -0.45148  -0.44819  -0.44615
 Alpha  occ. eigenvalues --   -0.44390  -0.44100  -0.43987  -0.43710  -0.43640
 Alpha  occ. eigenvalues --   -0.43474  -0.43176  -0.42981  -0.42914  -0.42836
 Alpha  occ. eigenvalues --   -0.42453  -0.42335  -0.42272  -0.42116  -0.41960
 Alpha  occ. eigenvalues --   -0.41594  -0.41559  -0.41527  -0.41384  -0.41254
 Alpha  occ. eigenvalues --   -0.41005  -0.40785  -0.40576  -0.40415  -0.40384
 Alpha  occ. eigenvalues --   -0.39970  -0.39764  -0.39224  -0.39165  -0.38829
 Alpha  occ. eigenvalues --   -0.38629  -0.38154  -0.38087  -0.37761  -0.37439
 Alpha  occ. eigenvalues --   -0.36980  -0.36859  -0.36768  -0.36376  -0.36226
 Alpha  occ. eigenvalues --   -0.36146  -0.34928  -0.34738  -0.34491  -0.34075
 Alpha  occ. eigenvalues --   -0.33787  -0.33360  -0.32991  -0.31435  -0.31083
 Alpha  occ. eigenvalues --   -0.30653  -0.30181  -0.29927  -0.29853  -0.24096
 Alpha  occ. eigenvalues --   -0.21211
 Alpha virt. eigenvalues --   -0.08824  -0.01590   0.00240   0.01919   0.02251
 Alpha virt. eigenvalues --    0.03618   0.04261   0.05307   0.05876   0.07474
 Alpha virt. eigenvalues --    0.07862   0.08313   0.08527   0.08905   0.09269

 Mulliken charges:
               1
     1  Mg   0.840638
     2  C   -0.011373
     3  C   -0.083543
     4  C   -0.072551
     5  C   -0.057944
     6  N   -0.295401
     7  C   -0.021215
     8  C   -0.041652
     9  C   -0.063044
    10  C    0.038486
    11  C    0.094826
    12  C    0.025896
    13  C    0.070057
    14  C    0.181636
    15  O   -0.281721
    16  O   -0.338338
    17  N   -0.420403
    18  C    0.192316
    19  C   -0.145376
    20  C   -0.010150
    21  C    0.161690
    22  C    0.098346
    23  C   -0.010648
    24  O   -0.207457
    25  C    0.038324
    26  N   -0.308584
    27  C    0.041145
    28  C   -0.095125
    29  C   -0.051825
    30  C    0.091320
    31  C    0.099090
    32  C    0.068278
    33  C   -0.008708
    34  N   -0.296510
    35  C    0.047751
    36  C   -0.200474
    37  C    0.025480
    38  C    0.105525
    39  C    0.136107
    40  C    0.047053
    41  O   -0.167270
    42  C    0.023505
    43  C    0.201506
    44  O   -0.195627
    45  O   -0.352351
    46  C    0.178922
    47  C    0.285250
    48  C   -0.140803
    49  C   -0.184867
    50  C    0.052950
    51  C    0.077010
    52  C    0.010499
    53  C    0.057451
    54  C   -0.116766
    55  C    0.025202
    56  C    0.085680
    57  C    0.009348
    58  C    0.077727
    59  C   -0.157260
    60  C    0.049419
    61  C    0.071426
    62  C    0.031118
    63  C   -0.022438
    64  C   -0.122352
    65  C    0.032127
    66  C    0.071006
    67  H   -0.034910
    68  H    0.001896
    69  H   -0.042879
    70  H    0.004542
    71  H   -0.008951
    72  H    0.026418
    73  H    0.020692
    74  H    0.004104
    75  H   -0.002226
    76  H    0.052214
    77  H    0.039028
    78  H    0.035701
    79  H   -0.000490
    80  H    0.016773
    81  H    0.040462
    82  H    0.020099
    83  H    0.040891
    84  H    0.012893
    85  H    0.007340
    86  H   -0.000955
    87  H    0.036281
    88  H    0.012227
    89  H    0.021396
    90  H    0.010178
    91  H    0.008505
    92  H    0.022286
    93  H    0.012403
    94  H    0.010623
    95  H    0.049071
    96  H    0.001375
    97  H    0.038639
    98  H    0.046879
    99  H    0.008817
   100  H    0.078572
   101  H    0.027259
   102  H    0.047667
   103  H    0.017548
   104  H   -0.000870
   105  H    0.029448
   106  H    0.019792
   107  H    0.027164
   108  H    0.005138
   109  H    0.021209
   110  H    0.008536
   111  H    0.023861
   112  H   -0.016134
   113  H    0.013086
   114  H   -0.010660
   115  H    0.006123
   116  H    0.008793
   117  H    0.005262
   118  H   -0.004150
   119  H   -0.019581
   120  H   -0.010388
   121  H   -0.006994
   122  H   -0.020666
   123  H   -0.007340
   124  H   -0.007265
   125  H   -0.002719
   126  H    0.006441
   127  H    0.000223
   128  H   -0.004479
   129  H   -0.018171
   130  H   -0.004241
   131  H    0.004826
   132  H    0.006191
   133  H    0.003591
   134  H   -0.003774
   135  H    0.001833
   136  H    0.014944
   137  H   -0.006136
   138  H    0.003647
   139  H   -0.014000
   140  H    0.002760
 Sum of Mulliken charges =  -0.00000

 Dipole moment (field-independent basis, Debye):
    X=             -4.5790    Y=              2.3678    Z=             -2.0537  Tot=              5.5490
 Quadrupole moment (field-independent basis, Debye-Ang):
   XX=           -368.6366   YY=           -430.8689   ZZ=           -404.5122
   XY=              4.0774   XZ=              2.1296   YZ=              0.5222

 Normal termination of Gaussian 16 at Wed Apr 27 00:22:30 2022.
