 Gaussian 16, Revision A.03,
 Gaussian 16:  ES64L-G16RevA.03 25-Dec-2016

 ---------------------------------
 #p PBE1PBE/Def2SVP td=(nstates=5)
 ---------------------------------

 -----------------------------------------------------
 step_101_chromophore_22 TDDFT with PBE1PBE functional
 -----------------------------------------------------
 Symbolic Z-matrix:
 Charge =  0 Multiplicity = 1

                         Standard orientation:
 ---------------------------------------------------------------------
 Center     Atomic      Atomic             Coordinates (Angstroms)
 Number     Number       Type             X           Y           Z
 ---------------------------------------------------------------------
      1         12           0        6.119821    0.651728    0.016464
      2          6           0        4.125846   -2.234430   -0.743894
      3          6           0        3.771513    2.583346   -1.481346
      4          6           0        8.223382    3.252553    0.276874
      5          6           0        8.780997   -1.556501    0.659233
      6          7           0        4.272985    0.200713   -1.222826
      7          6           0        3.555726   -1.007718   -1.080538
      8          6           0        2.102482   -0.865510   -1.465146
      9          6           0        2.139691    0.615393   -2.101767
     10          6           0        3.422362    1.236781   -1.509297
     11          6           0        2.180329    0.538206   -3.683175
     12          6           0        1.088006   -0.885800   -0.318411
     13          6           0       -0.416392   -1.072964   -0.715330
     14          6           0       -1.160243   -1.795927    0.370063
     15          8           0       -0.650143   -2.519987    1.296186
     16          8           0       -2.497021   -1.508867    0.314677
     17          7           0        5.929995    2.589164   -0.338303
     18          6           0        4.875479    3.222508   -0.951078
     19          6           0        5.140157    4.596979   -0.905365
     20          6           0        6.398296    4.864238   -0.240379
     21          6           0        6.884125    3.506208   -0.049928
     22          6           0        4.066193    5.676947   -1.362330
     23          6           0        7.090878    6.106534    0.092053
     24          8           0        8.229512    6.196233    0.542489
     25          6           0        6.391192    7.456974   -0.220584
     26          7           0        8.241321    0.763128    0.281131
     27          6           0        8.848764    2.002661    0.366092
     28          6           0       10.373213    1.832727    0.566923
     29          6           0       10.478855    0.336849    1.112961
     30          6           0        9.169834   -0.212622    0.581308
     31          6           0       11.140102    2.083045   -0.748570
     32          6           0       10.682599    0.244584    2.650938
     33          6           0       11.603335   -0.884794    3.140902
     34          7           0        6.438553   -1.485112    0.026048
     35          6           0        7.530040   -2.199171    0.354776
     36          6           0        7.150700   -3.622798    0.397274
     37          6           0        5.860940   -3.661689   -0.021295
     38          6           0        5.453055   -2.359387   -0.301974
     39          6           0        8.079282   -4.740288    0.731523
     40          6           0        4.770522   -4.605936   -0.300523
     41          8           0        4.695636   -5.825352   -0.168544
     42          6           0        3.612838   -3.729961   -0.857781
     43          6           0        2.427706   -4.121856   -0.083673
     44          8           0        2.260061   -3.977917    1.107567
     45          8           0        1.477669   -4.604179   -0.961067
     46          6           0        0.228786   -5.102902   -0.399991
     47          6           0       -3.412291   -2.073973    1.357201
     48          6           0       -4.917906   -1.596626    1.087759
     49          6           0       -6.008492   -2.368817    0.681658
     50          6           0       -5.825986   -3.797004    0.203469
     51          6           0       -7.424838   -1.793627    0.580334
     52          6           0       -8.208981   -2.077813   -0.709640
     53          6           0       -8.705375   -0.650032   -1.247615
     54          6           0      -10.057239   -0.174482   -0.670009
     55          6           0      -11.197057   -0.171689   -1.758976
     56          6           0       -9.936616    1.140350    0.086772
     57          6           0      -10.852804    1.317197    1.308624
     58          6           0      -11.799207    2.545873    1.176083
     59          6           0      -12.801276    2.552346    2.269005
     60          6           0      -12.425321    3.688275    3.313759
     61          6           0      -14.182869    2.766109    1.706371
     62          6           0      -14.874099    1.436718    1.219775
     63          6           0      -15.089418    1.546629   -0.310162
     64          6           0      -16.181077    0.632642   -0.768038
     65          6           0      -15.783681   -0.893293   -0.602055
     66          6           0      -16.386818    0.916321   -2.232112
     67          1           0        3.063736    3.248725   -1.982420
     68          1           0        8.926978    4.061712    0.485261
     69          1           0        9.449817   -2.307014    1.083733
     70          1           0        1.801398   -1.608885   -2.203365
     71          1           0        1.266255    1.202044   -1.816177
     72          1           0        1.159495    0.440863   -4.050103
     73          1           0        2.877458   -0.244617   -3.984066
     74          1           0        2.645866    1.487223   -3.948843
     75          1           0        1.165557    0.006462    0.303190
     76          1           0        1.385990   -1.651762    0.397169
     77          1           0       -0.521931   -1.566331   -1.681694
     78          1           0       -0.859431   -0.079205   -0.787222
     79          1           0        3.243021    5.266911   -1.948077
     80          1           0        4.467949    6.364254   -2.105991
     81          1           0        3.641938    6.203666   -0.507501
     82          1           0        5.411537    7.577169    0.242076
     83          1           0        6.402764    7.642015   -1.294249
     84          1           0        6.911085    8.281249    0.267893
     85          1           0       10.772281    2.430021    1.385849
     86          1           0       11.377801   -0.077486    0.656299
     87          1           0       10.432792    2.255725   -1.559515
     88          1           0       11.834157    1.267540   -0.951934
     89          1           0       11.752674    2.952135   -0.511219
     90          1           0        9.724644    0.002842    3.111476
     91          1           0       10.934371    1.249357    2.991966
     92          1           0       11.371970   -1.452451    4.041884
     93          1           0       12.632743   -0.555042    3.285212
     94          1           0       11.636207   -1.602564    2.320422
     95          1           0        7.482492   -5.370367    1.390446
     96          1           0        8.987554   -4.322894    1.166297
     97          1           0        8.384020   -5.241246   -0.187478
     98          1           0        3.547857   -3.993539   -1.913623
     99          1           0       -0.478020   -4.424812   -0.878185
    100          1           0        0.177228   -5.049091    0.686779
    101          1           0       -0.004669   -6.072307   -0.841779
    102          1           0       -3.261379   -1.704897    2.370757
    103          1           0       -3.363703   -3.147534    1.174931
    104          1           0       -5.075999   -0.588185    1.471349
    105          1           0       -4.896130   -4.112700   -0.269837
    106          1           0       -6.651774   -4.115668   -0.433103
    107          1           0       -5.806613   -4.367805    1.131778
    108          1           0       -7.244664   -0.721074    0.650996
    109          1           0       -7.889612   -2.101536    1.516994
    110          1           0       -9.046436   -2.689165   -0.371745
    111          1           0       -7.598623   -2.637476   -1.418147
    112          1           0       -8.943368   -0.784151   -2.303210
    113          1           0       -7.952181    0.135103   -1.176418
    114          1           0      -10.441740   -0.930221    0.014608
    115          1           0      -11.870696    0.685162   -1.718829
    116          1           0      -11.836411   -1.045688   -1.639531
    117          1           0      -10.885519   -0.143459   -2.803025
    118          1           0       -9.946828    2.009792   -0.570245
    119          1           0       -8.952975    1.161174    0.556533
    120          1           0      -10.274574    1.531905    2.207263
    121          1           0      -11.337258    0.376751    1.572651
    122          1           0      -12.337183    2.559141    0.228322
    123          1           0      -11.258267    3.487458    1.083413
    124          1           0      -12.922355    1.663169    2.889155
    125          1           0      -11.464089    4.162959    3.117948
    126          1           0      -12.342291    3.348472    4.345998
    127          1           0      -13.194377    4.453631    3.210012
    128          1           0      -14.137613    3.532279    0.932734
    129          1           0      -14.787498    3.120100    2.541571
    130          1           0      -15.833582    1.239520    1.697765
    131          1           0      -14.246009    0.563189    1.393322
    132          1           0      -14.162260    1.339062   -0.843950
    133          1           0      -15.464687    2.547034   -0.524072
    134          1           0      -17.088074    0.900501   -0.226731
    135          1           0      -15.062645   -1.284768   -1.318622
    136          1           0      -16.648541   -1.553670   -0.672257
    137          1           0      -15.220507   -1.035792    0.319970
    138          1           0      -17.424779    1.128886   -2.488705
    139          1           0      -16.181023    0.031732   -2.833783
    140          1           0      -15.692273    1.642717   -2.653240
 ---------------------------------------------------------------------

 SCF Done:  E(RPBE1PBE) =  -3005.36148835     A.U. after   15 cycles

 Excitation energies and oscillator strengths:

 Excited State   1:      Singlet-A      1.8317 eV  676.87 nm  f=0.3640  <S**2>=0.000
     245 -> 248        0.16754
     246 -> 247        0.69450
     246 <- 247       -0.11015
 This state for optimization and/or second-order correction.
 Total Energy, E(TD-HF/TD-DFT) =  -3005.29417335
 Copying the excited state density for this state as the 1-particle RhoCI density.

 Excited State   2:      Singlet-A      2.2221 eV  557.95 nm  f=0.1118  <S**2>=0.000
     245 -> 247        0.65361
     246 -> 248       -0.25315

 Excited State   3:      Singlet-A      2.9393 eV  421.82 nm  f=0.0006  <S**2>=0.000
     243 -> 247        0.66208
     243 -> 249       -0.13493

 Excited State   4:      Singlet-A      3.0698 eV  403.88 nm  f=0.0005  <S**2>=0.000
     240 -> 247        0.23051
     241 -> 247        0.22958
     242 -> 247        0.60035

 Excited State   5:      Singlet-A      3.1158 eV  397.92 nm  f=0.0015  <S**2>=0.000
     240 -> 247        0.30888
     241 -> 247        0.50919
     242 -> 247       -0.32994

 The electronic state is 1-A.
 Alpha  occ. eigenvalues --  -46.92057 -19.25778 -19.24551 -19.19632 -19.19556
 Alpha  occ. eigenvalues --  -19.19096 -19.18694 -14.41620 -14.41420 -14.39133
 Alpha  occ. eigenvalues --  -14.38535 -10.36823 -10.35424 -10.32312 -10.31936
 Alpha  occ. eigenvalues --  -10.30522 -10.28909 -10.28779 -10.28557 -10.28229
 Alpha  occ. eigenvalues --  -10.27694 -10.27467 -10.27299 -10.27158 -10.26404
 Alpha  occ. eigenvalues --  -10.26372 -10.26101 -10.26007 -10.25917 -10.25830
 Alpha  occ. eigenvalues --  -10.25641 -10.25558 -10.25403 -10.25181 -10.25116
 Alpha  occ. eigenvalues --  -10.24491 -10.24490 -10.24408 -10.24382 -10.24336
 Alpha  occ. eigenvalues --  -10.24322 -10.24096 -10.23979 -10.23900 -10.23726
 Alpha  occ. eigenvalues --  -10.23723 -10.23710 -10.23431 -10.23355 -10.23250
 Alpha  occ. eigenvalues --  -10.23111 -10.23045 -10.23037 -10.22633 -10.22581
 Alpha  occ. eigenvalues --  -10.22485 -10.22349 -10.22322 -10.22305 -10.22163
 Alpha  occ. eigenvalues --  -10.22042 -10.21971 -10.21960 -10.21899 -10.21594
 Alpha  occ. eigenvalues --  -10.21078  -3.14219  -1.87017  -1.86603  -1.86451
 Alpha  occ. eigenvalues --   -1.10062  -1.09569  -1.04379  -1.04209  -1.01996
 Alpha  occ. eigenvalues --   -0.99769  -0.98983  -0.98570  -0.97089  -0.96537
 Alpha  occ. eigenvalues --   -0.86668  -0.84954  -0.84448  -0.83441  -0.83207
 Alpha  occ. eigenvalues --   -0.82948  -0.82446  -0.82207  -0.81516  -0.80825
 Alpha  occ. eigenvalues --   -0.80465  -0.79483  -0.78493  -0.77957  -0.77753
 Alpha  occ. eigenvalues --   -0.76506  -0.75970  -0.75140  -0.74834  -0.74093
 Alpha  occ. eigenvalues --   -0.73922  -0.72351  -0.72219  -0.71387  -0.70379
 Alpha  occ. eigenvalues --   -0.70157  -0.69494  -0.69485  -0.69333  -0.68457
 Alpha  occ. eigenvalues --   -0.67532  -0.66778  -0.65897  -0.64709  -0.63455
 Alpha  occ. eigenvalues --   -0.63386  -0.62894  -0.61973  -0.61430  -0.60199
 Alpha  occ. eigenvalues --   -0.59788  -0.59454  -0.59039  -0.58745  -0.58560
 Alpha  occ. eigenvalues --   -0.57527  -0.57186  -0.56996  -0.55989  -0.55005
 Alpha  occ. eigenvalues --   -0.54240  -0.54089  -0.53742  -0.53172  -0.52497
 Alpha  occ. eigenvalues --   -0.52290  -0.51311  -0.50672  -0.50284  -0.49749
 Alpha  occ. eigenvalues --   -0.49503  -0.48929  -0.48714  -0.48629  -0.48324
 Alpha  occ. eigenvalues --   -0.48004  -0.47637  -0.47613  -0.47451  -0.47409
 Alpha  occ. eigenvalues --   -0.47063  -0.46942  -0.46528  -0.46384  -0.46150
 Alpha  occ. eigenvalues --   -0.45824  -0.45762  -0.45672  -0.45575  -0.45395
 Alpha  occ. eigenvalues --   -0.44814  -0.44654  -0.44145  -0.43920  -0.43817
 Alpha  occ. eigenvalues --   -0.43765  -0.43712  -0.43318  -0.43206  -0.43027
 Alpha  occ. eigenvalues --   -0.42894  -0.42759  -0.42621  -0.42446  -0.42409
 Alpha  occ. eigenvalues --   -0.42101  -0.41879  -0.41671  -0.41504  -0.41300
 Alpha  occ. eigenvalues --   -0.41168  -0.40803  -0.40684  -0.40422  -0.40297
 Alpha  occ. eigenvalues --   -0.40111  -0.39988  -0.39902  -0.39463  -0.39358
 Alpha  occ. eigenvalues --   -0.39103  -0.38855  -0.38747  -0.38442  -0.38411
 Alpha  occ. eigenvalues --   -0.38197  -0.38002  -0.37744  -0.37709  -0.37628
 Alpha  occ. eigenvalues --   -0.37333  -0.37075  -0.37033  -0.36920  -0.36730
 Alpha  occ. eigenvalues --   -0.36443  -0.36388  -0.36329  -0.36209  -0.36126
 Alpha  occ. eigenvalues --   -0.35894  -0.35512  -0.35485  -0.35343  -0.35179
 Alpha  occ. eigenvalues --   -0.34730  -0.34531  -0.34077  -0.33929  -0.33615
 Alpha  occ. eigenvalues --   -0.33443  -0.33137  -0.32895  -0.32769  -0.32435
 Alpha  occ. eigenvalues --   -0.31911  -0.31883  -0.31613  -0.31431  -0.31185
 Alpha  occ. eigenvalues --   -0.30993  -0.29874  -0.29737  -0.29676  -0.28930
 Alpha  occ. eigenvalues --   -0.28739  -0.28520  -0.28071  -0.27016  -0.26032
 Alpha  occ. eigenvalues --   -0.25844  -0.25541  -0.25321  -0.25161  -0.21040
 Alpha  occ. eigenvalues --   -0.18833
 Alpha virt. eigenvalues --   -0.11285  -0.05138  -0.03932  -0.02235  -0.00935
 Alpha virt. eigenvalues --   -0.00730  -0.00252   0.00839   0.01231   0.03859
 Alpha virt. eigenvalues --    0.04461   0.04715   0.04931   0.05229   0.05776

 Mulliken charges:
               1
     1  Mg   0.984347
     2  C   -0.003589
     3  C   -0.082803
     4  C   -0.053824
     5  C   -0.062295
     6  N   -0.384810
     7  C    0.040121
     8  C   -0.114449
     9  C   -0.137214
    10  C    0.077136
    11  C    0.034300
    12  C   -0.020272
    13  C   -0.004994
    14  C    0.245967
    15  O   -0.311501
    16  O   -0.368658
    17  N   -0.545982
    18  C    0.212256
    19  C   -0.170173
    20  C   -0.055226
    21  C    0.190966
    22  C    0.041572
    23  C    0.032893
    24  O   -0.244917
    25  C   -0.032710
    26  N   -0.405981
    27  C    0.070670
    28  C   -0.174782
    29  C   -0.124502
    30  C    0.129264
    31  C    0.044799
    32  C    0.012831
    33  C   -0.082030
    34  N   -0.421008
    35  C    0.079132
    36  C   -0.224993
    37  C   -0.025584
    38  C    0.148771
    39  C    0.082094
    40  C    0.146815
    41  O   -0.214302
    42  C   -0.087962
    43  C    0.291876
    44  O   -0.232614
    45  O   -0.385367
    46  C    0.124226
    47  C    0.241786
    48  C   -0.154131
    49  C   -0.222947
    50  C   -0.008319
    51  C    0.018223
    52  C   -0.059042
    53  C   -0.004362
    54  C   -0.196220
    55  C   -0.033128
    56  C    0.024971
    57  C   -0.050735
    58  C    0.026520
    59  C   -0.245641
    60  C   -0.006973
    61  C    0.009287
    62  C   -0.024457
    63  C   -0.089633
    64  C   -0.219817
    65  C   -0.028465
    66  C    0.015386
    67  H   -0.001581
    68  H    0.033133
    69  H   -0.005985
    70  H    0.041168
    71  H    0.027963
    72  H    0.054546
    73  H    0.049105
    74  H    0.033957
    75  H    0.031400
    76  H    0.087866
    77  H    0.068589
    78  H    0.067377
    79  H    0.026493
    80  H    0.044596
    81  H    0.067442
    82  H    0.046169
    83  H    0.067364
    84  H    0.040860
    85  H    0.042784
    86  H    0.036423
    87  H    0.063804
    88  H    0.039724
    89  H    0.049008
    90  H    0.044041
    91  H    0.040277
    92  H    0.049528
    93  H    0.041007
    94  H    0.037622
    95  H    0.075884
    96  H    0.028813
    97  H    0.066541
    98  H    0.083428
    99  H    0.033624
   100  H    0.098281
   101  H    0.050021
   102  H    0.072856
   103  H    0.044369
   104  H    0.028407
   105  H    0.055926
   106  H    0.046371
   107  H    0.056335
   108  H    0.038990
   109  H    0.053800
   110  H    0.041464
   111  H    0.055304
   112  H    0.018921
   113  H    0.044763
   114  H    0.027097
   115  H    0.035736
   116  H    0.035997
   117  H    0.031260
   118  H    0.027748
   119  H    0.015907
   120  H    0.023718
   121  H    0.023704
   122  H    0.014281
   123  H    0.024250
   124  H    0.030233
   125  H    0.024319
   126  H    0.033828
   127  H    0.027424
   128  H    0.027353
   129  H    0.016830
   130  H    0.028227
   131  H    0.036912
   132  H    0.045852
   133  H    0.038408
   134  H    0.033006
   135  H    0.029091
   136  H    0.043247
   137  H    0.022261
   138  H    0.031504
   139  H    0.014013
   140  H    0.029217
 Sum of Mulliken charges =  -0.00000

 Dipole moment (field-independent basis, Debye):
    X=             -4.5476    Y=              2.4017    Z=             -2.0354  Tot=              5.5310
 Quadrupole moment (field-independent basis, Debye-Ang):
   XX=           -362.1723   YY=           -428.3633   ZZ=           -401.7097
   XY=              3.9399   XZ=              3.1250   YZ=              0.3514

 Normal termination of Gaussian 16 at Wed Apr 27 00:38:04 2022.
