 Gaussian 16, Revision A.03,
 Gaussian 16:  ES64L-G16RevA.03 25-Dec-2016

 --------------------------------
 #p wB97XD/Def2SVP td=(nstates=5)
 --------------------------------

 ----------------------------------------------------
 step_101_chromophore_22 TDDFT with wB97XD functional
 ----------------------------------------------------
 Symbolic Z-matrix:
 Charge =  0 Multiplicity = 1

                         Standard orientation:
 ---------------------------------------------------------------------
 Center     Atomic      Atomic             Coordinates (Angstroms)
 Number     Number       Type             X           Y           Z
 ---------------------------------------------------------------------
      1         12           0        6.119821    0.651728    0.016464
      2          6           0        4.125846   -2.234430   -0.743894
      3          6           0        3.771513    2.583346   -1.481346
      4          6           0        8.223382    3.252553    0.276874
      5          6           0        8.780997   -1.556501    0.659233
      6          7           0        4.272985    0.200713   -1.222826
      7          6           0        3.555726   -1.007718   -1.080538
      8          6           0        2.102482   -0.865510   -1.465146
      9          6           0        2.139691    0.615393   -2.101767
     10          6           0        3.422362    1.236781   -1.509297
     11          6           0        2.180329    0.538206   -3.683175
     12          6           0        1.088006   -0.885800   -0.318411
     13          6           0       -0.416392   -1.072964   -0.715330
     14          6           0       -1.160243   -1.795927    0.370063
     15          8           0       -0.650143   -2.519987    1.296186
     16          8           0       -2.497021   -1.508867    0.314677
     17          7           0        5.929995    2.589164   -0.338303
     18          6           0        4.875479    3.222508   -0.951078
     19          6           0        5.140157    4.596979   -0.905365
     20          6           0        6.398296    4.864238   -0.240379
     21          6           0        6.884125    3.506208   -0.049928
     22          6           0        4.066193    5.676947   -1.362330
     23          6           0        7.090878    6.106534    0.092053
     24          8           0        8.229512    6.196233    0.542489
     25          6           0        6.391192    7.456974   -0.220584
     26          7           0        8.241321    0.763128    0.281131
     27          6           0        8.848764    2.002661    0.366092
     28          6           0       10.373213    1.832727    0.566923
     29          6           0       10.478855    0.336849    1.112961
     30          6           0        9.169834   -0.212622    0.581308
     31          6           0       11.140102    2.083045   -0.748570
     32          6           0       10.682599    0.244584    2.650938
     33          6           0       11.603335   -0.884794    3.140902
     34          7           0        6.438553   -1.485112    0.026048
     35          6           0        7.530040   -2.199171    0.354776
     36          6           0        7.150700   -3.622798    0.397274
     37          6           0        5.860940   -3.661689   -0.021295
     38          6           0        5.453055   -2.359387   -0.301974
     39          6           0        8.079282   -4.740288    0.731523
     40          6           0        4.770522   -4.605936   -0.300523
     41          8           0        4.695636   -5.825352   -0.168544
     42          6           0        3.612838   -3.729961   -0.857781
     43          6           0        2.427706   -4.121856   -0.083673
     44          8           0        2.260061   -3.977917    1.107567
     45          8           0        1.477669   -4.604179   -0.961067
     46          6           0        0.228786   -5.102902   -0.399991
     47          6           0       -3.412291   -2.073973    1.357201
     48          6           0       -4.917906   -1.596626    1.087759
     49          6           0       -6.008492   -2.368817    0.681658
     50          6           0       -5.825986   -3.797004    0.203469
     51          6           0       -7.424838   -1.793627    0.580334
     52          6           0       -8.208981   -2.077813   -0.709640
     53          6           0       -8.705375   -0.650032   -1.247615
     54          6           0      -10.057239   -0.174482   -0.670009
     55          6           0      -11.197057   -0.171689   -1.758976
     56          6           0       -9.936616    1.140350    0.086772
     57          6           0      -10.852804    1.317197    1.308624
     58          6           0      -11.799207    2.545873    1.176083
     59          6           0      -12.801276    2.552346    2.269005
     60          6           0      -12.425321    3.688275    3.313759
     61          6           0      -14.182869    2.766109    1.706371
     62          6           0      -14.874099    1.436718    1.219775
     63          6           0      -15.089418    1.546629   -0.310162
     64          6           0      -16.181077    0.632642   -0.768038
     65          6           0      -15.783681   -0.893293   -0.602055
     66          6           0      -16.386818    0.916321   -2.232112
     67          1           0        3.063736    3.248725   -1.982420
     68          1           0        8.926978    4.061712    0.485261
     69          1           0        9.449817   -2.307014    1.083733
     70          1           0        1.801398   -1.608885   -2.203365
     71          1           0        1.266255    1.202044   -1.816177
     72          1           0        1.159495    0.440863   -4.050103
     73          1           0        2.877458   -0.244617   -3.984066
     74          1           0        2.645866    1.487223   -3.948843
     75          1           0        1.165557    0.006462    0.303190
     76          1           0        1.385990   -1.651762    0.397169
     77          1           0       -0.521931   -1.566331   -1.681694
     78          1           0       -0.859431   -0.079205   -0.787222
     79          1           0        3.243021    5.266911   -1.948077
     80          1           0        4.467949    6.364254   -2.105991
     81          1           0        3.641938    6.203666   -0.507501
     82          1           0        5.411537    7.577169    0.242076
     83          1           0        6.402764    7.642015   -1.294249
     84          1           0        6.911085    8.281249    0.267893
     85          1           0       10.772281    2.430021    1.385849
     86          1           0       11.377801   -0.077486    0.656299
     87          1           0       10.432792    2.255725   -1.559515
     88          1           0       11.834157    1.267540   -0.951934
     89          1           0       11.752674    2.952135   -0.511219
     90          1           0        9.724644    0.002842    3.111476
     91          1           0       10.934371    1.249357    2.991966
     92          1           0       11.371970   -1.452451    4.041884
     93          1           0       12.632743   -0.555042    3.285212
     94          1           0       11.636207   -1.602564    2.320422
     95          1           0        7.482492   -5.370367    1.390446
     96          1           0        8.987554   -4.322894    1.166297
     97          1           0        8.384020   -5.241246   -0.187478
     98          1           0        3.547857   -3.993539   -1.913623
     99          1           0       -0.478020   -4.424812   -0.878185
    100          1           0        0.177228   -5.049091    0.686779
    101          1           0       -0.004669   -6.072307   -0.841779
    102          1           0       -3.261379   -1.704897    2.370757
    103          1           0       -3.363703   -3.147534    1.174931
    104          1           0       -5.075999   -0.588185    1.471349
    105          1           0       -4.896130   -4.112700   -0.269837
    106          1           0       -6.651774   -4.115668   -0.433103
    107          1           0       -5.806613   -4.367805    1.131778
    108          1           0       -7.244664   -0.721074    0.650996
    109          1           0       -7.889612   -2.101536    1.516994
    110          1           0       -9.046436   -2.689165   -0.371745
    111          1           0       -7.598623   -2.637476   -1.418147
    112          1           0       -8.943368   -0.784151   -2.303210
    113          1           0       -7.952181    0.135103   -1.176418
    114          1           0      -10.441740   -0.930221    0.014608
    115          1           0      -11.870696    0.685162   -1.718829
    116          1           0      -11.836411   -1.045688   -1.639531
    117          1           0      -10.885519   -0.143459   -2.803025
    118          1           0       -9.946828    2.009792   -0.570245
    119          1           0       -8.952975    1.161174    0.556533
    120          1           0      -10.274574    1.531905    2.207263
    121          1           0      -11.337258    0.376751    1.572651
    122          1           0      -12.337183    2.559141    0.228322
    123          1           0      -11.258267    3.487458    1.083413
    124          1           0      -12.922355    1.663169    2.889155
    125          1           0      -11.464089    4.162959    3.117948
    126          1           0      -12.342291    3.348472    4.345998
    127          1           0      -13.194377    4.453631    3.210012
    128          1           0      -14.137613    3.532279    0.932734
    129          1           0      -14.787498    3.120100    2.541571
    130          1           0      -15.833582    1.239520    1.697765
    131          1           0      -14.246009    0.563189    1.393322
    132          1           0      -14.162260    1.339062   -0.843950
    133          1           0      -15.464687    2.547034   -0.524072
    134          1           0      -17.088074    0.900501   -0.226731
    135          1           0      -15.062645   -1.284768   -1.318622
    136          1           0      -16.648541   -1.553670   -0.672257
    137          1           0      -15.220507   -1.035792    0.319970
    138          1           0      -17.424779    1.128886   -2.488705
    139          1           0      -16.181023    0.031732   -2.833783
    140          1           0      -15.692273    1.642717   -2.653240
 ---------------------------------------------------------------------

 SCF Done:  E(RwB97XD) =  -3007.87163783     A.U. after   20 cycles

 Excitation energies and oscillator strengths:

 Excited State   1:      Singlet-A      1.6127 eV  768.78 nm  f=0.3712  <S**2>=0.000
     245 -> 248        0.18380
     246 -> 247        0.68444
     245 <- 248        0.11890
 This state for optimization and/or second-order correction.
 Total Energy, E(TD-HF/TD-DFT) =  -3007.81237061
 Copying the excited state density for this state as the 1-particle RhoCI density.

 Excited State   2:      Singlet-A      2.1527 eV  575.95 nm  f=0.1135  <S**2>=0.000
     245 -> 247        0.64149
     246 -> 248       -0.28284

 Excited State   3:      Singlet-A      3.4280 eV  361.68 nm  f=0.0128  <S**2>=0.000
     242 -> 247       -0.13624
     243 -> 247        0.65719
     246 -> 248        0.13022

 Excited State   4:      Singlet-A      3.4851 eV  355.76 nm  f=0.0726  <S**2>=0.000
     241 -> 249       -0.15864
     241 -> 250       -0.13533
     242 -> 247        0.51011
     242 -> 249       -0.12134
     243 -> 247        0.15222
     246 -> 248       -0.30723

 Excited State   5:      Singlet-A      3.5473 eV  349.51 nm  f=0.1314  <S**2>=0.000
     241 -> 247        0.49749
     241 -> 249       -0.21501
     241 -> 250       -0.15442
     243 -> 247       -0.11150
     245 -> 247        0.11869
     246 -> 248        0.32590

 The electronic state is 1-A.
 Alpha  occ. eigenvalues --  -46.95002 -19.30359 -19.29148 -19.24455 -19.24278
 Alpha  occ. eigenvalues --  -19.23866 -19.23457 -14.46731 -14.46473 -14.44045
 Alpha  occ. eigenvalues --  -14.43513 -10.43614 -10.42325 -10.39229 -10.38765
 Alpha  occ. eigenvalues --  -10.37055 -10.35250 -10.35096 -10.34810 -10.34476
 Alpha  occ. eigenvalues --  -10.34016 -10.34015 -10.33659 -10.33432 -10.32804
 Alpha  occ. eigenvalues --  -10.32761 -10.32476 -10.32392 -10.32384 -10.32065
 Alpha  occ. eigenvalues --  -10.32052 -10.31827 -10.31614 -10.31597 -10.31355
 Alpha  occ. eigenvalues --  -10.30924 -10.30903 -10.30878 -10.30712 -10.30676
 Alpha  occ. eigenvalues --  -10.30676 -10.30383 -10.30269 -10.30256 -10.30175
 Alpha  occ. eigenvalues --  -10.30095 -10.30081 -10.29765 -10.29733 -10.29685
 Alpha  occ. eigenvalues --  -10.29443 -10.29422 -10.29325 -10.29163 -10.29019
 Alpha  occ. eigenvalues --  -10.28765 -10.28739 -10.28717 -10.28677 -10.28574
 Alpha  occ. eigenvalues --  -10.28469 -10.28346 -10.28320 -10.28272 -10.28009
 Alpha  occ. eigenvalues --  -10.27496  -3.21028  -1.94575  -1.94165  -1.94001
 Alpha  occ. eigenvalues --   -1.17509  -1.16974  -1.11944  -1.11660  -1.09410
 Alpha  occ. eigenvalues --   -1.07140  -1.06368  -1.05902  -1.04495  -1.03950
 Alpha  occ. eigenvalues --   -0.94340  -0.92622  -0.92121  -0.91083  -0.90856
 Alpha  occ. eigenvalues --   -0.90546  -0.90013  -0.89860  -0.89146  -0.88435
 Alpha  occ. eigenvalues --   -0.88112  -0.87132  -0.86145  -0.85608  -0.85366
 Alpha  occ. eigenvalues --   -0.84164  -0.83607  -0.82738  -0.82508  -0.81795
 Alpha  occ. eigenvalues --   -0.81633  -0.80018  -0.79884  -0.79007  -0.78038
 Alpha  occ. eigenvalues --   -0.77826  -0.77201  -0.77090  -0.76982  -0.76127
 Alpha  occ. eigenvalues --   -0.75129  -0.74359  -0.73418  -0.72323  -0.71037
 Alpha  occ. eigenvalues --   -0.70958  -0.70517  -0.69481  -0.69048  -0.67824
 Alpha  occ. eigenvalues --   -0.67295  -0.66993  -0.66501  -0.66238  -0.66138
 Alpha  occ. eigenvalues --   -0.65193  -0.64664  -0.64633  -0.63457  -0.62410
 Alpha  occ. eigenvalues --   -0.61719  -0.61579  -0.61147  -0.60572  -0.60094
 Alpha  occ. eigenvalues --   -0.59655  -0.58861  -0.58106  -0.57671  -0.57180
 Alpha  occ. eigenvalues --   -0.56886  -0.56411  -0.56172  -0.56099  -0.55745
 Alpha  occ. eigenvalues --   -0.55406  -0.55022  -0.54973  -0.54861  -0.54745
 Alpha  occ. eigenvalues --   -0.54424  -0.54346  -0.54019  -0.53764  -0.53455
 Alpha  occ. eigenvalues --   -0.53181  -0.53149  -0.53019  -0.52911  -0.52741
 Alpha  occ. eigenvalues --   -0.52075  -0.51978  -0.51555  -0.51293  -0.51160
 Alpha  occ. eigenvalues --   -0.51091  -0.51040  -0.50620  -0.50509  -0.50337
 Alpha  occ. eigenvalues --   -0.50199  -0.50043  -0.49851  -0.49726  -0.49707
 Alpha  occ. eigenvalues --   -0.49324  -0.49128  -0.48936  -0.48743  -0.48560
 Alpha  occ. eigenvalues --   -0.48390  -0.48017  -0.47967  -0.47620  -0.47520
 Alpha  occ. eigenvalues --   -0.47374  -0.47173  -0.47086  -0.46680  -0.46574
 Alpha  occ. eigenvalues --   -0.46279  -0.46026  -0.45933  -0.45571  -0.45562
 Alpha  occ. eigenvalues --   -0.45362  -0.45098  -0.44880  -0.44817  -0.44731
 Alpha  occ. eigenvalues --   -0.44396  -0.44241  -0.44231  -0.44074  -0.43822
 Alpha  occ. eigenvalues --   -0.43532  -0.43475  -0.43427  -0.43328  -0.43186
 Alpha  occ. eigenvalues --   -0.42878  -0.42634  -0.42500  -0.42323  -0.42251
 Alpha  occ. eigenvalues --   -0.41828  -0.41628  -0.41104  -0.41003  -0.40676
 Alpha  occ. eigenvalues --   -0.40487  -0.40061  -0.39927  -0.39729  -0.39433
 Alpha  occ. eigenvalues --   -0.38867  -0.38833  -0.38607  -0.38331  -0.38243
 Alpha  occ. eigenvalues --   -0.37986  -0.36943  -0.36569  -0.36544  -0.36018
 Alpha  occ. eigenvalues --   -0.35617  -0.35334  -0.35148  -0.33621  -0.33116
 Alpha  occ. eigenvalues --   -0.32623  -0.32310  -0.32109  -0.31899  -0.26020
 Alpha  occ. eigenvalues --   -0.23019
 Alpha virt. eigenvalues --   -0.07166   0.00312   0.02320   0.04267   0.05166
 Alpha virt. eigenvalues --    0.05849   0.06503   0.07598   0.07981   0.10505
 Alpha virt. eigenvalues --    0.10926   0.11408   0.11738   0.11905   0.12469

 Mulliken charges:
               1
     1  Mg   0.975736
     2  C   -0.019018
     3  C   -0.094909
     4  C   -0.076058
     5  C   -0.069406
     6  N   -0.355987
     7  C    0.015274
     8  C   -0.089911
     9  C   -0.110118
    10  C    0.059413
    11  C    0.046597
    12  C   -0.005599
    13  C    0.008821
    14  C    0.234031
    15  O   -0.307529
    16  O   -0.367979
    17  N   -0.511208
    18  C    0.206079
    19  C   -0.162657
    20  C   -0.052363
    21  C    0.182906
    22  C    0.054098
    23  C    0.032228
    24  O   -0.239670
    25  C   -0.021163
    26  N   -0.376236
    27  C    0.058571
    28  C   -0.144038
    29  C   -0.097578
    30  C    0.114967
    31  C    0.051615
    32  C    0.021997
    33  C   -0.064053
    34  N   -0.383040
    35  C    0.067347
    36  C   -0.217485
    37  C   -0.020576
    38  C    0.137172
    39  C    0.093542
    40  C    0.126672
    41  O   -0.203926
    42  C   -0.046152
    43  C    0.264396
    44  O   -0.224317
    45  O   -0.382547
    46  C    0.139282
    47  C    0.258385
    48  C   -0.163119
    49  C   -0.210545
    50  C    0.001284
    51  C    0.038793
    52  C   -0.042479
    53  C    0.016699
    54  C   -0.170869
    55  C   -0.018593
    56  C    0.041373
    57  C   -0.032589
    58  C    0.043598
    59  C   -0.217921
    60  C    0.004152
    61  C    0.030931
    62  C   -0.011451
    63  C   -0.059664
    64  C   -0.189913
    65  C   -0.015721
    66  C    0.023747
    67  H   -0.009920
    68  H    0.029690
    69  H   -0.018357
    70  H    0.030287
    71  H    0.017613
    72  H    0.049287
    73  H    0.042425
    74  H    0.025961
    75  H    0.023750
    76  H    0.072682
    77  H    0.063492
    78  H    0.062097
    79  H    0.022482
    80  H    0.038550
    81  H    0.062141
    82  H    0.040679
    83  H    0.062573
    84  H    0.039038
    85  H    0.032627
    86  H    0.024249
    87  H    0.058271
    88  H    0.033767
    89  H    0.043745
    90  H    0.035112
    91  H    0.032824
    92  H    0.045101
    93  H    0.035081
    94  H    0.028723
    95  H    0.071892
    96  H    0.023644
    97  H    0.062102
    98  H    0.078091
    99  H    0.026686
   100  H    0.095961
   101  H    0.047067
   102  H    0.069429
   103  H    0.038337
   104  H    0.025690
   105  H    0.051242
   106  H    0.040937
   107  H    0.050132
   108  H    0.023534
   109  H    0.047007
   110  H    0.033471
   111  H    0.047320
   112  H    0.009217
   113  H    0.036107
   114  H    0.012145
   115  H    0.025348
   116  H    0.030499
   117  H    0.025568
   118  H    0.020384
   119  H    0.005083
   120  H    0.014539
   121  H    0.013992
   122  H   -0.003207
   123  H    0.016404
   124  H    0.018101
   125  H    0.017919
   126  H    0.029101
   127  H    0.020917
   128  H    0.016749
   129  H    0.008291
   130  H    0.020641
   131  H    0.023808
   132  H    0.025335
   133  H    0.026939
   134  H    0.023506
   135  H    0.022062
   136  H    0.038325
   137  H    0.014533
   138  H    0.026872
   139  H    0.007338
   140  H    0.023652
 Sum of Mulliken charges =  -0.00000

 Dipole moment (field-independent basis, Debye):
    X=             -4.6385    Y=              2.3884    Z=             -2.0482  Tot=              5.6049
 Quadrupole moment (field-independent basis, Debye-Ang):
   XX=           -363.7811   YY=           -426.4502   ZZ=           -401.4658
   XY=              3.9448   XZ=              2.9470   YZ=              0.4733

 Normal termination of Gaussian 16 at Wed Apr 27 01:04:28 2022.
