 Gaussian 16, Revision A.03,
 Gaussian 16:  ES64L-G16RevA.03 25-Dec-2016

 --------------------
 #p ZINDO=(nstates=5)
 --------------------

 -----------------------------
 step_101_chromophore_22 ZINDO
 -----------------------------
 Symbolic Z-matrix:
 Charge =  0 Multiplicity = 1

                         Standard orientation:
 ---------------------------------------------------------------------
 Center     Atomic      Atomic             Coordinates (Angstroms)
 Number     Number       Type             X           Y           Z
 ---------------------------------------------------------------------
      1         12           0        6.119821    0.651728    0.016464
      2          6           0        4.125846   -2.234430   -0.743894
      3          6           0        3.771513    2.583346   -1.481346
      4          6           0        8.223382    3.252553    0.276874
      5          6           0        8.780997   -1.556501    0.659233
      6          7           0        4.272985    0.200713   -1.222826
      7          6           0        3.555726   -1.007718   -1.080538
      8          6           0        2.102482   -0.865510   -1.465146
      9          6           0        2.139691    0.615393   -2.101767
     10          6           0        3.422362    1.236781   -1.509297
     11          6           0        2.180329    0.538206   -3.683175
     12          6           0        1.088006   -0.885800   -0.318411
     13          6           0       -0.416392   -1.072964   -0.715330
     14          6           0       -1.160243   -1.795927    0.370063
     15          8           0       -0.650143   -2.519987    1.296186
     16          8           0       -2.497021   -1.508867    0.314677
     17          7           0        5.929995    2.589164   -0.338303
     18          6           0        4.875479    3.222508   -0.951078
     19          6           0        5.140157    4.596979   -0.905365
     20          6           0        6.398296    4.864238   -0.240379
     21          6           0        6.884125    3.506208   -0.049928
     22          6           0        4.066193    5.676947   -1.362330
     23          6           0        7.090878    6.106534    0.092053
     24          8           0        8.229512    6.196233    0.542489
     25          6           0        6.391192    7.456974   -0.220584
     26          7           0        8.241321    0.763128    0.281131
     27          6           0        8.848764    2.002661    0.366092
     28          6           0       10.373213    1.832727    0.566923
     29          6           0       10.478855    0.336849    1.112961
     30          6           0        9.169834   -0.212622    0.581308
     31          6           0       11.140102    2.083045   -0.748570
     32          6           0       10.682599    0.244584    2.650938
     33          6           0       11.603335   -0.884794    3.140902
     34          7           0        6.438553   -1.485112    0.026048
     35          6           0        7.530040   -2.199171    0.354776
     36          6           0        7.150700   -3.622798    0.397274
     37          6           0        5.860940   -3.661689   -0.021295
     38          6           0        5.453055   -2.359387   -0.301974
     39          6           0        8.079282   -4.740288    0.731523
     40          6           0        4.770522   -4.605936   -0.300523
     41          8           0        4.695636   -5.825352   -0.168544
     42          6           0        3.612838   -3.729961   -0.857781
     43          6           0        2.427706   -4.121856   -0.083673
     44          8           0        2.260061   -3.977917    1.107567
     45          8           0        1.477669   -4.604179   -0.961067
     46          6           0        0.228786   -5.102902   -0.399991
     47          6           0       -3.412291   -2.073973    1.357201
     48          6           0       -4.917906   -1.596626    1.087759
     49          6           0       -6.008492   -2.368817    0.681658
     50          6           0       -5.825986   -3.797004    0.203469
     51          6           0       -7.424838   -1.793627    0.580334
     52          6           0       -8.208981   -2.077813   -0.709640
     53          6           0       -8.705375   -0.650032   -1.247615
     54          6           0      -10.057239   -0.174482   -0.670009
     55          6           0      -11.197057   -0.171689   -1.758976
     56          6           0       -9.936616    1.140350    0.086772
     57          6           0      -10.852804    1.317197    1.308624
     58          6           0      -11.799207    2.545873    1.176083
     59          6           0      -12.801276    2.552346    2.269005
     60          6           0      -12.425321    3.688275    3.313759
     61          6           0      -14.182869    2.766109    1.706371
     62          6           0      -14.874099    1.436718    1.219775
     63          6           0      -15.089418    1.546629   -0.310162
     64          6           0      -16.181077    0.632642   -0.768038
     65          6           0      -15.783681   -0.893293   -0.602055
     66          6           0      -16.386818    0.916321   -2.232112
     67          1           0        3.063736    3.248725   -1.982420
     68          1           0        8.926978    4.061712    0.485261
     69          1           0        9.449817   -2.307014    1.083733
     70          1           0        1.801398   -1.608885   -2.203365
     71          1           0        1.266255    1.202044   -1.816177
     72          1           0        1.159495    0.440863   -4.050103
     73          1           0        2.877458   -0.244617   -3.984066
     74          1           0        2.645866    1.487223   -3.948843
     75          1           0        1.165557    0.006462    0.303190
     76          1           0        1.385990   -1.651762    0.397169
     77          1           0       -0.521931   -1.566331   -1.681694
     78          1           0       -0.859431   -0.079205   -0.787222
     79          1           0        3.243021    5.266911   -1.948077
     80          1           0        4.467949    6.364254   -2.105991
     81          1           0        3.641938    6.203666   -0.507501
     82          1           0        5.411537    7.577169    0.242076
     83          1           0        6.402764    7.642015   -1.294249
     84          1           0        6.911085    8.281249    0.267893
     85          1           0       10.772281    2.430021    1.385849
     86          1           0       11.377801   -0.077486    0.656299
     87          1           0       10.432792    2.255725   -1.559515
     88          1           0       11.834157    1.267540   -0.951934
     89          1           0       11.752674    2.952135   -0.511219
     90          1           0        9.724644    0.002842    3.111476
     91          1           0       10.934371    1.249357    2.991966
     92          1           0       11.371970   -1.452451    4.041884
     93          1           0       12.632743   -0.555042    3.285212
     94          1           0       11.636207   -1.602564    2.320422
     95          1           0        7.482492   -5.370367    1.390446
     96          1           0        8.987554   -4.322894    1.166297
     97          1           0        8.384020   -5.241246   -0.187478
     98          1           0        3.547857   -3.993539   -1.913623
     99          1           0       -0.478020   -4.424812   -0.878185
    100          1           0        0.177228   -5.049091    0.686779
    101          1           0       -0.004669   -6.072307   -0.841779
    102          1           0       -3.261379   -1.704897    2.370757
    103          1           0       -3.363703   -3.147534    1.174931
    104          1           0       -5.075999   -0.588185    1.471349
    105          1           0       -4.896130   -4.112700   -0.269837
    106          1           0       -6.651774   -4.115668   -0.433103
    107          1           0       -5.806613   -4.367805    1.131778
    108          1           0       -7.244664   -0.721074    0.650996
    109          1           0       -7.889612   -2.101536    1.516994
    110          1           0       -9.046436   -2.689165   -0.371745
    111          1           0       -7.598623   -2.637476   -1.418147
    112          1           0       -8.943368   -0.784151   -2.303210
    113          1           0       -7.952181    0.135103   -1.176418
    114          1           0      -10.441740   -0.930221    0.014608
    115          1           0      -11.870696    0.685162   -1.718829
    116          1           0      -11.836411   -1.045688   -1.639531
    117          1           0      -10.885519   -0.143459   -2.803025
    118          1           0       -9.946828    2.009792   -0.570245
    119          1           0       -8.952975    1.161174    0.556533
    120          1           0      -10.274574    1.531905    2.207263
    121          1           0      -11.337258    0.376751    1.572651
    122          1           0      -12.337183    2.559141    0.228322
    123          1           0      -11.258267    3.487458    1.083413
    124          1           0      -12.922355    1.663169    2.889155
    125          1           0      -11.464089    4.162959    3.117948
    126          1           0      -12.342291    3.348472    4.345998
    127          1           0      -13.194377    4.453631    3.210012
    128          1           0      -14.137613    3.532279    0.932734
    129          1           0      -14.787498    3.120100    2.541571
    130          1           0      -15.833582    1.239520    1.697765
    131          1           0      -14.246009    0.563189    1.393322
    132          1           0      -14.162260    1.339062   -0.843950
    133          1           0      -15.464687    2.547034   -0.524072
    134          1           0      -17.088074    0.900501   -0.226731
    135          1           0      -15.062645   -1.284768   -1.318622
    136          1           0      -16.648541   -1.553670   -0.672257
    137          1           0      -15.220507   -1.035792    0.319970
    138          1           0      -17.424779    1.128886   -2.488705
    139          1           0      -16.181023    0.031732   -2.833783
    140          1           0      -15.692273    1.642717   -2.653240
 ---------------------------------------------------------------------

 SCF Done:  E(RZINDO/S) =  -474.213389321     A.U. after   20 cycles

 Excitation energies and oscillator strengths:

 Excited State   1:      Singlet-A      1.2159 eV 1019.73 nm  f=0.6039  <S**2>=0.000
     175 ->178        -0.18882
     176 ->177         0.66399
 This state for optimization and/or second-order correction.
 Total Energy, E(CIS/TDA) =  -474.168707348
 Copying the excited state density for this state as the 1-particle RhoCI density.

 Excited State   2:      Singlet-A      1.8939 eV  654.65 nm  f=0.0539  <S**2>=0.000
     175 ->177         0.55868
     176 ->178         0.40685

 Excited State   3:      Singlet-A      2.9208 eV  424.48 nm  f=0.0065  <S**2>=0.000
     170 ->177         0.31836
     170 ->178        -0.10857
     170 ->179         0.33318
     170 ->180        -0.11607
     170 ->181         0.34112
     170 ->186         0.15705
     170 ->187        -0.21360
     170 ->200         0.11778

 Excited State   4:      Singlet-A      2.9921 eV  414.37 nm  f=0.1785  <S**2>=0.000
     168 ->177         0.22340
     168 ->178        -0.10858
     168 ->179        -0.28451
     168 ->181         0.19290
     168 ->186        -0.15768
     171 ->177        -0.12905
     175 ->177         0.14511
     176 ->178        -0.23966
     176 ->179        -0.32832
     176 ->182        -0.14116

 Excited State   5:      Singlet-A      3.0179 eV  410.83 nm  f=0.0421  <S**2>=0.000
     168 ->177         0.16336
     168 ->179        -0.20519
     168 ->181         0.14711
     168 ->186        -0.10943
     176 ->179         0.50987
     176 ->182         0.25211

 The electronic state is 1-A.
 Alpha  occ. eigenvalues --   -1.84911  -1.82396  -1.78968  -1.72533  -1.71787
 Alpha  occ. eigenvalues --   -1.68788  -1.67480  -1.61742  -1.58690  -1.58006
 Alpha  occ. eigenvalues --   -1.57049  -1.50879  -1.48172  -1.47396  -1.45964
 Alpha  occ. eigenvalues --   -1.44282  -1.40602  -1.39219  -1.37652  -1.37361
 Alpha  occ. eigenvalues --   -1.35497  -1.33481  -1.32200  -1.31464  -1.28147
 Alpha  occ. eigenvalues --   -1.27570  -1.24607  -1.21605  -1.19854  -1.18140
 Alpha  occ. eigenvalues --   -1.17400  -1.15953  -1.15554  -1.14427  -1.13386
 Alpha  occ. eigenvalues --   -1.12444  -1.11442  -1.10913  -1.05029  -1.04202
 Alpha  occ. eigenvalues --   -1.03239  -1.00720  -0.98954  -0.97596  -0.96904
 Alpha  occ. eigenvalues --   -0.96842  -0.94013  -0.93704  -0.92013  -0.91894
 Alpha  occ. eigenvalues --   -0.91052  -0.90163  -0.88977  -0.88226  -0.87309
 Alpha  occ. eigenvalues --   -0.86513  -0.83827  -0.82918  -0.81544  -0.80884
 Alpha  occ. eigenvalues --   -0.79387  -0.79097  -0.77915  -0.77428  -0.76566
 Alpha  occ. eigenvalues --   -0.76094  -0.75189  -0.74658  -0.74190  -0.73531
 Alpha  occ. eigenvalues --   -0.72983  -0.72239  -0.72033  -0.71046  -0.70636
 Alpha  occ. eigenvalues --   -0.69620  -0.69449  -0.68576  -0.68180  -0.68009
 Alpha  occ. eigenvalues --   -0.67339  -0.67164  -0.66530  -0.66137  -0.65740
 Alpha  occ. eigenvalues --   -0.65268  -0.65012  -0.64145  -0.63858  -0.63581
 Alpha  occ. eigenvalues --   -0.62772  -0.62662  -0.62269  -0.61710  -0.61477
 Alpha  occ. eigenvalues --   -0.61223  -0.60985  -0.60496  -0.60368  -0.59905
 Alpha  occ. eigenvalues --   -0.59638  -0.58779  -0.58512  -0.58458  -0.58106
 Alpha  occ. eigenvalues --   -0.57649  -0.57597  -0.57237  -0.56847  -0.56309
 Alpha  occ. eigenvalues --   -0.55670  -0.55517  -0.55450  -0.55021  -0.54832
 Alpha  occ. eigenvalues --   -0.54402  -0.54309  -0.53327  -0.53314  -0.52974
 Alpha  occ. eigenvalues --   -0.52402  -0.52162  -0.51803  -0.51524  -0.51380
 Alpha  occ. eigenvalues --   -0.51264  -0.50779  -0.50674  -0.50418  -0.50214
 Alpha  occ. eigenvalues --   -0.49749  -0.49593  -0.49170  -0.48713  -0.48689
 Alpha  occ. eigenvalues --   -0.48448  -0.48337  -0.48205  -0.47996  -0.47420
 Alpha  occ. eigenvalues --   -0.47250  -0.47019  -0.46874  -0.46520  -0.46224
 Alpha  occ. eigenvalues --   -0.46105  -0.45960  -0.45901  -0.45610  -0.44894
 Alpha  occ. eigenvalues --   -0.44658  -0.44595  -0.44450  -0.44174  -0.44061
 Alpha  occ. eigenvalues --   -0.43157  -0.43131  -0.42708  -0.42011  -0.41939
 Alpha  occ. eigenvalues --   -0.41288  -0.40970  -0.40238  -0.39087  -0.38579
 Alpha  occ. eigenvalues --   -0.38065  -0.37376  -0.35520  -0.34920  -0.34533
 Alpha  occ. eigenvalues --   -0.33355  -0.32757  -0.32284  -0.32023  -0.26704
 Alpha  occ. eigenvalues --   -0.21719
 Alpha virt. eigenvalues --   -0.08672  -0.01922  -0.00433   0.01252   0.01297
 Alpha virt. eigenvalues --    0.01477   0.02691   0.03184   0.03967   0.05049
 Alpha virt. eigenvalues --    0.06464   0.06921   0.08045   0.08183   0.08458

 Mulliken charges:
               1
     1  Mg   0.432509
     2  C   -0.045850
     3  C   -0.062236
     4  C   -0.069624
     5  C   -0.078482
     6  N   -0.295724
     7  C    0.137987
     8  C    0.001386
     9  C   -0.007344
    10  C    0.114264
    11  C   -0.055384
    12  C   -0.027042
    13  C    0.011200
    14  C    0.466331
    15  O   -0.530586
    16  O   -0.271547
    17  N   -0.320251
    18  C    0.106187
    19  C   -0.006882
    20  C   -0.060511
    21  C    0.153046
    22  C   -0.058458
    23  C    0.331934
    24  O   -0.532422
    25  C   -0.038602
    26  N   -0.284544
    27  C    0.128275
    28  C   -0.007651
    29  C    0.000902
    30  C    0.147210
    31  C   -0.048831
    32  C   -0.022242
    33  C   -0.057313
    34  N   -0.319160
    35  C    0.112907
    36  C    0.047265
    37  C   -0.037708
    38  C    0.119164
    39  C   -0.040288
    40  C    0.336834
    41  O   -0.510666
    42  C    0.058045
    43  C    0.499645
    44  O   -0.503641
    45  O   -0.283546
    46  C    0.072481
    47  C    0.097969
    48  C   -0.124737
    49  C    0.005158
    50  C   -0.046743
    51  C   -0.021281
    52  C   -0.032325
    53  C   -0.036549
    54  C   -0.003724
    55  C   -0.063026
    56  C   -0.031035
    57  C   -0.037383
    58  C   -0.023766
    59  C   -0.008729
    60  C   -0.070465
    61  C   -0.035621
    62  C   -0.047222
    63  C   -0.030270
    64  C   -0.005921
    65  C   -0.061373
    66  C   -0.059943
    67  H    0.020337
    68  H    0.053723
    69  H    0.021326
    70  H    0.030957
    71  H    0.020138
    72  H    0.027313
    73  H    0.028838
    74  H    0.020889
    75  H    0.023590
    76  H    0.042879
    77  H    0.050161
    78  H    0.038383
    79  H    0.016541
    80  H    0.023077
    81  H    0.032507
    82  H    0.030048
    83  H    0.040656
    84  H    0.026759
    85  H    0.031704
    86  H    0.028079
    87  H    0.034861
    88  H    0.021461
    89  H    0.022463
    90  H    0.019011
    91  H    0.028166
    92  H    0.027132
    93  H    0.014701
    94  H    0.013348
    95  H    0.046717
    96  H    0.024958
    97  H    0.038057
    98  H    0.054080
    99  H    0.023870
   100  H    0.073394
   101  H    0.035248
   102  H    0.063030
   103  H    0.051096
   104  H    0.026588
   105  H    0.030039
   106  H    0.023321
   107  H    0.026977
   108  H    0.021046
   109  H    0.033060
   110  H    0.024174
   111  H    0.033330
   112  H    0.008500
   113  H    0.030672
   114  H    0.019031
   115  H    0.013933
   116  H    0.015120
   117  H    0.019072
   118  H    0.024008
   119  H    0.006012
   120  H    0.012770
   121  H    0.024517
   122  H    0.010725
   123  H    0.022807
   124  H    0.023580
   125  H    0.015002
   126  H    0.018025
   127  H    0.018160
   128  H    0.025090
   129  H    0.006654
   130  H    0.022804
   131  H    0.020646
   132  H    0.025843
   133  H    0.014453
   134  H    0.026651
   135  H    0.018697
   136  H    0.019442
   137  H    0.013640
   138  H    0.015024
   139  H    0.007045
   140  H    0.019999
 Sum of Mulliken charges =  -0.00000

 Dipole moment (field-independent basis, Debye):
    X=             -4.7088    Y=              2.1748    Z=             -4.5958  Tot=              6.9299
 N-N= 4.215200348533D+03 E-N= 0.000000000000D+00  KE=-9.105037622724D+03
 Leave Link  601 at Wed Apr 27 01:18:33 2022, MaxMem=  6710886400 cpu:               0.8 elap:               0.0
 (Enter /sw/apps/gaussian-16.0/g16/l9999.exe)
 1\1\GINC-BP1-COMPUTE148\SP\RZINDO CIS\STO-3G\C55H74Mg1N4O6\OF15641\27-
 Apr-2022\0\\#p ZINDO=(nstates=5)\\step_101_chromophore_22 ZINDO\\0,1\M
 g,0,8.662,47.591,24.658\C,0,6.242,48.196,27.239\C,0,11.076,48.721,26.7
 52\C,0,10.81,47.505,22.082\C,0,5.967,47.357,22.41\N,0,8.631,48.607,26.
 687\C,0,7.57,48.418,27.6\C,0,8.,48.615,29.034\C,0,9.482,49.201,28.789\
 C,0,9.821,48.751,27.352\C,0,9.488,50.777,28.946\C,0,8.103,47.353,29.89
 5\C,0,8.22,47.567,31.443\C,0,7.587,46.423,32.181\O,0,6.73,45.592,31.71

 Normal termination of Gaussian 16 at Wed Apr 27 01:18:33 2022.
