 Gaussian 16, Revision A.03,
 Gaussian 16:  ES64L-G16RevA.03 25-Dec-2016

 ------------------------------
 #p blyp/Def2SVP td=(nstates=5)
 ------------------------------

 -------------------------------------------------
 step_51_chromophore_26 TDDFT with blyp functional
 -------------------------------------------------
 Symbolic Z-matrix:
 Charge =  0 Multiplicity = 1

                         Standard orientation:
 ---------------------------------------------------------------------
 Center     Atomic      Atomic             Coordinates (Angstroms)
 Number     Number       Type             X           Y           Z
 ---------------------------------------------------------------------
      1         12           0       -4.120596    1.296138    0.389642
      2          6           0       -4.915328   -2.047669   -0.145736
      3          6           0       -2.594650    0.326341    3.317210
      4          6           0       -2.950340    4.465526    0.726403
      5          6           0       -4.915453    1.889065   -2.967866
      6          7           0       -3.874523   -0.667973    1.534131
      7          6           0       -4.283847   -1.858531    1.092598
      8          6           0       -3.903566   -2.974746    2.032380
      9          6           0       -3.374808   -2.146887    3.344429
     10          6           0       -3.311143   -0.722975    2.723390
     11          6           0       -4.378734   -2.290779    4.513070
     12          6           0       -2.823515   -3.997694    1.513567
     13          6           0       -1.683330   -3.438469    0.601067
     14          6           0       -0.275629   -3.731352    1.097909
     15          8           0        0.095997   -3.745307    2.234426
     16          8           0        0.581278   -3.857438    0.006020
     17          7           0       -3.008776    2.281500    1.895737
     18          6           0       -2.373253    1.700711    2.962538
     19          6           0       -1.784154    2.720998    3.763264
     20          6           0       -1.984046    3.939322    3.147410
     21          6           0       -2.696893    3.676608    1.826911
     22          6           0       -0.980577    2.495042    5.064811
     23          6           0       -1.560458    5.285075    3.715576
     24          8           0       -0.821239    5.325910    4.668742
     25          6           0       -1.934739    6.506059    3.122722
     26          7           0       -4.014132    2.944944   -0.886168
     27          6           0       -3.538289    4.171877   -0.501178
     28          6           0       -3.962858    5.267513   -1.528373
     29          6           0       -4.324793    4.359383   -2.794952
     30          6           0       -4.363613    2.937967   -2.168865
     31          6           0       -5.175112    6.119884   -1.050306
     32          6           0       -3.266247    4.620803   -3.898096
     33          6           0       -3.755906    4.897890   -5.347011
     34          7           0       -4.868564    0.248188   -1.205549
     35          6           0       -5.175161    0.610937   -2.506893
     36          6           0       -5.663362   -0.476606   -3.248388
     37          6           0       -5.611093   -1.584448   -2.410095
     38          6           0       -5.071118   -1.102717   -1.161406
     39          6           0       -5.972420   -0.452359   -4.646809
     40          6           0       -5.900658   -2.957434   -2.252869
     41          8           0       -6.446482   -3.744580   -2.992786
     42          6           0       -5.442213   -3.309404   -0.810218
     43          6           0       -6.654442   -3.831534   -0.082251
     44          8           0       -7.660971   -3.231551    0.150510
     45          8           0       -6.365318   -5.106173    0.407136
     46          6           0       -7.204955   -5.646531    1.475473
     47          6           0        2.028288   -4.119407    0.381083
     48          6           0        2.964474   -3.180952   -0.443076
     49          6           0        2.875083   -2.897843   -1.739621
     50          6           0        2.158231   -3.858572   -2.650397
     51          6           0        3.505304   -1.680090   -2.388136
     52          6           0        5.070242   -1.711156   -2.478993
     53          6           0        5.629020   -0.368241   -2.855419
     54          6           0        5.986250    0.583769   -1.625410
     55          6           0        5.396743    1.940551   -1.938292
     56          6           0        7.505197    0.837874   -1.383100
     57          6           0        7.974977    1.069961    0.100910
     58          6           0        8.232600   -0.271726    0.863447
     59          6           0        9.583781   -0.227837    1.731051
     60          6           0        9.336932   -0.982477    3.064779
     61          6           0       10.825327   -0.879041    1.028004
     62          6           0       11.510231    0.006208   -0.105769
     63          6           0       12.896179   -0.627998   -0.517659
     64          6           0       14.043859    0.397700   -0.456873
     65          6           0       13.846942    1.410771   -1.600939
     66          6           0       15.453375   -0.359239   -0.519800
     67          1           0       -2.192462    0.053712    4.295112
     68          1           0       -2.740273    5.531681    0.826659
     69          1           0       -5.137214    2.008808   -4.031183
     70          1           0       -4.826584   -3.514143    2.245652
     71          1           0       -2.368696   -2.545607    3.474960
     72          1           0       -4.071945   -1.645799    5.337106
     73          1           0       -4.617980   -3.302166    4.839137
     74          1           0       -5.324506   -1.871037    4.172846
     75          1           0       -3.401019   -4.808485    1.069208
     76          1           0       -2.361720   -4.518217    2.351567
     77          1           0       -1.844299   -2.386466    0.364148
     78          1           0       -1.784199   -4.007807   -0.323175
     79          1           0       -0.044953    3.015647    4.860593
     80          1           0       -0.881390    1.451403    5.363357
     81          1           0       -1.461412    2.993235    5.906084
     82          1           0       -2.914809    6.398301    2.658224
     83          1           0       -1.147258    6.703503    2.396391
     84          1           0       -1.842098    7.252944    3.911350
     85          1           0       -3.100206    5.877549   -1.797601
     86          1           0       -5.275974    4.517564   -3.302720
     87          1           0       -5.657457    5.556083   -0.251060
     88          1           0       -5.884664    6.399472   -1.828716
     89          1           0       -4.909720    7.072213   -0.592024
     90          1           0       -2.687138    3.702997   -3.791846
     91          1           0       -2.609478    5.446559   -3.624813
     92          1           0       -3.101902    5.602595   -5.861531
     93          1           0       -4.780708    5.245343   -5.479066
     94          1           0       -3.736443    3.970637   -5.920545
     95          1           0       -5.857724   -1.507408   -4.897505
     96          1           0       -5.425562    0.086431   -5.420789
     97          1           0       -7.017748   -0.193308   -4.811830
     98          1           0       -4.624818   -4.031513   -0.827696
     99          1           0       -8.120864   -6.040730    1.035882
    100          1           0       -7.423494   -4.880943    2.220258
    101          1           0       -6.608684   -6.475709    1.855755
    102          1           0        2.253317   -5.170474    0.197101
    103          1           0        2.327987   -3.786745    1.374593
    104          1           0        3.554714   -2.419025    0.066361
    105          1           0        2.726686   -4.095075   -3.549316
    106          1           0        1.204225   -3.379815   -2.870924
    107          1           0        1.936288   -4.784187   -2.118715
    108          1           0        3.260688   -0.786917   -1.812419
    109          1           0        3.009117   -1.510172   -3.343310
    110          1           0        5.260531   -2.428527   -3.277548
    111          1           0        5.521424   -2.050139   -1.546981
    112          1           0        4.860493    0.182277   -3.397294
    113          1           0        6.541146   -0.443929   -3.447094
    114          1           0        5.614220    0.140450   -0.701858
    115          1           0        4.309020    2.008242   -1.954381
    116          1           0        5.843130    2.285600   -2.870786
    117          1           0        5.612328    2.767384   -1.261594
    118          1           0        7.661572    1.800650   -1.869960
    119          1           0        8.208668    0.143088   -1.842638
    120          1           0        7.459665    1.873048    0.627967
    121          1           0        8.982338    1.448929   -0.075352
    122          1           0        8.243055   -1.109277    0.164908
    123          1           0        7.407812   -0.417878    1.560636
    124          1           0        9.700007    0.819819    2.008712
    125          1           0        9.825020   -1.952870    3.148187
    126          1           0        8.295225   -1.108987    3.358558
    127          1           0        9.883093   -0.432263    3.830036
    128          1           0       10.498095   -1.791342    0.528825
    129          1           0       11.657607   -1.144128    1.679559
    130          1           0       11.575674    1.033786    0.252284
    131          1           0       10.829043    0.061648   -0.954161
    132          1           0       12.654869   -0.944922   -1.530970
    133          1           0       13.012581   -1.538140    0.071097
    134          1           0       13.906480    0.851448    0.524376
    135          1           0       12.971406    1.278663   -2.235669
    136          1           0       14.765891    1.392532   -2.185264
    137          1           0       13.714025    2.387082   -1.134093
    138          1           0       15.814124   -0.585029    0.483787
    139          1           0       16.220214    0.215064   -1.039269
    140          1           0       15.308627   -1.313088   -1.025944
 ---------------------------------------------------------------------

 SCF Done:  E(RB-LYP) =  -3007.40067618     A.U. after   20 cycles

 Excitation energies and oscillator strengths:

 Excited State   1:      Singlet-A      1.8414 eV  673.33 nm  f=0.2021  <S**2>=0.000
     244 -> 247        0.33669
     245 -> 248        0.18835
     246 -> 247        0.59160
     246 <- 247       -0.11699
 This state for optimization and/or second-order correction.
 Total Energy, E(TD-HF/TD-DFT) =  -3007.33300752
 Copying the excited state density for this state as the 1-particle RhoCI density.

 Excited State   2:      Singlet-A      1.8786 eV  659.97 nm  f=0.0741  <S**2>=0.000
     244 -> 247        0.59656
     245 -> 247        0.13699
     245 -> 248       -0.11473
     246 -> 247       -0.33486

 Excited State   3:      Singlet-A      2.0303 eV  610.68 nm  f=0.0339  <S**2>=0.000
     243 -> 247       -0.43023
     244 -> 247       -0.13995
     245 -> 247        0.49358
     246 -> 248       -0.20742

 Excited State   4:      Singlet-A      2.0714 eV  598.55 nm  f=0.0219  <S**2>=0.000
     243 -> 247        0.55940
     245 -> 247        0.36857
     246 -> 248       -0.19206

 Excited State   5:      Singlet-A      2.3628 eV  524.73 nm  f=0.0000  <S**2>=0.000
     242 -> 247        0.70708

 The electronic state is 1-A.
 Alpha  occ. eigenvalues --  -46.27248 -18.81935 -18.81350 -18.77533 -18.77149
 Alpha  occ. eigenvalues --  -18.75611 -18.74869 -14.03733 -14.03413 -14.01165
 Alpha  occ. eigenvalues --  -14.00876 -10.04297 -10.03809  -9.99142  -9.98857
 Alpha  occ. eigenvalues --   -9.98248  -9.97830  -9.96910  -9.96856  -9.96643
 Alpha  occ. eigenvalues --   -9.96448  -9.96439  -9.95617  -9.94773  -9.94721
 Alpha  occ. eigenvalues --   -9.94574  -9.94061  -9.93957  -9.93910  -9.93632
 Alpha  occ. eigenvalues --   -9.93585  -9.93559  -9.93300  -9.93210  -9.93187
 Alpha  occ. eigenvalues --   -9.93173  -9.92954  -9.92881  -9.92780  -9.92739
 Alpha  occ. eigenvalues --   -9.92662  -9.92398  -9.92397  -9.92377  -9.92318
 Alpha  occ. eigenvalues --   -9.92295  -9.92160  -9.92062  -9.91984  -9.91920
 Alpha  occ. eigenvalues --   -9.91731  -9.91578  -9.91520  -9.91417  -9.91278
 Alpha  occ. eigenvalues --   -9.91248  -9.91242  -9.91123  -9.91087  -9.91046
 Alpha  occ. eigenvalues --   -9.91023  -9.90952  -9.90915  -9.90831  -9.90787
 Alpha  occ. eigenvalues --   -9.90333  -2.91891  -1.72324  -1.71774  -1.71595
 Alpha  occ. eigenvalues --   -0.97702  -0.97562  -0.92511  -0.91957  -0.90436
 Alpha  occ. eigenvalues --   -0.90153  -0.87693  -0.86856  -0.85723  -0.83970
 Alpha  occ. eigenvalues --   -0.76062  -0.73595  -0.72384  -0.72291  -0.72097
 Alpha  occ. eigenvalues --   -0.71939  -0.71700  -0.71682  -0.70520  -0.70368
 Alpha  occ. eigenvalues --   -0.69294  -0.68975  -0.68307  -0.67703  -0.67569
 Alpha  occ. eigenvalues --   -0.66861  -0.65909  -0.65585  -0.65085  -0.64628
 Alpha  occ. eigenvalues --   -0.64049  -0.62640  -0.62130  -0.61520  -0.60613
 Alpha  occ. eigenvalues --   -0.60300  -0.60015  -0.59972  -0.58733  -0.58434
 Alpha  occ. eigenvalues --   -0.58297  -0.57623  -0.57369  -0.55929  -0.54791
 Alpha  occ. eigenvalues --   -0.54438  -0.53773  -0.52734  -0.52401  -0.52083
 Alpha  occ. eigenvalues --   -0.51697  -0.51271  -0.50988  -0.50381  -0.49583
 Alpha  occ. eigenvalues --   -0.49373  -0.49021  -0.48665  -0.48216  -0.46649
 Alpha  occ. eigenvalues --   -0.46016  -0.45681  -0.45239  -0.44766  -0.44602
 Alpha  occ. eigenvalues --   -0.44176  -0.44166  -0.43470  -0.42861  -0.42509
 Alpha  occ. eigenvalues --   -0.42220  -0.41953  -0.41538  -0.41431  -0.41062
 Alpha  occ. eigenvalues --   -0.40974  -0.40784  -0.40717  -0.40479  -0.40163
 Alpha  occ. eigenvalues --   -0.39885  -0.39748  -0.39624  -0.39362  -0.39278
 Alpha  occ. eigenvalues --   -0.39133  -0.38968  -0.38806  -0.38411  -0.38229
 Alpha  occ. eigenvalues --   -0.38020  -0.37572  -0.37529  -0.37417  -0.37177
 Alpha  occ. eigenvalues --   -0.37042  -0.36822  -0.36609  -0.36552  -0.36518
 Alpha  occ. eigenvalues --   -0.36126  -0.36024  -0.35905  -0.35804  -0.35551
 Alpha  occ. eigenvalues --   -0.35299  -0.35282  -0.34972  -0.34839  -0.34725
 Alpha  occ. eigenvalues --   -0.34326  -0.34025  -0.33948  -0.33760  -0.33744
 Alpha  occ. eigenvalues --   -0.33666  -0.33496  -0.33392  -0.33293  -0.33050
 Alpha  occ. eigenvalues --   -0.32985  -0.32745  -0.32678  -0.32494  -0.32392
 Alpha  occ. eigenvalues --   -0.32298  -0.32186  -0.31972  -0.31706  -0.31640
 Alpha  occ. eigenvalues --   -0.31196  -0.30987  -0.30921  -0.30859  -0.30782
 Alpha  occ. eigenvalues --   -0.30720  -0.30183  -0.30168  -0.30014  -0.29807
 Alpha  occ. eigenvalues --   -0.29666  -0.29484  -0.29373  -0.29299  -0.29092
 Alpha  occ. eigenvalues --   -0.28721  -0.28645  -0.28563  -0.28272  -0.28087
 Alpha  occ. eigenvalues --   -0.27424  -0.27176  -0.26847  -0.26841  -0.26604
 Alpha  occ. eigenvalues --   -0.26390  -0.26239  -0.25918  -0.25450  -0.25209
 Alpha  occ. eigenvalues --   -0.25074  -0.24971  -0.24514  -0.24319  -0.24116
 Alpha  occ. eigenvalues --   -0.23704  -0.22882  -0.22558  -0.22110  -0.21051
 Alpha  occ. eigenvalues --   -0.20317  -0.20243  -0.18971  -0.18377  -0.17563
 Alpha  occ. eigenvalues --   -0.16093
 Alpha virt. eigenvalues --   -0.11560  -0.07611  -0.06055  -0.04238  -0.02961
 Alpha virt. eigenvalues --   -0.02542  -0.02323  -0.02175  -0.01318   0.00587
 Alpha virt. eigenvalues --    0.00979   0.01637   0.02385   0.02831   0.02903

 Mulliken charges:
               1
     1  Mg   0.696968
     2  C    0.029830
     3  C   -0.039307
     4  C   -0.023570
     5  C   -0.111997
     6  N   -0.130419
     7  C   -0.130414
     8  C    0.005781
     9  C    0.031604
    10  C   -0.037303
    11  C    0.139609
    12  C    0.082274
    13  C    0.114452
    14  C    0.073244
    15  O   -0.158095
    16  O   -0.292671
    17  N   -0.327379
    18  C    0.135492
    19  C   -0.159928
    20  C    0.046979
    21  C    0.140564
    22  C    0.204627
    23  C   -0.135640
    24  O   -0.164959
    25  C    0.185038
    26  N   -0.214113
    27  C   -0.025730
    28  C    0.045375
    29  C   -0.038153
    30  C    0.099357
    31  C    0.126585
    32  C    0.084729
    33  C    0.060241
    34  N   -0.284098
    35  C    0.126013
    36  C   -0.151199
    37  C    0.140619
    38  C    0.036817
    39  C    0.148431
    40  C   -0.082497
    41  O   -0.114603
    42  C    0.071618
    43  C    0.101809
    44  O   -0.142951
    45  O   -0.297824
    46  C    0.218404
    47  C    0.311016
    48  C   -0.123154
    49  C   -0.160373
    50  C    0.165458
    51  C    0.119116
    52  C    0.087992
    53  C    0.135295
    54  C   -0.051261
    55  C    0.092423
    56  C    0.070312
    57  C    0.064576
    58  C    0.106343
    59  C   -0.050780
    60  C    0.095782
    61  C    0.074207
    62  C    0.005087
    63  C    0.101748
    64  C   -0.094668
    65  C    0.121439
    66  C    0.099857
    67  H   -0.062306
    68  H   -0.077570
    69  H   -0.066811
    70  H   -0.037455
    71  H   -0.009277
    72  H   -0.007926
    73  H    0.001460
    74  H   -0.016606
    75  H   -0.012889
    76  H   -0.013269
    77  H    0.041486
    78  H   -0.003016
    79  H    0.016580
    80  H   -0.019249
    81  H   -0.003367
    82  H    0.006466
    83  H    0.017073
    84  H   -0.001316
    85  H   -0.026905
    86  H   -0.026772
    87  H   -0.003976
    88  H   -0.001941
    89  H   -0.013943
    90  H   -0.021594
    91  H   -0.017811
    92  H   -0.007526
    93  H   -0.008603
    94  H   -0.008626
    95  H    0.003926
    96  H   -0.001066
    97  H   -0.000894
    98  H   -0.010523
    99  H    0.018212
   100  H    0.017761
   101  H    0.014147
   102  H    0.015116
   103  H    0.016235
   104  H   -0.045822
   105  H   -0.004449
   106  H    0.000058
   107  H   -0.021786
   108  H   -0.024535
   109  H   -0.036204
   110  H   -0.035405
   111  H   -0.015027
   112  H   -0.038097
   113  H   -0.036667
   114  H   -0.036133
   115  H   -0.020361
   116  H   -0.015059
   117  H   -0.030917
   118  H   -0.049547
   119  H   -0.033160
   120  H   -0.026080
   121  H   -0.033677
   122  H   -0.032504
   123  H   -0.032131
   124  H   -0.032077
   125  H   -0.024773
   126  H   -0.016066
   127  H   -0.026303
   128  H   -0.027118
   129  H   -0.021210
   130  H   -0.024739
   131  H   -0.021982
   132  H   -0.038406
   133  H   -0.033337
   134  H   -0.025673
   135  H   -0.007653
   136  H   -0.017897
   137  H   -0.016633
   138  H   -0.013827
   139  H   -0.014084
   140  H   -0.011972
 Sum of Mulliken charges =  -0.00000

 Dipole moment (field-independent basis, Debye):
    X=              1.4453    Y=              2.2936    Z=             -1.6883  Tot=              3.1937
 Quadrupole moment (field-independent basis, Debye-Ang):
   XX=           -416.4837   YY=           -391.4682   ZZ=           -411.3020
   XY=            -23.2706   XZ=            -18.9983   YZ=            -33.3683

 Normal termination of Gaussian 16 at Thu May  5 03:53:00 2022.
