 Gaussian 16, Revision A.03,
 Gaussian 16:  ES64L-G16RevA.03 25-Dec-2016

 -----------------------------------
 #p cam-b3lyp/Def2SVP td=(nstates=5)
 -----------------------------------

 ------------------------------------------------------
 step_51_chromophore_26 TDDFT with cam-b3lyp functional
 ------------------------------------------------------
 Symbolic Z-matrix:
 Charge =  0 Multiplicity = 1

                         Standard orientation:
 ---------------------------------------------------------------------
 Center     Atomic      Atomic             Coordinates (Angstroms)
 Number     Number       Type             X           Y           Z
 ---------------------------------------------------------------------
      1         12           0       -4.120596    1.296138    0.389642
      2          6           0       -4.915328   -2.047669   -0.145736
      3          6           0       -2.594650    0.326341    3.317210
      4          6           0       -2.950340    4.465526    0.726403
      5          6           0       -4.915453    1.889065   -2.967866
      6          7           0       -3.874523   -0.667973    1.534131
      7          6           0       -4.283847   -1.858531    1.092598
      8          6           0       -3.903566   -2.974746    2.032380
      9          6           0       -3.374808   -2.146887    3.344429
     10          6           0       -3.311143   -0.722975    2.723390
     11          6           0       -4.378734   -2.290779    4.513070
     12          6           0       -2.823515   -3.997694    1.513567
     13          6           0       -1.683330   -3.438469    0.601067
     14          6           0       -0.275629   -3.731352    1.097909
     15          8           0        0.095997   -3.745307    2.234426
     16          8           0        0.581278   -3.857438    0.006020
     17          7           0       -3.008776    2.281500    1.895737
     18          6           0       -2.373253    1.700711    2.962538
     19          6           0       -1.784154    2.720998    3.763264
     20          6           0       -1.984046    3.939322    3.147410
     21          6           0       -2.696893    3.676608    1.826911
     22          6           0       -0.980577    2.495042    5.064811
     23          6           0       -1.560458    5.285075    3.715576
     24          8           0       -0.821239    5.325910    4.668742
     25          6           0       -1.934739    6.506059    3.122722
     26          7           0       -4.014132    2.944944   -0.886168
     27          6           0       -3.538289    4.171877   -0.501178
     28          6           0       -3.962858    5.267513   -1.528373
     29          6           0       -4.324793    4.359383   -2.794952
     30          6           0       -4.363613    2.937967   -2.168865
     31          6           0       -5.175112    6.119884   -1.050306
     32          6           0       -3.266247    4.620803   -3.898096
     33          6           0       -3.755906    4.897890   -5.347011
     34          7           0       -4.868564    0.248188   -1.205549
     35          6           0       -5.175161    0.610937   -2.506893
     36          6           0       -5.663362   -0.476606   -3.248388
     37          6           0       -5.611093   -1.584448   -2.410095
     38          6           0       -5.071118   -1.102717   -1.161406
     39          6           0       -5.972420   -0.452359   -4.646809
     40          6           0       -5.900658   -2.957434   -2.252869
     41          8           0       -6.446482   -3.744580   -2.992786
     42          6           0       -5.442213   -3.309404   -0.810218
     43          6           0       -6.654442   -3.831534   -0.082251
     44          8           0       -7.660971   -3.231551    0.150510
     45          8           0       -6.365318   -5.106173    0.407136
     46          6           0       -7.204955   -5.646531    1.475473
     47          6           0        2.028288   -4.119407    0.381083
     48          6           0        2.964474   -3.180952   -0.443076
     49          6           0        2.875083   -2.897843   -1.739621
     50          6           0        2.158231   -3.858572   -2.650397
     51          6           0        3.505304   -1.680090   -2.388136
     52          6           0        5.070242   -1.711156   -2.478993
     53          6           0        5.629020   -0.368241   -2.855419
     54          6           0        5.986250    0.583769   -1.625410
     55          6           0        5.396743    1.940551   -1.938292
     56          6           0        7.505197    0.837874   -1.383100
     57          6           0        7.974977    1.069961    0.100910
     58          6           0        8.232600   -0.271726    0.863447
     59          6           0        9.583781   -0.227837    1.731051
     60          6           0        9.336932   -0.982477    3.064779
     61          6           0       10.825327   -0.879041    1.028004
     62          6           0       11.510231    0.006208   -0.105769
     63          6           0       12.896179   -0.627998   -0.517659
     64          6           0       14.043859    0.397700   -0.456873
     65          6           0       13.846942    1.410771   -1.600939
     66          6           0       15.453375   -0.359239   -0.519800
     67          1           0       -2.192462    0.053712    4.295112
     68          1           0       -2.740273    5.531681    0.826659
     69          1           0       -5.137214    2.008808   -4.031183
     70          1           0       -4.826584   -3.514143    2.245652
     71          1           0       -2.368696   -2.545607    3.474960
     72          1           0       -4.071945   -1.645799    5.337106
     73          1           0       -4.617980   -3.302166    4.839137
     74          1           0       -5.324506   -1.871037    4.172846
     75          1           0       -3.401019   -4.808485    1.069208
     76          1           0       -2.361720   -4.518217    2.351567
     77          1           0       -1.844299   -2.386466    0.364148
     78          1           0       -1.784199   -4.007807   -0.323175
     79          1           0       -0.044953    3.015647    4.860593
     80          1           0       -0.881390    1.451403    5.363357
     81          1           0       -1.461412    2.993235    5.906084
     82          1           0       -2.914809    6.398301    2.658224
     83          1           0       -1.147258    6.703503    2.396391
     84          1           0       -1.842098    7.252944    3.911350
     85          1           0       -3.100206    5.877549   -1.797601
     86          1           0       -5.275974    4.517564   -3.302720
     87          1           0       -5.657457    5.556083   -0.251060
     88          1           0       -5.884664    6.399472   -1.828716
     89          1           0       -4.909720    7.072213   -0.592024
     90          1           0       -2.687138    3.702997   -3.791846
     91          1           0       -2.609478    5.446559   -3.624813
     92          1           0       -3.101902    5.602595   -5.861531
     93          1           0       -4.780708    5.245343   -5.479066
     94          1           0       -3.736443    3.970637   -5.920545
     95          1           0       -5.857724   -1.507408   -4.897505
     96          1           0       -5.425562    0.086431   -5.420789
     97          1           0       -7.017748   -0.193308   -4.811830
     98          1           0       -4.624818   -4.031513   -0.827696
     99          1           0       -8.120864   -6.040730    1.035882
    100          1           0       -7.423494   -4.880943    2.220258
    101          1           0       -6.608684   -6.475709    1.855755
    102          1           0        2.253317   -5.170474    0.197101
    103          1           0        2.327987   -3.786745    1.374593
    104          1           0        3.554714   -2.419025    0.066361
    105          1           0        2.726686   -4.095075   -3.549316
    106          1           0        1.204225   -3.379815   -2.870924
    107          1           0        1.936288   -4.784187   -2.118715
    108          1           0        3.260688   -0.786917   -1.812419
    109          1           0        3.009117   -1.510172   -3.343310
    110          1           0        5.260531   -2.428527   -3.277548
    111          1           0        5.521424   -2.050139   -1.546981
    112          1           0        4.860493    0.182277   -3.397294
    113          1           0        6.541146   -0.443929   -3.447094
    114          1           0        5.614220    0.140450   -0.701858
    115          1           0        4.309020    2.008242   -1.954381
    116          1           0        5.843130    2.285600   -2.870786
    117          1           0        5.612328    2.767384   -1.261594
    118          1           0        7.661572    1.800650   -1.869960
    119          1           0        8.208668    0.143088   -1.842638
    120          1           0        7.459665    1.873048    0.627967
    121          1           0        8.982338    1.448929   -0.075352
    122          1           0        8.243055   -1.109277    0.164908
    123          1           0        7.407812   -0.417878    1.560636
    124          1           0        9.700007    0.819819    2.008712
    125          1           0        9.825020   -1.952870    3.148187
    126          1           0        8.295225   -1.108987    3.358558
    127          1           0        9.883093   -0.432263    3.830036
    128          1           0       10.498095   -1.791342    0.528825
    129          1           0       11.657607   -1.144128    1.679559
    130          1           0       11.575674    1.033786    0.252284
    131          1           0       10.829043    0.061648   -0.954161
    132          1           0       12.654869   -0.944922   -1.530970
    133          1           0       13.012581   -1.538140    0.071097
    134          1           0       13.906480    0.851448    0.524376
    135          1           0       12.971406    1.278663   -2.235669
    136          1           0       14.765891    1.392532   -2.185264
    137          1           0       13.714025    2.387082   -1.134093
    138          1           0       15.814124   -0.585029    0.483787
    139          1           0       16.220214    0.215064   -1.039269
    140          1           0       15.308627   -1.313088   -1.025944
 ---------------------------------------------------------------------

 SCF Done:  E(RCAM-B3LYP) =  -3007.19932371     A.U. after   18 cycles

 Excitation energies and oscillator strengths:

 Excited State   1:      Singlet-A      1.7623 eV  703.55 nm  f=0.3461  <S**2>=0.000
     245 -> 248        0.20079
     246 -> 247        0.67921
     245 <- 248        0.10963
 This state for optimization and/or second-order correction.
 Total Energy, E(TD-HF/TD-DFT) =  -3007.13456203
 Copying the excited state density for this state as the 1-particle RhoCI density.

 Excited State   2:      Singlet-A      2.2518 eV  550.60 nm  f=0.0555  <S**2>=0.000
     245 -> 247        0.60961
     246 -> 248       -0.34850

 Excited State   3:      Singlet-A      3.3842 eV  366.36 nm  f=0.3756  <S**2>=0.000
     242 -> 247        0.14093
     244 -> 247        0.39463
     245 -> 247        0.25228
     246 -> 248        0.49632

 Excited State   4:      Singlet-A      3.4293 eV  361.54 nm  f=0.1827  <S**2>=0.000
     242 -> 247       -0.23276
     244 -> 247        0.55069
     245 -> 247       -0.17881
     246 -> 248       -0.29685

 Excited State   5:      Singlet-A      3.5507 eV  349.18 nm  f=0.0087  <S**2>=0.000
     240 -> 247        0.58223
     240 -> 249       -0.32024
     240 -> 251       -0.15174

 The electronic state is 1-A.
 Alpha  occ. eigenvalues --  -46.88844 -19.24753 -19.24284 -19.20500 -19.20307
 Alpha  occ. eigenvalues --  -19.18908 -19.18023 -14.42677 -14.42270 -14.39746
 Alpha  occ. eigenvalues --  -14.39331 -10.39531 -10.39259 -10.34514 -10.33882
 Alpha  occ. eigenvalues --  -10.32406 -10.31841 -10.31437 -10.31292 -10.31158
 Alpha  occ. eigenvalues --  -10.31002 -10.30883 -10.29962 -10.29201 -10.28937
 Alpha  occ. eigenvalues --  -10.28611 -10.28142 -10.28020 -10.28013 -10.27886
 Alpha  occ. eigenvalues --  -10.27824 -10.27694 -10.27665 -10.27625 -10.27369
 Alpha  occ. eigenvalues --  -10.27258 -10.27065 -10.27044 -10.26790 -10.26488
 Alpha  occ. eigenvalues --  -10.26481 -10.26443 -10.26371 -10.26094 -10.26065
 Alpha  occ. eigenvalues --  -10.25986 -10.25812 -10.25767 -10.25710 -10.25655
 Alpha  occ. eigenvalues --  -10.25507 -10.25307 -10.25295 -10.25193 -10.24961
 Alpha  occ. eigenvalues --  -10.24956 -10.24943 -10.24877 -10.24818 -10.24777
 Alpha  occ. eigenvalues --  -10.24770 -10.24703 -10.24595 -10.24390 -10.24357
 Alpha  occ. eigenvalues --  -10.23914  -3.17390  -1.92299  -1.91844  -1.91686
 Alpha  occ. eigenvalues --   -1.16195  -1.16158  -1.10939  -1.10492  -1.08395
 Alpha  occ. eigenvalues --   -1.07910  -1.05505  -1.04602  -1.03365  -1.01524
 Alpha  occ. eigenvalues --   -0.93306  -0.90412  -0.89131  -0.89048  -0.88842
 Alpha  occ. eigenvalues --   -0.88595  -0.88401  -0.88370  -0.87069  -0.86908
 Alpha  occ. eigenvalues --   -0.85914  -0.85365  -0.84619  -0.83958  -0.83784
 Alpha  occ. eigenvalues --   -0.83036  -0.81911  -0.81535  -0.80891  -0.80454
 Alpha  occ. eigenvalues --   -0.79823  -0.78306  -0.77675  -0.77064  -0.76067
 Alpha  occ. eigenvalues --   -0.75593  -0.75342  -0.75337  -0.73951  -0.73618
 Alpha  occ. eigenvalues --   -0.73401  -0.72626  -0.72332  -0.70741  -0.69418
 Alpha  occ. eigenvalues --   -0.69181  -0.68303  -0.67170  -0.66811  -0.66193
 Alpha  occ. eigenvalues --   -0.65891  -0.65484  -0.65174  -0.64349  -0.63597
 Alpha  occ. eigenvalues --   -0.63053  -0.62939  -0.62532  -0.62001  -0.60301
 Alpha  occ. eigenvalues --   -0.59584  -0.59226  -0.58878  -0.58287  -0.57973
 Alpha  occ. eigenvalues --   -0.57699  -0.57500  -0.56656  -0.56201  -0.55784
 Alpha  occ. eigenvalues --   -0.55499  -0.54857  -0.54636  -0.54283  -0.53824
 Alpha  occ. eigenvalues --   -0.53745  -0.53647  -0.53434  -0.53395  -0.53206
 Alpha  occ. eigenvalues --   -0.52954  -0.52590  -0.52131  -0.52089  -0.51839
 Alpha  occ. eigenvalues --   -0.51636  -0.51316  -0.51214  -0.51081  -0.50550
 Alpha  occ. eigenvalues --   -0.50412  -0.50118  -0.49974  -0.49729  -0.49681
 Alpha  occ. eigenvalues --   -0.49492  -0.49175  -0.49085  -0.48857  -0.48737
 Alpha  occ. eigenvalues --   -0.48541  -0.48237  -0.47991  -0.47729  -0.47577
 Alpha  occ. eigenvalues --   -0.47345  -0.47236  -0.46899  -0.46708  -0.46647
 Alpha  occ. eigenvalues --   -0.46436  -0.46201  -0.45937  -0.45645  -0.45606
 Alpha  occ. eigenvalues --   -0.45419  -0.45262  -0.45112  -0.45039  -0.44913
 Alpha  occ. eigenvalues --   -0.44613  -0.44532  -0.44349  -0.44188  -0.43973
 Alpha  occ. eigenvalues --   -0.43913  -0.43831  -0.43720  -0.43216  -0.43056
 Alpha  occ. eigenvalues --   -0.42812  -0.42398  -0.42320  -0.42232  -0.42071
 Alpha  occ. eigenvalues --   -0.42022  -0.41886  -0.41496  -0.41362  -0.41322
 Alpha  occ. eigenvalues --   -0.40968  -0.40813  -0.40646  -0.40478  -0.40293
 Alpha  occ. eigenvalues --   -0.39774  -0.39673  -0.39611  -0.39136  -0.39003
 Alpha  occ. eigenvalues --   -0.38568  -0.37949  -0.37772  -0.37677  -0.37577
 Alpha  occ. eigenvalues --   -0.37265  -0.37138  -0.36674  -0.36563  -0.36434
 Alpha  occ. eigenvalues --   -0.35972  -0.35764  -0.34963  -0.34852  -0.34772
 Alpha  occ. eigenvalues --   -0.34563  -0.34498  -0.33650  -0.31620  -0.31205
 Alpha  occ. eigenvalues --   -0.30850  -0.30413  -0.29814  -0.29646  -0.24404
 Alpha  occ. eigenvalues --   -0.21373
 Alpha virt. eigenvalues --   -0.08549  -0.02755   0.00409   0.02375   0.03000
 Alpha virt. eigenvalues --    0.04668   0.05311   0.05621   0.05637   0.06752
 Alpha virt. eigenvalues --    0.07755   0.08625   0.08889   0.09080   0.09251

 Mulliken charges:
               1
     1  Mg   0.829609
     2  C   -0.004786
     3  C   -0.051034
     4  C   -0.048599
     5  C   -0.111221
     6  N   -0.200813
     7  C   -0.088103
     8  C   -0.034776
     9  C   -0.023400
    10  C   -0.020451
    11  C    0.083704
    12  C    0.029281
    13  C    0.040944
    14  C    0.158874
    15  O   -0.200564
    16  O   -0.357637
    17  N   -0.410430
    18  C    0.147218
    19  C   -0.166590
    20  C   -0.023681
    21  C    0.164781
    22  C    0.151697
    23  C   -0.048619
    24  O   -0.205595
    25  C    0.089427
    26  N   -0.288449
    27  C   -0.004308
    28  C   -0.009385
    29  C   -0.090555
    30  C    0.112836
    31  C    0.069818
    32  C    0.031856
    33  C   -0.002586
    34  N   -0.374366
    35  C    0.130929
    36  C   -0.138968
    37  C    0.056095
    38  C    0.077002
    39  C    0.086235
    40  C    0.017051
    41  O   -0.153167
    42  C   -0.003865
    43  C    0.192553
    44  O   -0.178925
    45  O   -0.362686
    46  C    0.178739
    47  C    0.278653
    48  C   -0.147695
    49  C   -0.173415
    50  C    0.099307
    51  C    0.061348
    52  C    0.035159
    53  C    0.079753
    54  C   -0.106392
    55  C    0.030460
    56  C    0.019625
    57  C    0.011569
    58  C    0.055507
    59  C   -0.109440
    60  C    0.036994
    61  C    0.024734
    62  C   -0.037976
    63  C    0.044889
    64  C   -0.151793
    65  C    0.057859
    66  C    0.042009
    67  H   -0.029014
    68  H   -0.040592
    69  H   -0.030151
    70  H   -0.003863
    71  H    0.026082
    72  H    0.016781
    73  H    0.025825
    74  H    0.007301
    75  H    0.016398
    76  H    0.020414
    77  H    0.071288
    78  H    0.030843
    79  H    0.044216
    80  H    0.006447
    81  H    0.024342
    82  H    0.032761
    83  H    0.046305
    84  H    0.035169
    85  H    0.007653
    86  H    0.007557
    87  H    0.020550
    88  H    0.022345
    89  H    0.009926
    90  H    0.008599
    91  H    0.009609
    92  H    0.017210
    93  H    0.014402
    94  H    0.013380
    95  H    0.031211
    96  H    0.026147
    97  H    0.028327
    98  H    0.032298
    99  H    0.041748
   100  H    0.038867
   101  H    0.037052
   102  H    0.041062
   103  H    0.048677
   104  H   -0.016147
   105  H    0.018912
   106  H    0.024985
   107  H    0.003881
   108  H    0.003708
   109  H   -0.005083
   110  H   -0.005943
   111  H    0.010263
   112  H   -0.007840
   113  H   -0.006453
   114  H   -0.007614
   115  H    0.005168
   116  H    0.008801
   117  H   -0.004706
   118  H   -0.019128
   119  H   -0.006739
   120  H    0.001884
   121  H   -0.007204
   122  H   -0.005170
   123  H   -0.003816
   124  H   -0.000111
   125  H    0.000035
   126  H    0.008544
   127  H   -0.001299
   128  H   -0.000218
   129  H    0.005713
   130  H    0.000085
   131  H   -0.000095
   132  H   -0.008720
   133  H   -0.004269
   134  H    0.004697
   135  H    0.015843
   136  H    0.006484
   137  H    0.007528
   138  H    0.010126
   139  H    0.009286
   140  H    0.011189
 Sum of Mulliken charges =  -0.00000

 Dipole moment (field-independent basis, Debye):
    X=              1.3394    Y=              2.5432    Z=             -1.6248  Tot=              3.3018
 Quadrupole moment (field-independent basis, Debye-Ang):
   XX=           -417.8036   YY=           -387.2988   ZZ=           -409.3809
   XY=            -23.9960   XZ=            -19.0661   YZ=            -34.6590

 Normal termination of Gaussian 16 at Thu May  5 02:06:01 2022.
