 Gaussian 16, Revision A.03,
 Gaussian 16:  ES64L-G16RevA.03 25-Dec-2016

 ---------------------------------
 #p PBE1PBE/Def2SVP td=(nstates=5)
 ---------------------------------

 ----------------------------------------------------
 step_51_chromophore_26 TDDFT with PBE1PBE functional
 ----------------------------------------------------
 Symbolic Z-matrix:
 Charge =  0 Multiplicity = 1

                         Standard orientation:
 ---------------------------------------------------------------------
 Center     Atomic      Atomic             Coordinates (Angstroms)
 Number     Number       Type             X           Y           Z
 ---------------------------------------------------------------------
      1         12           0       -4.120596    1.296138    0.389642
      2          6           0       -4.915328   -2.047669   -0.145736
      3          6           0       -2.594650    0.326341    3.317210
      4          6           0       -2.950340    4.465526    0.726403
      5          6           0       -4.915453    1.889065   -2.967866
      6          7           0       -3.874523   -0.667973    1.534131
      7          6           0       -4.283847   -1.858531    1.092598
      8          6           0       -3.903566   -2.974746    2.032380
      9          6           0       -3.374808   -2.146887    3.344429
     10          6           0       -3.311143   -0.722975    2.723390
     11          6           0       -4.378734   -2.290779    4.513070
     12          6           0       -2.823515   -3.997694    1.513567
     13          6           0       -1.683330   -3.438469    0.601067
     14          6           0       -0.275629   -3.731352    1.097909
     15          8           0        0.095997   -3.745307    2.234426
     16          8           0        0.581278   -3.857438    0.006020
     17          7           0       -3.008776    2.281500    1.895737
     18          6           0       -2.373253    1.700711    2.962538
     19          6           0       -1.784154    2.720998    3.763264
     20          6           0       -1.984046    3.939322    3.147410
     21          6           0       -2.696893    3.676608    1.826911
     22          6           0       -0.980577    2.495042    5.064811
     23          6           0       -1.560458    5.285075    3.715576
     24          8           0       -0.821239    5.325910    4.668742
     25          6           0       -1.934739    6.506059    3.122722
     26          7           0       -4.014132    2.944944   -0.886168
     27          6           0       -3.538289    4.171877   -0.501178
     28          6           0       -3.962858    5.267513   -1.528373
     29          6           0       -4.324793    4.359383   -2.794952
     30          6           0       -4.363613    2.937967   -2.168865
     31          6           0       -5.175112    6.119884   -1.050306
     32          6           0       -3.266247    4.620803   -3.898096
     33          6           0       -3.755906    4.897890   -5.347011
     34          7           0       -4.868564    0.248188   -1.205549
     35          6           0       -5.175161    0.610937   -2.506893
     36          6           0       -5.663362   -0.476606   -3.248388
     37          6           0       -5.611093   -1.584448   -2.410095
     38          6           0       -5.071118   -1.102717   -1.161406
     39          6           0       -5.972420   -0.452359   -4.646809
     40          6           0       -5.900658   -2.957434   -2.252869
     41          8           0       -6.446482   -3.744580   -2.992786
     42          6           0       -5.442213   -3.309404   -0.810218
     43          6           0       -6.654442   -3.831534   -0.082251
     44          8           0       -7.660971   -3.231551    0.150510
     45          8           0       -6.365318   -5.106173    0.407136
     46          6           0       -7.204955   -5.646531    1.475473
     47          6           0        2.028288   -4.119407    0.381083
     48          6           0        2.964474   -3.180952   -0.443076
     49          6           0        2.875083   -2.897843   -1.739621
     50          6           0        2.158231   -3.858572   -2.650397
     51          6           0        3.505304   -1.680090   -2.388136
     52          6           0        5.070242   -1.711156   -2.478993
     53          6           0        5.629020   -0.368241   -2.855419
     54          6           0        5.986250    0.583769   -1.625410
     55          6           0        5.396743    1.940551   -1.938292
     56          6           0        7.505197    0.837874   -1.383100
     57          6           0        7.974977    1.069961    0.100910
     58          6           0        8.232600   -0.271726    0.863447
     59          6           0        9.583781   -0.227837    1.731051
     60          6           0        9.336932   -0.982477    3.064779
     61          6           0       10.825327   -0.879041    1.028004
     62          6           0       11.510231    0.006208   -0.105769
     63          6           0       12.896179   -0.627998   -0.517659
     64          6           0       14.043859    0.397700   -0.456873
     65          6           0       13.846942    1.410771   -1.600939
     66          6           0       15.453375   -0.359239   -0.519800
     67          1           0       -2.192462    0.053712    4.295112
     68          1           0       -2.740273    5.531681    0.826659
     69          1           0       -5.137214    2.008808   -4.031183
     70          1           0       -4.826584   -3.514143    2.245652
     71          1           0       -2.368696   -2.545607    3.474960
     72          1           0       -4.071945   -1.645799    5.337106
     73          1           0       -4.617980   -3.302166    4.839137
     74          1           0       -5.324506   -1.871037    4.172846
     75          1           0       -3.401019   -4.808485    1.069208
     76          1           0       -2.361720   -4.518217    2.351567
     77          1           0       -1.844299   -2.386466    0.364148
     78          1           0       -1.784199   -4.007807   -0.323175
     79          1           0       -0.044953    3.015647    4.860593
     80          1           0       -0.881390    1.451403    5.363357
     81          1           0       -1.461412    2.993235    5.906084
     82          1           0       -2.914809    6.398301    2.658224
     83          1           0       -1.147258    6.703503    2.396391
     84          1           0       -1.842098    7.252944    3.911350
     85          1           0       -3.100206    5.877549   -1.797601
     86          1           0       -5.275974    4.517564   -3.302720
     87          1           0       -5.657457    5.556083   -0.251060
     88          1           0       -5.884664    6.399472   -1.828716
     89          1           0       -4.909720    7.072213   -0.592024
     90          1           0       -2.687138    3.702997   -3.791846
     91          1           0       -2.609478    5.446559   -3.624813
     92          1           0       -3.101902    5.602595   -5.861531
     93          1           0       -4.780708    5.245343   -5.479066
     94          1           0       -3.736443    3.970637   -5.920545
     95          1           0       -5.857724   -1.507408   -4.897505
     96          1           0       -5.425562    0.086431   -5.420789
     97          1           0       -7.017748   -0.193308   -4.811830
     98          1           0       -4.624818   -4.031513   -0.827696
     99          1           0       -8.120864   -6.040730    1.035882
    100          1           0       -7.423494   -4.880943    2.220258
    101          1           0       -6.608684   -6.475709    1.855755
    102          1           0        2.253317   -5.170474    0.197101
    103          1           0        2.327987   -3.786745    1.374593
    104          1           0        3.554714   -2.419025    0.066361
    105          1           0        2.726686   -4.095075   -3.549316
    106          1           0        1.204225   -3.379815   -2.870924
    107          1           0        1.936288   -4.784187   -2.118715
    108          1           0        3.260688   -0.786917   -1.812419
    109          1           0        3.009117   -1.510172   -3.343310
    110          1           0        5.260531   -2.428527   -3.277548
    111          1           0        5.521424   -2.050139   -1.546981
    112          1           0        4.860493    0.182277   -3.397294
    113          1           0        6.541146   -0.443929   -3.447094
    114          1           0        5.614220    0.140450   -0.701858
    115          1           0        4.309020    2.008242   -1.954381
    116          1           0        5.843130    2.285600   -2.870786
    117          1           0        5.612328    2.767384   -1.261594
    118          1           0        7.661572    1.800650   -1.869960
    119          1           0        8.208668    0.143088   -1.842638
    120          1           0        7.459665    1.873048    0.627967
    121          1           0        8.982338    1.448929   -0.075352
    122          1           0        8.243055   -1.109277    0.164908
    123          1           0        7.407812   -0.417878    1.560636
    124          1           0        9.700007    0.819819    2.008712
    125          1           0        9.825020   -1.952870    3.148187
    126          1           0        8.295225   -1.108987    3.358558
    127          1           0        9.883093   -0.432263    3.830036
    128          1           0       10.498095   -1.791342    0.528825
    129          1           0       11.657607   -1.144128    1.679559
    130          1           0       11.575674    1.033786    0.252284
    131          1           0       10.829043    0.061648   -0.954161
    132          1           0       12.654869   -0.944922   -1.530970
    133          1           0       13.012581   -1.538140    0.071097
    134          1           0       13.906480    0.851448    0.524376
    135          1           0       12.971406    1.278663   -2.235669
    136          1           0       14.765891    1.392532   -2.185264
    137          1           0       13.714025    2.387082   -1.134093
    138          1           0       15.814124   -0.585029    0.483787
    139          1           0       16.220214    0.215064   -1.039269
    140          1           0       15.308627   -1.313088   -1.025944
 ---------------------------------------------------------------------

 SCF Done:  E(RPBE1PBE) =  -3005.38604927     A.U. after   15 cycles

 Excitation energies and oscillator strengths:

 Excited State   1:      Singlet-A      1.9125 eV  648.27 nm  f=0.3335  <S**2>=0.000
     245 -> 248        0.19518
     246 -> 247        0.68521
 This state for optimization and/or second-order correction.
 Total Energy, E(TD-HF/TD-DFT) =  -3005.31576444
 Copying the excited state density for this state as the 1-particle RhoCI density.

 Excited State   2:      Singlet-A      2.2609 eV  548.38 nm  f=0.0637  <S**2>=0.000
     245 -> 247        0.62886
     246 -> 248       -0.31173

 Excited State   3:      Singlet-A      2.9955 eV  413.90 nm  f=0.0007  <S**2>=0.000
     244 -> 247        0.68816

 Excited State   4:      Singlet-A      3.0657 eV  404.42 nm  f=0.0015  <S**2>=0.000
     240 -> 247       -0.24182
     241 -> 247        0.62705
     241 -> 249       -0.17044

 Excited State   5:      Singlet-A      3.1678 eV  391.39 nm  f=0.0090  <S**2>=0.000
     242 -> 247        0.67247

 The electronic state is 1-A.
 Alpha  occ. eigenvalues --  -46.92218 -19.25425 -19.24943 -19.20711 -19.20480
 Alpha  occ. eigenvalues --  -19.19097 -19.18242 -14.42152 -14.41732 -14.39393
 Alpha  occ. eigenvalues --  -14.38991 -10.36511 -10.36267 -10.31593 -10.30980
 Alpha  occ. eigenvalues --  -10.29823 -10.29178 -10.29048 -10.29045 -10.28848
 Alpha  occ. eigenvalues --  -10.28706 -10.28566 -10.27615 -10.26869 -10.26607
 Alpha  occ. eigenvalues --  -10.26457 -10.25951 -10.25850 -10.25636 -10.25608
 Alpha  occ. eigenvalues --  -10.25487 -10.25355 -10.25329 -10.25253 -10.24957
 Alpha  occ. eigenvalues --  -10.24910 -10.24725 -10.24639 -10.24506 -10.24119
 Alpha  occ. eigenvalues --  -10.24063 -10.23964 -10.23826 -10.23785 -10.23768
 Alpha  occ. eigenvalues --  -10.23452 -10.23422 -10.23340 -10.23108 -10.23033
 Alpha  occ. eigenvalues --  -10.22942 -10.22884 -10.22867 -10.22762 -10.22536
 Alpha  occ. eigenvalues --  -10.22517 -10.22430 -10.22402 -10.22341 -10.22339
 Alpha  occ. eigenvalues --  -10.22308 -10.22165 -10.22105 -10.21771 -10.21754
 Alpha  occ. eigenvalues --  -10.21322  -3.14345  -1.87195  -1.86718  -1.86564
 Alpha  occ. eigenvalues --   -1.10930  -1.10910  -1.05680  -1.05210  -1.03225
 Alpha  occ. eigenvalues --   -1.02755  -1.00112  -0.99205  -0.98017  -0.96147
 Alpha  occ. eigenvalues --   -0.87642  -0.84518  -0.83363  -0.83248  -0.82993
 Alpha  occ. eigenvalues --   -0.82877  -0.82707  -0.82465  -0.81393  -0.80999
 Alpha  occ. eigenvalues --   -0.80214  -0.79586  -0.78809  -0.78140  -0.78033
 Alpha  occ. eigenvalues --   -0.77284  -0.76068  -0.75808  -0.75226  -0.74632
 Alpha  occ. eigenvalues --   -0.73975  -0.72594  -0.71971  -0.71350  -0.70369
 Alpha  occ. eigenvalues --   -0.69755  -0.69634  -0.69418  -0.68091  -0.67809
 Alpha  occ. eigenvalues --   -0.67760  -0.66956  -0.66780  -0.65032  -0.63808
 Alpha  occ. eigenvalues --   -0.63602  -0.62509  -0.61623  -0.61011  -0.60635
 Alpha  occ. eigenvalues --   -0.60340  -0.59716  -0.59645  -0.58908  -0.57717
 Alpha  occ. eigenvalues --   -0.57584  -0.57097  -0.56699  -0.56537  -0.54849
 Alpha  occ. eigenvalues --   -0.54184  -0.53772  -0.53222  -0.52774  -0.52387
 Alpha  occ. eigenvalues --   -0.52241  -0.51907  -0.51262  -0.50678  -0.50304
 Alpha  occ. eigenvalues --   -0.49948  -0.49229  -0.49145  -0.48688  -0.48421
 Alpha  occ. eigenvalues --   -0.48249  -0.48228  -0.47899  -0.47859  -0.47628
 Alpha  occ. eigenvalues --   -0.47509  -0.47138  -0.46708  -0.46597  -0.46347
 Alpha  occ. eigenvalues --   -0.46090  -0.45780  -0.45734  -0.45633  -0.45085
 Alpha  occ. eigenvalues --   -0.44953  -0.44652  -0.44568  -0.44344  -0.44227
 Alpha  occ. eigenvalues --   -0.44061  -0.43722  -0.43639  -0.43468  -0.43339
 Alpha  occ. eigenvalues --   -0.43129  -0.42825  -0.42660  -0.42317  -0.42215
 Alpha  occ. eigenvalues --   -0.42060  -0.41903  -0.41560  -0.41412  -0.41279
 Alpha  occ. eigenvalues --   -0.41141  -0.40870  -0.40661  -0.40403  -0.40292
 Alpha  occ. eigenvalues --   -0.40006  -0.39948  -0.39858  -0.39697  -0.39619
 Alpha  occ. eigenvalues --   -0.39310  -0.39216  -0.39131  -0.38916  -0.38724
 Alpha  occ. eigenvalues --   -0.38571  -0.38550  -0.38435  -0.38064  -0.37751
 Alpha  occ. eigenvalues --   -0.37643  -0.37249  -0.37162  -0.37054  -0.36862
 Alpha  occ. eigenvalues --   -0.36741  -0.36710  -0.36288  -0.36203  -0.36199
 Alpha  occ. eigenvalues --   -0.35810  -0.35578  -0.35521  -0.35223  -0.35184
 Alpha  occ. eigenvalues --   -0.34516  -0.34439  -0.34385  -0.33908  -0.33825
 Alpha  occ. eigenvalues --   -0.33497  -0.32756  -0.32730  -0.32718  -0.32402
 Alpha  occ. eigenvalues --   -0.32296  -0.31894  -0.31597  -0.31473  -0.31292
 Alpha  occ. eigenvalues --   -0.30870  -0.30863  -0.29886  -0.29839  -0.29757
 Alpha  occ. eigenvalues --   -0.29592  -0.29478  -0.29071  -0.27265  -0.26088
 Alpha  occ. eigenvalues --   -0.25990  -0.25682  -0.25083  -0.25050  -0.21308
 Alpha  occ. eigenvalues --   -0.19032
 Alpha virt. eigenvalues --   -0.11096  -0.06135  -0.03799  -0.01658  -0.00200
 Alpha virt. eigenvalues --    0.00261   0.00884   0.00984   0.01406   0.03272
 Alpha virt. eigenvalues --    0.03734   0.04711   0.05271   0.05717   0.05858

 Mulliken charges:
               1
     1  Mg   0.976044
     2  C   -0.016225
     3  C   -0.049403
     4  C   -0.057652
     5  C   -0.090336
     6  N   -0.310545
     7  C   -0.015947
     8  C   -0.096191
     9  C   -0.106219
    10  C    0.021297
    11  C    0.024805
    12  C   -0.021432
    13  C   -0.039239
    14  C    0.228309
    15  O   -0.234802
    16  O   -0.384260
    17  N   -0.517016
    18  C    0.179411
    19  C   -0.193146
    20  C   -0.076859
    21  C    0.197490
    22  C    0.092882
    23  C    0.007868
    24  O   -0.241206
    25  C    0.010906
    26  N   -0.397694
    27  C    0.034163
    28  C   -0.089946
    29  C   -0.162681
    30  C    0.147934
    31  C    0.014032
    32  C   -0.022760
    33  C   -0.075437
    34  N   -0.499555
    35  C    0.151920
    36  C   -0.159891
    37  C    0.003075
    38  C    0.131921
    39  C    0.034489
    40  C    0.115838
    41  O   -0.202202
    42  C   -0.120815
    43  C    0.287790
    44  O   -0.215238
    45  O   -0.395466
    46  C    0.123836
    47  C    0.227305
    48  C   -0.156522
    49  C   -0.209380
    50  C    0.032240
    51  C   -0.002790
    52  C   -0.032965
    53  C    0.025920
    54  C   -0.189397
    55  C   -0.035246
    56  C   -0.035390
    57  C   -0.057261
    58  C    0.009843
    59  C   -0.199974
    60  C   -0.021095
    61  C   -0.031236
    62  C   -0.095076
    63  C   -0.011920
    64  C   -0.245301
    65  C   -0.001938
    66  C   -0.019923
    67  H    0.004463
    68  H   -0.006817
    69  H    0.002270
    70  H    0.039421
    71  H    0.062663
    72  H    0.045371
    73  H    0.053238
    74  H    0.035670
    75  H    0.047898
    76  H    0.052192
    77  H    0.105207
    78  H    0.063518
    79  H    0.071641
    80  H    0.033448
    81  H    0.052819
    82  H    0.058444
    83  H    0.074258
    84  H    0.062576
    85  H    0.043606
    86  H    0.044148
    87  H    0.048940
    88  H    0.049358
    89  H    0.037538
    90  H    0.042507
    91  H    0.041245
    92  H    0.044934
    93  H    0.040813
    94  H    0.040990
    95  H    0.059415
    96  H    0.051184
    97  H    0.057094
    98  H    0.071985
    99  H    0.064111
   100  H    0.059134
   101  H    0.058670
   102  H    0.067236
   103  H    0.075158
   104  H    0.014091
   105  H    0.046645
   106  H    0.054154
   107  H    0.032452
   108  H    0.038673
   109  H    0.026408
   110  H    0.028756
   111  H    0.042847
   112  H    0.025753
   113  H    0.025721
   114  H    0.030652
   115  H    0.033996
   116  H    0.037159
   117  H    0.024616
   118  H    0.014698
   119  H    0.024753
   120  H    0.032786
   121  H    0.029991
   122  H    0.026456
   123  H    0.028807
   124  H    0.037174
   125  H    0.027454
   126  H    0.034910
   127  H    0.027260
   128  H    0.033063
   129  H    0.038291
   130  H    0.031033
   131  H    0.034449
   132  H    0.025308
   133  H    0.027169
   134  H    0.042440
   135  H    0.042146
   136  H    0.033949
   137  H    0.035089
   138  H    0.038102
   139  H    0.036114
   140  H    0.038547
 Sum of Mulliken charges =  -0.00000

 Dipole moment (field-independent basis, Debye):
    X=              1.3523    Y=              2.6325    Z=             -1.6597  Tot=              3.3932
 Quadrupole moment (field-independent basis, Debye-Ang):
   XX=           -414.9459   YY=           -383.7166   ZZ=           -405.1181
   XY=            -24.3095   XZ=            -18.7149   YZ=            -35.6344

 Normal termination of Gaussian 16 at Thu May  5 02:44:14 2022.
