 Gaussian 16, Revision A.03,
 Gaussian 16:  ES64L-G16RevA.03 25-Dec-2016

 --------------------------------
 #p wB97XD/Def2SVP td=(nstates=5)
 --------------------------------

 ---------------------------------------------------
 step_51_chromophore_26 TDDFT with wB97XD functional
 ---------------------------------------------------
 Symbolic Z-matrix:
 Charge =  0 Multiplicity = 1

                         Standard orientation:
 ---------------------------------------------------------------------
 Center     Atomic      Atomic             Coordinates (Angstroms)
 Number     Number       Type             X           Y           Z
 ---------------------------------------------------------------------
      1         12           0       -4.120596    1.296138    0.389642
      2          6           0       -4.915328   -2.047669   -0.145736
      3          6           0       -2.594650    0.326341    3.317210
      4          6           0       -2.950340    4.465526    0.726403
      5          6           0       -4.915453    1.889065   -2.967866
      6          7           0       -3.874523   -0.667973    1.534131
      7          6           0       -4.283847   -1.858531    1.092598
      8          6           0       -3.903566   -2.974746    2.032380
      9          6           0       -3.374808   -2.146887    3.344429
     10          6           0       -3.311143   -0.722975    2.723390
     11          6           0       -4.378734   -2.290779    4.513070
     12          6           0       -2.823515   -3.997694    1.513567
     13          6           0       -1.683330   -3.438469    0.601067
     14          6           0       -0.275629   -3.731352    1.097909
     15          8           0        0.095997   -3.745307    2.234426
     16          8           0        0.581278   -3.857438    0.006020
     17          7           0       -3.008776    2.281500    1.895737
     18          6           0       -2.373253    1.700711    2.962538
     19          6           0       -1.784154    2.720998    3.763264
     20          6           0       -1.984046    3.939322    3.147410
     21          6           0       -2.696893    3.676608    1.826911
     22          6           0       -0.980577    2.495042    5.064811
     23          6           0       -1.560458    5.285075    3.715576
     24          8           0       -0.821239    5.325910    4.668742
     25          6           0       -1.934739    6.506059    3.122722
     26          7           0       -4.014132    2.944944   -0.886168
     27          6           0       -3.538289    4.171877   -0.501178
     28          6           0       -3.962858    5.267513   -1.528373
     29          6           0       -4.324793    4.359383   -2.794952
     30          6           0       -4.363613    2.937967   -2.168865
     31          6           0       -5.175112    6.119884   -1.050306
     32          6           0       -3.266247    4.620803   -3.898096
     33          6           0       -3.755906    4.897890   -5.347011
     34          7           0       -4.868564    0.248188   -1.205549
     35          6           0       -5.175161    0.610937   -2.506893
     36          6           0       -5.663362   -0.476606   -3.248388
     37          6           0       -5.611093   -1.584448   -2.410095
     38          6           0       -5.071118   -1.102717   -1.161406
     39          6           0       -5.972420   -0.452359   -4.646809
     40          6           0       -5.900658   -2.957434   -2.252869
     41          8           0       -6.446482   -3.744580   -2.992786
     42          6           0       -5.442213   -3.309404   -0.810218
     43          6           0       -6.654442   -3.831534   -0.082251
     44          8           0       -7.660971   -3.231551    0.150510
     45          8           0       -6.365318   -5.106173    0.407136
     46          6           0       -7.204955   -5.646531    1.475473
     47          6           0        2.028288   -4.119407    0.381083
     48          6           0        2.964474   -3.180952   -0.443076
     49          6           0        2.875083   -2.897843   -1.739621
     50          6           0        2.158231   -3.858572   -2.650397
     51          6           0        3.505304   -1.680090   -2.388136
     52          6           0        5.070242   -1.711156   -2.478993
     53          6           0        5.629020   -0.368241   -2.855419
     54          6           0        5.986250    0.583769   -1.625410
     55          6           0        5.396743    1.940551   -1.938292
     56          6           0        7.505197    0.837874   -1.383100
     57          6           0        7.974977    1.069961    0.100910
     58          6           0        8.232600   -0.271726    0.863447
     59          6           0        9.583781   -0.227837    1.731051
     60          6           0        9.336932   -0.982477    3.064779
     61          6           0       10.825327   -0.879041    1.028004
     62          6           0       11.510231    0.006208   -0.105769
     63          6           0       12.896179   -0.627998   -0.517659
     64          6           0       14.043859    0.397700   -0.456873
     65          6           0       13.846942    1.410771   -1.600939
     66          6           0       15.453375   -0.359239   -0.519800
     67          1           0       -2.192462    0.053712    4.295112
     68          1           0       -2.740273    5.531681    0.826659
     69          1           0       -5.137214    2.008808   -4.031183
     70          1           0       -4.826584   -3.514143    2.245652
     71          1           0       -2.368696   -2.545607    3.474960
     72          1           0       -4.071945   -1.645799    5.337106
     73          1           0       -4.617980   -3.302166    4.839137
     74          1           0       -5.324506   -1.871037    4.172846
     75          1           0       -3.401019   -4.808485    1.069208
     76          1           0       -2.361720   -4.518217    2.351567
     77          1           0       -1.844299   -2.386466    0.364148
     78          1           0       -1.784199   -4.007807   -0.323175
     79          1           0       -0.044953    3.015647    4.860593
     80          1           0       -0.881390    1.451403    5.363357
     81          1           0       -1.461412    2.993235    5.906084
     82          1           0       -2.914809    6.398301    2.658224
     83          1           0       -1.147258    6.703503    2.396391
     84          1           0       -1.842098    7.252944    3.911350
     85          1           0       -3.100206    5.877549   -1.797601
     86          1           0       -5.275974    4.517564   -3.302720
     87          1           0       -5.657457    5.556083   -0.251060
     88          1           0       -5.884664    6.399472   -1.828716
     89          1           0       -4.909720    7.072213   -0.592024
     90          1           0       -2.687138    3.702997   -3.791846
     91          1           0       -2.609478    5.446559   -3.624813
     92          1           0       -3.101902    5.602595   -5.861531
     93          1           0       -4.780708    5.245343   -5.479066
     94          1           0       -3.736443    3.970637   -5.920545
     95          1           0       -5.857724   -1.507408   -4.897505
     96          1           0       -5.425562    0.086431   -5.420789
     97          1           0       -7.017748   -0.193308   -4.811830
     98          1           0       -4.624818   -4.031513   -0.827696
     99          1           0       -8.120864   -6.040730    1.035882
    100          1           0       -7.423494   -4.880943    2.220258
    101          1           0       -6.608684   -6.475709    1.855755
    102          1           0        2.253317   -5.170474    0.197101
    103          1           0        2.327987   -3.786745    1.374593
    104          1           0        3.554714   -2.419025    0.066361
    105          1           0        2.726686   -4.095075   -3.549316
    106          1           0        1.204225   -3.379815   -2.870924
    107          1           0        1.936288   -4.784187   -2.118715
    108          1           0        3.260688   -0.786917   -1.812419
    109          1           0        3.009117   -1.510172   -3.343310
    110          1           0        5.260531   -2.428527   -3.277548
    111          1           0        5.521424   -2.050139   -1.546981
    112          1           0        4.860493    0.182277   -3.397294
    113          1           0        6.541146   -0.443929   -3.447094
    114          1           0        5.614220    0.140450   -0.701858
    115          1           0        4.309020    2.008242   -1.954381
    116          1           0        5.843130    2.285600   -2.870786
    117          1           0        5.612328    2.767384   -1.261594
    118          1           0        7.661572    1.800650   -1.869960
    119          1           0        8.208668    0.143088   -1.842638
    120          1           0        7.459665    1.873048    0.627967
    121          1           0        8.982338    1.448929   -0.075352
    122          1           0        8.243055   -1.109277    0.164908
    123          1           0        7.407812   -0.417878    1.560636
    124          1           0        9.700007    0.819819    2.008712
    125          1           0        9.825020   -1.952870    3.148187
    126          1           0        8.295225   -1.108987    3.358558
    127          1           0        9.883093   -0.432263    3.830036
    128          1           0       10.498095   -1.791342    0.528825
    129          1           0       11.657607   -1.144128    1.679559
    130          1           0       11.575674    1.033786    0.252284
    131          1           0       10.829043    0.061648   -0.954161
    132          1           0       12.654869   -0.944922   -1.530970
    133          1           0       13.012581   -1.538140    0.071097
    134          1           0       13.906480    0.851448    0.524376
    135          1           0       12.971406    1.278663   -2.235669
    136          1           0       14.765891    1.392532   -2.185264
    137          1           0       13.714025    2.387082   -1.134093
    138          1           0       15.814124   -0.585029    0.483787
    139          1           0       16.220214    0.215064   -1.039269
    140          1           0       15.308627   -1.313088   -1.025944
 ---------------------------------------------------------------------

 SCF Done:  E(RwB97XD) =  -3007.89692867     A.U. after   20 cycles

 Excitation energies and oscillator strengths:

 Excited State   1:      Singlet-A      1.7037 eV  727.73 nm  f=0.3443  <S**2>=0.000
     245 -> 248        0.20631
     246 -> 247        0.67726
     245 <- 248        0.11939
 This state for optimization and/or second-order correction.
 Total Energy, E(TD-HF/TD-DFT) =  -3007.83431850
 Copying the excited state density for this state as the 1-particle RhoCI density.

 Excited State   2:      Singlet-A      2.1936 eV  565.21 nm  f=0.0539  <S**2>=0.000
     245 -> 247        0.60878
     246 -> 248       -0.34895

 Excited State   3:      Singlet-A      3.3956 eV  365.13 nm  f=0.4581  <S**2>=0.000
     242 -> 247        0.15303
     244 -> 247        0.29923
     245 -> 247        0.27437
     246 -> 248        0.53758
     245 <- 247       -0.10255

 Excited State   4:      Singlet-A      3.4444 eV  359.95 nm  f=0.0911  <S**2>=0.000
     242 -> 247       -0.25460
     244 -> 247        0.58348
     245 -> 247       -0.12821
     246 -> 248       -0.20511

 Excited State   5:      Singlet-A      3.5781 eV  346.50 nm  f=0.0078  <S**2>=0.000
     240 -> 247        0.57136
     240 -> 249       -0.34281
     240 -> 250        0.15766

 The electronic state is 1-A.
 Alpha  occ. eigenvalues --  -46.95185 -19.29971 -19.29536 -19.25383 -19.25246
 Alpha  occ. eigenvalues --  -19.23972 -19.23015 -14.47265 -14.46827 -14.44362
 Alpha  occ. eigenvalues --  -14.43947 -10.43291 -10.43126 -10.38529 -10.37776
 Alpha  occ. eigenvalues --  -10.36319 -10.35587 -10.35467 -10.35297 -10.35167
 Alpha  occ. eigenvalues --  -10.35064 -10.34902 -10.33986 -10.33223 -10.32930
 Alpha  occ. eigenvalues --  -10.32671 -10.32205 -10.32094 -10.32074 -10.31952
 Alpha  occ. eigenvalues --  -10.31793 -10.31779 -10.31768 -10.31679 -10.31396
 Alpha  occ. eigenvalues --  -10.31261 -10.31118 -10.31083 -10.30861 -10.30408
 Alpha  occ. eigenvalues --  -10.30390 -10.30346 -10.30235 -10.30052 -10.30037
 Alpha  occ. eigenvalues --  -10.29807 -10.29733 -10.29718 -10.29593 -10.29491
 Alpha  occ. eigenvalues --  -10.29402 -10.29242 -10.29230 -10.29229 -10.28889
 Alpha  occ. eigenvalues --  -10.28880 -10.28786 -10.28752 -10.28743 -10.28702
 Alpha  occ. eigenvalues --  -10.28676 -10.28520 -10.28515 -10.28191 -10.28185
 Alpha  occ. eigenvalues --  -10.27733  -3.21169  -1.94768  -1.94292  -1.94136
 Alpha  occ. eigenvalues --   -1.18364  -1.18279  -1.13121  -1.12743  -1.10617
 Alpha  occ. eigenvalues --   -1.10093  -1.07498  -1.06597  -1.05409  -1.03557
 Alpha  occ. eigenvalues --   -0.95298  -0.92180  -0.90980  -0.90909  -0.90650
 Alpha  occ. eigenvalues --   -0.90473  -0.90331  -0.90129  -0.89002  -0.88667
 Alpha  occ. eigenvalues --   -0.87873  -0.87250  -0.86488  -0.85810  -0.85678
 Alpha  occ. eigenvalues --   -0.84930  -0.83729  -0.83457  -0.82849  -0.82299
 Alpha  occ. eigenvalues --   -0.81644  -0.80231  -0.79582  -0.78989  -0.78011
 Alpha  occ. eigenvalues --   -0.77416  -0.77264  -0.77120  -0.75761  -0.75447
 Alpha  occ. eigenvalues --   -0.75360  -0.74554  -0.74315  -0.72647  -0.71354
 Alpha  occ. eigenvalues --   -0.71159  -0.70148  -0.69148  -0.68654  -0.68121
 Alpha  occ. eigenvalues --   -0.67841  -0.67319  -0.67175  -0.66359  -0.65396
 Alpha  occ. eigenvalues --   -0.65026  -0.64748  -0.64345  -0.63996  -0.62290
 Alpha  occ. eigenvalues --   -0.61588  -0.61191  -0.60800  -0.60230  -0.59876
 Alpha  occ. eigenvalues --   -0.59695  -0.59396  -0.58636  -0.58140  -0.57739
 Alpha  occ. eigenvalues --   -0.57404  -0.56709  -0.56570  -0.56145  -0.55761
 Alpha  occ. eigenvalues --   -0.55638  -0.55587  -0.55322  -0.55265  -0.55132
 Alpha  occ. eigenvalues --   -0.54905  -0.54513  -0.54035  -0.53997  -0.53741
 Alpha  occ. eigenvalues --   -0.53480  -0.53163  -0.53084  -0.52983  -0.52446
 Alpha  occ. eigenvalues --   -0.52307  -0.52037  -0.51931  -0.51621  -0.51607
 Alpha  occ. eigenvalues --   -0.51393  -0.51082  -0.50974  -0.50746  -0.50651
 Alpha  occ. eigenvalues --   -0.50424  -0.50120  -0.49880  -0.49595  -0.49466
 Alpha  occ. eigenvalues --   -0.49263  -0.49148  -0.48810  -0.48635  -0.48517
 Alpha  occ. eigenvalues --   -0.48362  -0.48141  -0.47872  -0.47592  -0.47546
 Alpha  occ. eigenvalues --   -0.47235  -0.47175  -0.47049  -0.46904  -0.46857
 Alpha  occ. eigenvalues --   -0.46502  -0.46422  -0.46255  -0.46085  -0.45886
 Alpha  occ. eigenvalues --   -0.45761  -0.45736  -0.45607  -0.45174  -0.44912
 Alpha  occ. eigenvalues --   -0.44765  -0.44286  -0.44235  -0.44134  -0.43955
 Alpha  occ. eigenvalues --   -0.43890  -0.43816  -0.43425  -0.43351  -0.43237
 Alpha  occ. eigenvalues --   -0.42838  -0.42662  -0.42533  -0.42318  -0.42182
 Alpha  occ. eigenvalues --   -0.41593  -0.41502  -0.41436  -0.40954  -0.40847
 Alpha  occ. eigenvalues --   -0.40504  -0.39784  -0.39771  -0.39693  -0.39402
 Alpha  occ. eigenvalues --   -0.39202  -0.38956  -0.38627  -0.38577  -0.38284
 Alpha  occ. eigenvalues --   -0.37808  -0.37709  -0.36930  -0.36712  -0.36656
 Alpha  occ. eigenvalues --   -0.36554  -0.36321  -0.35873  -0.33834  -0.33194
 Alpha  occ. eigenvalues --   -0.32799  -0.32561  -0.31820  -0.31785  -0.26328
 Alpha  occ. eigenvalues --   -0.23177
 Alpha virt. eigenvalues --   -0.06895  -0.00856   0.02479   0.04844   0.05783
 Alpha virt. eigenvalues --    0.06952   0.07694   0.07821   0.08005   0.09464
 Alpha virt. eigenvalues --    0.10503   0.11510   0.12047   0.12534   0.12563

 Mulliken charges:
               1
     1  Mg   0.965539
     2  C   -0.018937
     3  C   -0.061215
     4  C   -0.066466
     5  C   -0.111662
     6  N   -0.270908
     7  C   -0.049688
     8  C   -0.072593
     9  C   -0.076336
    10  C    0.001799
    11  C    0.034696
    12  C   -0.009429
    13  C   -0.022185
    14  C    0.220022
    15  O   -0.232785
    16  O   -0.384657
    17  N   -0.487719
    18  C    0.168161
    19  C   -0.184095
    20  C   -0.069088
    21  C    0.189299
    22  C    0.105501
    23  C    0.004306
    24  O   -0.236390
    25  C    0.020845
    26  N   -0.363078
    27  C    0.018929
    28  C   -0.059752
    29  C   -0.137605
    30  C    0.133254
    31  C    0.022985
    32  C   -0.011070
    33  C   -0.058784
    34  N   -0.463673
    35  C    0.145167
    36  C   -0.150355
    37  C    0.007538
    38  C    0.113703
    39  C    0.038577
    40  C    0.097229
    41  O   -0.191258
    42  C   -0.075314
    43  C    0.261666
    44  O   -0.209664
    45  O   -0.393106
    46  C    0.137467
    47  C    0.243739
    48  C   -0.168081
    49  C   -0.194997
    50  C    0.044735
    51  C    0.014578
    52  C   -0.013325
    53  C    0.040674
    54  C   -0.164460
    55  C   -0.017471
    56  C   -0.017167
    57  C   -0.035401
    58  C    0.017836
    59  C   -0.168287
    60  C   -0.009102
    61  C   -0.013487
    62  C   -0.079415
    63  C    0.004729
    64  C   -0.214762
    65  C    0.008008
    66  C   -0.006809
    67  H   -0.003909
    68  H   -0.015684
    69  H   -0.003759
    70  H    0.023549
    71  H    0.053020
    72  H    0.039718
    73  H    0.048498
    74  H    0.028425
    75  H    0.040369
    76  H    0.044510
    77  H    0.095948
    78  H    0.057797
    79  H    0.066425
    80  H    0.029157
    81  H    0.048151
    82  H    0.052178
    83  H    0.070315
    84  H    0.061588
    85  H    0.033303
    86  H    0.031586
    87  H    0.041533
    88  H    0.044348
    89  H    0.032082
    90  H    0.033462
    91  H    0.032941
    92  H    0.039924
    93  H    0.034873
    94  H    0.034199
    95  H    0.054728
    96  H    0.048156
    97  H    0.053316
    98  H    0.061800
    99  H    0.060679
   100  H    0.055416
   101  H    0.055716
   102  H    0.063339
   103  H    0.071431
   104  H    0.008649
   105  H    0.041600
   106  H    0.048699
   107  H    0.025931
   108  H    0.027604
   109  H    0.020131
   110  H    0.020730
   111  H    0.032556
   112  H    0.014384
   113  H    0.019166
   114  H    0.016558
   115  H    0.027829
   116  H    0.028476
   117  H    0.017498
   118  H    0.004110
   119  H    0.015177
   120  H    0.027265
   121  H    0.014549
   122  H    0.016648
   123  H    0.019631
   124  H    0.025665
   125  H    0.021048
   126  H    0.029510
   127  H    0.021119
   128  H    0.022884
   129  H    0.027878
   130  H    0.020422
   131  H    0.021511
   132  H    0.015740
   133  H    0.018204
   134  H    0.030903
   135  H    0.036227
   136  H    0.027780
   137  H    0.029606
   138  H    0.032617
   139  H    0.030249
   140  H    0.031906
 Sum of Mulliken charges =  -0.00000

 Dipole moment (field-independent basis, Debye):
    X=              1.2950    Y=              2.5988    Z=             -1.6286  Tot=              3.3292
 Quadrupole moment (field-independent basis, Debye-Ang):
   XX=           -414.4744   YY=           -382.8140   ZZ=           -404.8328
   XY=            -24.0692   XZ=            -18.8932   YZ=            -35.1045

 Normal termination of Gaussian 16 at Thu May  5 03:28:18 2022.
