 Gaussian 16, Revision A.03,
 Gaussian 16:  ES64L-G16RevA.03 25-Dec-2016

 --------------------
 #p ZINDO=(nstates=5)
 --------------------

 ----------------------------
 step_51_chromophore_26 ZINDO
 ----------------------------
 Symbolic Z-matrix:
 Charge =  0 Multiplicity = 1

                         Standard orientation:
 ---------------------------------------------------------------------
 Center     Atomic      Atomic             Coordinates (Angstroms)
 Number     Number       Type             X           Y           Z
 ---------------------------------------------------------------------
      1         12           0       -4.120596    1.296138    0.389642
      2          6           0       -4.915328   -2.047669   -0.145736
      3          6           0       -2.594650    0.326341    3.317210
      4          6           0       -2.950340    4.465526    0.726403
      5          6           0       -4.915453    1.889065   -2.967866
      6          7           0       -3.874523   -0.667973    1.534131
      7          6           0       -4.283847   -1.858531    1.092598
      8          6           0       -3.903566   -2.974746    2.032380
      9          6           0       -3.374808   -2.146887    3.344429
     10          6           0       -3.311143   -0.722975    2.723390
     11          6           0       -4.378734   -2.290779    4.513070
     12          6           0       -2.823515   -3.997694    1.513567
     13          6           0       -1.683330   -3.438469    0.601067
     14          6           0       -0.275629   -3.731352    1.097909
     15          8           0        0.095997   -3.745307    2.234426
     16          8           0        0.581278   -3.857438    0.006020
     17          7           0       -3.008776    2.281500    1.895737
     18          6           0       -2.373253    1.700711    2.962538
     19          6           0       -1.784154    2.720998    3.763264
     20          6           0       -1.984046    3.939322    3.147410
     21          6           0       -2.696893    3.676608    1.826911
     22          6           0       -0.980577    2.495042    5.064811
     23          6           0       -1.560458    5.285075    3.715576
     24          8           0       -0.821239    5.325910    4.668742
     25          6           0       -1.934739    6.506059    3.122722
     26          7           0       -4.014132    2.944944   -0.886168
     27          6           0       -3.538289    4.171877   -0.501178
     28          6           0       -3.962858    5.267513   -1.528373
     29          6           0       -4.324793    4.359383   -2.794952
     30          6           0       -4.363613    2.937967   -2.168865
     31          6           0       -5.175112    6.119884   -1.050306
     32          6           0       -3.266247    4.620803   -3.898096
     33          6           0       -3.755906    4.897890   -5.347011
     34          7           0       -4.868564    0.248188   -1.205549
     35          6           0       -5.175161    0.610937   -2.506893
     36          6           0       -5.663362   -0.476606   -3.248388
     37          6           0       -5.611093   -1.584448   -2.410095
     38          6           0       -5.071118   -1.102717   -1.161406
     39          6           0       -5.972420   -0.452359   -4.646809
     40          6           0       -5.900658   -2.957434   -2.252869
     41          8           0       -6.446482   -3.744580   -2.992786
     42          6           0       -5.442213   -3.309404   -0.810218
     43          6           0       -6.654442   -3.831534   -0.082251
     44          8           0       -7.660971   -3.231551    0.150510
     45          8           0       -6.365318   -5.106173    0.407136
     46          6           0       -7.204955   -5.646531    1.475473
     47          6           0        2.028288   -4.119407    0.381083
     48          6           0        2.964474   -3.180952   -0.443076
     49          6           0        2.875083   -2.897843   -1.739621
     50          6           0        2.158231   -3.858572   -2.650397
     51          6           0        3.505304   -1.680090   -2.388136
     52          6           0        5.070242   -1.711156   -2.478993
     53          6           0        5.629020   -0.368241   -2.855419
     54          6           0        5.986250    0.583769   -1.625410
     55          6           0        5.396743    1.940551   -1.938292
     56          6           0        7.505197    0.837874   -1.383100
     57          6           0        7.974977    1.069961    0.100910
     58          6           0        8.232600   -0.271726    0.863447
     59          6           0        9.583781   -0.227837    1.731051
     60          6           0        9.336932   -0.982477    3.064779
     61          6           0       10.825327   -0.879041    1.028004
     62          6           0       11.510231    0.006208   -0.105769
     63          6           0       12.896179   -0.627998   -0.517659
     64          6           0       14.043859    0.397700   -0.456873
     65          6           0       13.846942    1.410771   -1.600939
     66          6           0       15.453375   -0.359239   -0.519800
     67          1           0       -2.192462    0.053712    4.295112
     68          1           0       -2.740273    5.531681    0.826659
     69          1           0       -5.137214    2.008808   -4.031183
     70          1           0       -4.826584   -3.514143    2.245652
     71          1           0       -2.368696   -2.545607    3.474960
     72          1           0       -4.071945   -1.645799    5.337106
     73          1           0       -4.617980   -3.302166    4.839137
     74          1           0       -5.324506   -1.871037    4.172846
     75          1           0       -3.401019   -4.808485    1.069208
     76          1           0       -2.361720   -4.518217    2.351567
     77          1           0       -1.844299   -2.386466    0.364148
     78          1           0       -1.784199   -4.007807   -0.323175
     79          1           0       -0.044953    3.015647    4.860593
     80          1           0       -0.881390    1.451403    5.363357
     81          1           0       -1.461412    2.993235    5.906084
     82          1           0       -2.914809    6.398301    2.658224
     83          1           0       -1.147258    6.703503    2.396391
     84          1           0       -1.842098    7.252944    3.911350
     85          1           0       -3.100206    5.877549   -1.797601
     86          1           0       -5.275974    4.517564   -3.302720
     87          1           0       -5.657457    5.556083   -0.251060
     88          1           0       -5.884664    6.399472   -1.828716
     89          1           0       -4.909720    7.072213   -0.592024
     90          1           0       -2.687138    3.702997   -3.791846
     91          1           0       -2.609478    5.446559   -3.624813
     92          1           0       -3.101902    5.602595   -5.861531
     93          1           0       -4.780708    5.245343   -5.479066
     94          1           0       -3.736443    3.970637   -5.920545
     95          1           0       -5.857724   -1.507408   -4.897505
     96          1           0       -5.425562    0.086431   -5.420789
     97          1           0       -7.017748   -0.193308   -4.811830
     98          1           0       -4.624818   -4.031513   -0.827696
     99          1           0       -8.120864   -6.040730    1.035882
    100          1           0       -7.423494   -4.880943    2.220258
    101          1           0       -6.608684   -6.475709    1.855755
    102          1           0        2.253317   -5.170474    0.197101
    103          1           0        2.327987   -3.786745    1.374593
    104          1           0        3.554714   -2.419025    0.066361
    105          1           0        2.726686   -4.095075   -3.549316
    106          1           0        1.204225   -3.379815   -2.870924
    107          1           0        1.936288   -4.784187   -2.118715
    108          1           0        3.260688   -0.786917   -1.812419
    109          1           0        3.009117   -1.510172   -3.343310
    110          1           0        5.260531   -2.428527   -3.277548
    111          1           0        5.521424   -2.050139   -1.546981
    112          1           0        4.860493    0.182277   -3.397294
    113          1           0        6.541146   -0.443929   -3.447094
    114          1           0        5.614220    0.140450   -0.701858
    115          1           0        4.309020    2.008242   -1.954381
    116          1           0        5.843130    2.285600   -2.870786
    117          1           0        5.612328    2.767384   -1.261594
    118          1           0        7.661572    1.800650   -1.869960
    119          1           0        8.208668    0.143088   -1.842638
    120          1           0        7.459665    1.873048    0.627967
    121          1           0        8.982338    1.448929   -0.075352
    122          1           0        8.243055   -1.109277    0.164908
    123          1           0        7.407812   -0.417878    1.560636
    124          1           0        9.700007    0.819819    2.008712
    125          1           0        9.825020   -1.952870    3.148187
    126          1           0        8.295225   -1.108987    3.358558
    127          1           0        9.883093   -0.432263    3.830036
    128          1           0       10.498095   -1.791342    0.528825
    129          1           0       11.657607   -1.144128    1.679559
    130          1           0       11.575674    1.033786    0.252284
    131          1           0       10.829043    0.061648   -0.954161
    132          1           0       12.654869   -0.944922   -1.530970
    133          1           0       13.012581   -1.538140    0.071097
    134          1           0       13.906480    0.851448    0.524376
    135          1           0       12.971406    1.278663   -2.235669
    136          1           0       14.765891    1.392532   -2.185264
    137          1           0       13.714025    2.387082   -1.134093
    138          1           0       15.814124   -0.585029    0.483787
    139          1           0       16.220214    0.215064   -1.039269
    140          1           0       15.308627   -1.313088   -1.025944
 ---------------------------------------------------------------------

 SCF Done:  E(RZINDO/S) =  -474.361808775     A.U. after   19 cycles

 Excitation energies and oscillator strengths:

 Excited State   1:      Singlet-A      1.3035 eV  951.15 nm  f=0.5555  <S**2>=0.000
     175 ->178         0.21148
     176 ->177         0.65703
 This state for optimization and/or second-order correction.
 Total Energy, E(CIS/TDA) =  -474.313905584
 Copying the excited state density for this state as the 1-particle RhoCI density.

 Excited State   2:      Singlet-A      1.9083 eV  649.72 nm  f=0.0013  <S**2>=0.000
     175 ->177        -0.48281
     176 ->178         0.49798

 Excited State   3:      Singlet-A      2.9434 eV  421.22 nm  f=0.0612  <S**2>=0.000
     170 ->177         0.23627
     170 ->178         0.16262
     170 ->179         0.27209
     170 ->180         0.28890
     170 ->182         0.15585
     170 ->183         0.17138
     170 ->186         0.23809
     170 ->187         0.10221
     175 ->177         0.10393
     176 ->178         0.10792

 Excited State   4:      Singlet-A      2.9986 eV  413.48 nm  f=0.1051  <S**2>=0.000
     169 ->177         0.35339
     169 ->179        -0.37534
     169 ->180         0.21156
     169 ->182         0.11329
     169 ->183         0.10858
     169 ->186        -0.17664
     169 ->187         0.12997
     169 ->201         0.11974
     175 ->177        -0.12591
     176 ->178        -0.12945
     176 ->179        -0.12775

 Excited State   5:      Singlet-A      3.0134 eV  411.45 nm  f=1.0874  <S**2>=0.000
     171 ->177        -0.10013
     175 ->177         0.43530
     176 ->178         0.43085
     176 ->179        -0.18935

 The electronic state is 1-A.
 Alpha  occ. eigenvalues --   -1.85670  -1.81401  -1.79618  -1.72523  -1.71770
 Alpha  occ. eigenvalues --   -1.70615  -1.63811  -1.63391  -1.59976  -1.59936
 Alpha  occ. eigenvalues --   -1.54779  -1.51513  -1.49261  -1.47511  -1.46507
 Alpha  occ. eigenvalues --   -1.45467  -1.42899  -1.40456  -1.37890  -1.37295
 Alpha  occ. eigenvalues --   -1.36132  -1.34967  -1.32623  -1.31408  -1.28534
 Alpha  occ. eigenvalues --   -1.28219  -1.27060  -1.24107  -1.21199  -1.18953
 Alpha  occ. eigenvalues --   -1.16845  -1.15678  -1.14931  -1.14249  -1.13772
 Alpha  occ. eigenvalues --   -1.10316  -1.09287  -1.09148  -1.05657  -1.03597
 Alpha  occ. eigenvalues --   -1.02656  -1.01595  -0.99972  -0.98381  -0.96927
 Alpha  occ. eigenvalues --   -0.95670  -0.94393  -0.93766  -0.92653  -0.92129
 Alpha  occ. eigenvalues --   -0.90715  -0.90124  -0.89463  -0.89045  -0.87148
 Alpha  occ. eigenvalues --   -0.86678  -0.85054  -0.83234  -0.81444  -0.79626
 Alpha  occ. eigenvalues --   -0.79345  -0.78939  -0.78362  -0.77011  -0.76871
 Alpha  occ. eigenvalues --   -0.76224  -0.75177  -0.74832  -0.73972  -0.73133
 Alpha  occ. eigenvalues --   -0.72950  -0.72034  -0.71759  -0.71481  -0.70887
 Alpha  occ. eigenvalues --   -0.70234  -0.69722  -0.69562  -0.68311  -0.67895
 Alpha  occ. eigenvalues --   -0.67343  -0.66510  -0.66258  -0.66227  -0.65898
 Alpha  occ. eigenvalues --   -0.65457  -0.65193  -0.64682  -0.63910  -0.63557
 Alpha  occ. eigenvalues --   -0.63316  -0.62941  -0.62423  -0.62179  -0.62076
 Alpha  occ. eigenvalues --   -0.61630  -0.61496  -0.60718  -0.60477  -0.60388
 Alpha  occ. eigenvalues --   -0.59398  -0.58502  -0.58334  -0.58100  -0.57795
 Alpha  occ. eigenvalues --   -0.57620  -0.57121  -0.56821  -0.56640  -0.56445
 Alpha  occ. eigenvalues --   -0.56062  -0.55918  -0.55648  -0.55255  -0.54797
 Alpha  occ. eigenvalues --   -0.54671  -0.54188  -0.53443  -0.53013  -0.52474
 Alpha  occ. eigenvalues --   -0.51948  -0.51923  -0.51783  -0.51616  -0.51576
 Alpha  occ. eigenvalues --   -0.51264  -0.51158  -0.50812  -0.50519  -0.50362
 Alpha  occ. eigenvalues --   -0.50136  -0.49801  -0.49393  -0.49251  -0.49222
 Alpha  occ. eigenvalues --   -0.48914  -0.48715  -0.48483  -0.48227  -0.48013
 Alpha  occ. eigenvalues --   -0.47617  -0.47532  -0.47221  -0.46832  -0.46459
 Alpha  occ. eigenvalues --   -0.46367  -0.46108  -0.45949  -0.45815  -0.45194
 Alpha  occ. eigenvalues --   -0.45159  -0.44995  -0.44565  -0.44365  -0.44278
 Alpha  occ. eigenvalues --   -0.43964  -0.43760  -0.43143  -0.42660  -0.42569
 Alpha  occ. eigenvalues --   -0.42444  -0.42107  -0.41558  -0.39552  -0.39309
 Alpha  occ. eigenvalues --   -0.38560  -0.37236  -0.35355  -0.34893  -0.34655
 Alpha  occ. eigenvalues --   -0.33348  -0.32886  -0.32844  -0.32426  -0.26916
 Alpha  occ. eigenvalues --   -0.21833
 Alpha virt. eigenvalues --   -0.08111  -0.03051  -0.00448   0.01749   0.01900
 Alpha virt. eigenvalues --    0.01991   0.02905   0.03152   0.04735   0.04971
 Alpha virt. eigenvalues --    0.06392   0.07007   0.07541   0.08003   0.08101

 Mulliken charges:
               1
     1  Mg   0.425343
     2  C   -0.054556
     3  C   -0.079924
     4  C   -0.057671
     5  C   -0.067352
     6  N   -0.266722
     7  C    0.136821
     8  C   -0.012396
     9  C   -0.004476
    10  C    0.143618
    11  C   -0.043587
    12  C   -0.027427
    13  C    0.006209
    14  C    0.471760
    15  O   -0.501569
    16  O   -0.279590
    17  N   -0.338276
    18  C    0.122440
    19  C    0.045533
    20  C   -0.047592
    21  C    0.097318
    22  C   -0.042494
    23  C    0.338641
    24  O   -0.533505
    25  C   -0.025371
    26  N   -0.243798
    27  C    0.116444
    28  C    0.001607
    29  C   -0.012759
    30  C    0.116059
    31  C   -0.049592
    32  C   -0.034608
    33  C   -0.057370
    34  N   -0.337142
    35  C    0.090109
    36  C    0.058959
    37  C   -0.058857
    38  C    0.109186
    39  C   -0.041477
    40  C    0.341018
    41  O   -0.521872
    42  C    0.056527
    43  C    0.493125
    44  O   -0.502485
    45  O   -0.294243
    46  C    0.077032
    47  C    0.102711
    48  C   -0.117303
    49  C    0.014435
    50  C   -0.043746
    51  C   -0.019608
    52  C   -0.022426
    53  C   -0.034859
    54  C   -0.009384
    55  C   -0.049959
    56  C   -0.040640
    57  C   -0.045914
    58  C   -0.036850
    59  C   -0.012911
    60  C   -0.065146
    61  C   -0.035736
    62  C   -0.053393
    63  C   -0.037812
    64  C   -0.008544
    65  C   -0.054414
    66  C   -0.062031
    67  H    0.020446
    68  H    0.021151
    69  H    0.033431
    70  H    0.032135
    71  H    0.045649
    72  H    0.020952
    73  H    0.028419
    74  H    0.019494
    75  H    0.020751
    76  H    0.028974
    77  H    0.059556
    78  H    0.031590
    79  H    0.045472
    80  H    0.023662
    81  H    0.035979
    82  H    0.031768
    83  H    0.050638
    84  H    0.044798
    85  H    0.032469
    86  H    0.033226
    87  H    0.024548
    88  H    0.024946
    89  H    0.014920
    90  H    0.022415
    91  H    0.020506
    92  H    0.019255
    93  H    0.023351
    94  H    0.014493
    95  H    0.023216
    96  H    0.031567
    97  H    0.034380
    98  H    0.047083
    99  H    0.046413
   100  H    0.047057
   101  H    0.031062
   102  H    0.050543
   103  H    0.057303
   104  H    0.019943
   105  H    0.026932
   106  H    0.030240
   107  H    0.021490
   108  H    0.019196
   109  H    0.021000
   110  H    0.014453
   111  H    0.029287
   112  H    0.020332
   113  H    0.020119
   114  H    0.023926
   115  H    0.010135
   116  H    0.017655
   117  H    0.006704
   118  H    0.008943
   119  H    0.022408
   120  H    0.034435
   121  H    0.007036
   122  H    0.024987
   123  H    0.017522
   124  H    0.027123
   125  H    0.015422
   126  H    0.023092
   127  H    0.008605
   128  H    0.018781
   129  H    0.023411
   130  H    0.018736
   131  H    0.015477
   132  H    0.015098
   133  H    0.020456
   134  H    0.025849
   135  H    0.026254
   136  H    0.021339
   137  H    0.013963
   138  H    0.017087
   139  H    0.021354
   140  H    0.020086
 Sum of Mulliken charges =  -0.00000

 Dipole moment (field-independent basis, Debye):
    X=              1.7199    Y=              3.3189    Z=             -2.6983  Tot=              4.6102
 N-N= 4.454064952189D+03 E-N= 0.000000000000D+00  KE=-9.582316319100D+03
 Leave Link  601 at Thu May  5 03:53:07 2022, MaxMem=  6710886400 cpu:               0.8 elap:               0.0
 (Enter /sw/apps/gaussian-16.0/g16/l9999.exe)
 1\1\GINC-BP1-COMPUTE211\SP\RZINDO CIS\STO-3G\C55H74Mg1N4O6\OF15641\05-
 May-2022\0\\#p ZINDO=(nstates=5)\\step_51_chromophore_26 ZINDO\\0,1\Mg
 ,0,-9.191,18.801,43.308\C,0,-5.724,18.52,43.293\C,0,-8.788,22.16,42.68
 \C,0,-12.551,19.034,42.879\C,0,-9.346,15.313,43.051\N,0,-7.415,20.228,
 43.114\C,0,-6.135,19.853,43.144\C,0,-5.198,21.01,42.905\C,0,-6.216,22.
 292,42.986\C,0,-7.57,21.528,42.97\C,0,-5.956,23.106,44.276\C,0,-4.386,
 20.994,41.555\C,0,-5.099,20.405,40.294\C,0,-5.145,21.344,39.098\O,0,-5

 Normal termination of Gaussian 16 at Thu May  5 03:53:07 2022.
