 Gaussian 16, Revision A.03,
 Gaussian 16:  ES64L-G16RevA.03 25-Dec-2016

 ------------------------------
 #p blyp/Def2SVP td=(nstates=5)
 ------------------------------

 --------------------------------------------------
 step_651_chromophore_24 TDDFT with blyp functional
 --------------------------------------------------
 Symbolic Z-matrix:
 Charge =  0 Multiplicity = 1

                         Standard orientation:
 ---------------------------------------------------------------------
 Center     Atomic      Atomic             Coordinates (Angstroms)
 Number     Number       Type             X           Y           Z
 ---------------------------------------------------------------------
      1         12           0        5.080459    1.046103    0.085899
      2          6           0        4.267232   -2.272081   -0.042106
      3          6           0        1.641841    1.770487    0.001848
      4          6           0        5.995495    4.310209   -0.145750
      5          6           0        8.566827    0.153699   -0.271244
      6          7           0        3.129731   -0.134207   -0.148059
      7          6           0        3.080163   -1.532327   -0.064646
      8          6           0        1.655509   -1.953631    0.155185
      9          6           0        0.771682   -0.735688   -0.206599
     10          6           0        1.850675    0.375915   -0.111163
     11          6           0       -0.145928   -0.647370   -1.482399
     12          6           0        1.422622   -2.689024    1.490298
     13          6           0        0.407715   -3.828515    1.490178
     14          6           0       -0.422543   -4.037533    0.191590
     15          8           0       -0.149289   -4.877266   -0.599799
     16          8           0       -1.458722   -3.233814    0.071487
     17          7           0        3.977351    2.832107    0.011347
     18          6           0        2.563763    2.908693   -0.007745
     19          6           0        2.155493    4.284224   -0.018195
     20          6           0        3.416378    5.073546    0.048720
     21          6           0        4.553537    4.094092   -0.034294
     22          6           0        0.705616    4.639530    0.054371
     23          6           0        3.607516    6.507034    0.199524
     24          8           0        4.739847    6.933928    0.410386
     25          6           0        2.394224    7.391243    0.177057
     26          7           0        7.066145    2.103049   -0.259707
     27          6           0        7.113998    3.445791   -0.226396
     28          6           0        8.567112    3.908448   -0.424759
     29          6           0        9.461981    2.650932   -0.249421
     30          6           0        8.341953    1.568525   -0.244873
     31          6           0        8.799918    4.521505   -1.813236
     32          6           0       10.368660    2.457681    1.033201
     33          6           0        9.772778    2.432312    2.454952
     34          7           0        6.223291   -0.649841   -0.030895
     35          6           0        7.576473   -0.860749   -0.154157
     36          6           0        7.881159   -2.293675   -0.117922
     37          6           0        6.619499   -2.899305   -0.072407
     38          6           0        5.638242   -1.861251   -0.055458
     39          6           0        9.241941   -2.812910   -0.406913
     40          6           0        5.933734   -4.179304   -0.002749
     41          8           0        6.404006   -5.316805   -0.029978
     42          6           0        4.388227   -3.769512    0.158062
     43          6           0        3.710234   -4.648774   -0.798010
     44          8           0        3.691617   -4.537233   -2.069666
     45          8           0        3.026342   -5.658680   -0.123500
     46          6           0        2.324020   -6.708674   -0.929084
     47          6           0       -2.438219   -3.572913   -0.950667
     48          6           0       -3.737269   -2.870752   -0.618755
     49          6           0       -5.041552   -3.064495   -0.899291
     50          6           0       -5.645180   -4.350998   -1.691201
     51          6           0       -6.087058   -2.012857   -0.423077
     52          6           0       -6.681860   -2.379918    1.007170
     53          6           0       -6.956225   -1.144612    1.896998
     54          6           0       -8.275596   -1.264692    2.678720
     55          6           0       -8.147962   -2.151306    3.924719
     56          6           0       -8.887059    0.102371    3.098993
     57          6           0      -10.055462    0.503016    2.097727
     58          6           0       -9.652648    1.731654    1.211199
     59          6           0       -9.963181    1.564922   -0.301899
     60          6           0       -8.791354    1.990231   -1.230116
     61          6           0      -11.250200    2.429184   -0.699648
     62          6           0      -12.649421    1.724220   -0.531030
     63          6           0      -13.515866    2.250613   -1.639148
     64          6           0      -15.031833    2.081947   -1.370810
     65          6           0      -15.781016    2.265468   -2.673415
     66          6           0      -15.749072    2.711199   -0.175430
     67          1           0        0.581190    1.895514    0.231542
     68          1           0        6.293313    5.355886   -0.038631
     69          1           0        9.574198   -0.259251   -0.354215
     70          1           0        1.487616   -2.651583   -0.665500
     71          1           0        0.065675   -0.639079    0.617910
     72          1           0       -1.111042   -0.228694   -1.196875
     73          1           0       -0.191030   -1.629084   -1.953140
     74          1           0        0.313788    0.052627   -2.178341
     75          1           0        1.009568   -1.955168    2.181826
     76          1           0        2.358906   -2.937003    1.989247
     77          1           0       -0.247238   -3.885709    2.360439
     78          1           0        0.894074   -4.802916    1.532932
     79          1           0        0.385425    5.597573    0.463825
     80          1           0        0.235415    3.955304    0.760478
     81          1           0        0.338001    4.531534   -0.965419
     82          1           0        2.575033    8.430704   -0.098327
     83          1           0        1.948881    7.395898    1.171815
     84          1           0        1.646737    7.063614   -0.544349
     85          1           0        8.818361    4.627347    0.354769
     86          1           0       10.031573    2.392930   -1.141908
     87          1           0        8.896222    3.614474   -2.409827
     88          1           0        9.703846    5.129102   -1.802771
     89          1           0        7.944431    5.078847   -2.196284
     90          1           0       11.016732    3.332693    0.978699
     91          1           0       11.046673    1.605734    0.975042
     92          1           0       10.086924    1.499313    2.921770
     93          1           0        8.689581    2.358637    2.352053
     94          1           0       10.139227    3.236339    3.093625
     95          1           0        9.762692   -2.236469   -1.171167
     96          1           0        9.215399   -3.826546   -0.809467
     97          1           0        9.854458   -2.968222    0.480717
     98          1           0        4.188320   -4.137359    1.165164
     99          1           0        3.057984   -7.447363   -1.251954
    100          1           0        1.896206   -6.276628   -1.834210
    101          1           0        1.557090   -7.305188   -0.433293
    102          1           0       -2.596028   -4.634485   -1.144487
    103          1           0       -2.366691   -3.065727   -1.913074
    104          1           0       -3.463135   -2.105036    0.106816
    105          1           0       -4.921945   -5.154696   -1.558768
    106          1           0       -5.796721   -4.174480   -2.756599
    107          1           0       -6.638994   -4.571116   -1.302684
    108          1           0       -6.966930   -1.997635   -1.066014
    109          1           0       -5.681149   -1.003659   -0.491600
    110          1           0       -5.976038   -3.070315    1.469533
    111          1           0       -7.583956   -2.983894    0.915057
    112          1           0       -7.005571   -0.231660    1.304123
    113          1           0       -6.160018   -1.160411    2.641059
    114          1           0       -8.945415   -1.791147    1.998751
    115          1           0       -7.995417   -1.624461    4.866683
    116          1           0       -7.237225   -2.741291    3.823829
    117          1           0       -9.012716   -2.812849    3.982491
    118          1           0       -8.063231    0.816505    3.079929
    119          1           0       -9.282783    0.087904    4.113808
    120          1           0      -10.955118    0.824124    2.623127
    121          1           0      -10.239616   -0.239120    1.320267
    122          1           0       -8.610438    2.023607    1.338364
    123          1           0      -10.222680    2.598027    1.548053
    124          1           0      -10.299670    0.536704   -0.435959
    125          1           0       -8.704334    1.370710   -2.122827
    126          1           0       -7.886071    1.895673   -0.630004
    127          1           0       -8.920035    3.038654   -1.497975
    128          1           0      -11.206876    2.864030   -1.698144
    129          1           0      -11.334589    3.276496   -0.018958
    130          1           0      -13.063477    1.845305    0.469214
    131          1           0      -12.633625    0.659056   -0.762829
    132          1           0      -13.204996    1.726670   -2.543100
    133          1           0      -13.342757    3.320032   -1.761273
    134          1           0      -15.050919    1.006759   -1.190737
    135          1           0      -15.137932    2.455284   -3.533456
    136          1           0      -16.487737    3.094752   -2.642075
    137          1           0      -16.458332    1.416434   -2.761212
    138          1           0      -15.058413    3.309639    0.419159
    139          1           0      -16.054404    1.938553    0.530407
    140          1           0      -16.608067    3.362289   -0.335081
 ---------------------------------------------------------------------

 SCF Done:  E(RB-LYP) =  -3007.37325318     A.U. after   23 cycles

 Excitation energies and oscillator strengths:

 Excited State   1:      Singlet-A      1.7397 eV  712.66 nm  f=0.0497  <S**2>=0.000
     244 -> 247        0.61970
     245 -> 247        0.14518
     246 -> 247        0.29862
 This state for optimization and/or second-order correction.
 Total Energy, E(TD-HF/TD-DFT) =  -3007.30931915
 Copying the excited state density for this state as the 1-particle RhoCI density.

 Excited State   2:      Singlet-A      1.7912 eV  692.19 nm  f=0.2335  <S**2>=0.000
     244 -> 247       -0.31344
     245 -> 248        0.18635
     246 -> 247        0.61351
     246 <- 247       -0.13330

 Excited State   3:      Singlet-A      1.9105 eV  648.97 nm  f=0.0890  <S**2>=0.000
     243 -> 247        0.27020
     244 -> 247       -0.12159
     245 -> 247        0.59768
     246 -> 248       -0.18667

 Excited State   4:      Singlet-A      2.0414 eV  607.33 nm  f=0.0151  <S**2>=0.000
     243 -> 247        0.65086
     245 -> 247       -0.23585
     246 -> 248        0.11268

 Excited State   5:      Singlet-A      2.2680 eV  546.66 nm  f=0.0016  <S**2>=0.000
     241 -> 247        0.64722
     242 -> 247        0.27743

 The electronic state is 1-A.
 Alpha  occ. eigenvalues --  -46.28150 -18.84172 -18.81066 -18.77181 -18.76203
 Alpha  occ. eigenvalues --  -18.75198 -18.74543 -14.03145 -14.03057 -14.01468
 Alpha  occ. eigenvalues --  -14.01308 -10.04621 -10.03074  -9.99971  -9.99246
 Alpha  occ. eigenvalues --   -9.98742  -9.96926  -9.96747  -9.96640  -9.96577
 Alpha  occ. eigenvalues --   -9.96350  -9.96207  -9.95995  -9.95623  -9.95195
 Alpha  occ. eigenvalues --   -9.94592  -9.94298  -9.94294  -9.94213  -9.94096
 Alpha  occ. eigenvalues --   -9.94093  -9.94089  -9.93846  -9.93767  -9.93767
 Alpha  occ. eigenvalues --   -9.93620  -9.93364  -9.93322  -9.93117  -9.93102
 Alpha  occ. eigenvalues --   -9.92987  -9.92958  -9.92823  -9.92667  -9.92587
 Alpha  occ. eigenvalues --   -9.92460  -9.92392  -9.92110  -9.92086  -9.92017
 Alpha  occ. eigenvalues --   -9.91848  -9.91712  -9.91645  -9.91584  -9.91512
 Alpha  occ. eigenvalues --   -9.91477  -9.91477  -9.91455  -9.91276  -9.91179
 Alpha  occ. eigenvalues --   -9.91104  -9.90928  -9.90874  -9.90857  -9.90782
 Alpha  occ. eigenvalues --   -9.90251  -2.92534  -1.72965  -1.72456  -1.72212
 Alpha  occ. eigenvalues --   -1.01503  -0.94426  -0.92401  -0.91011  -0.90601
 Alpha  occ. eigenvalues --   -0.86477  -0.85981  -0.85485  -0.84949  -0.83144
 Alpha  occ. eigenvalues --   -0.75273  -0.73592  -0.73245  -0.72834  -0.72224
 Alpha  occ. eigenvalues --   -0.71993  -0.71210  -0.70987  -0.70505  -0.70348
 Alpha  occ. eigenvalues --   -0.69530  -0.69121  -0.68046  -0.67411  -0.67086
 Alpha  occ. eigenvalues --   -0.66549  -0.65889  -0.65499  -0.64552  -0.64121
 Alpha  occ. eigenvalues --   -0.63895  -0.63007  -0.62089  -0.61466  -0.60624
 Alpha  occ. eigenvalues --   -0.60542  -0.60318  -0.59604  -0.59504  -0.58958
 Alpha  occ. eigenvalues --   -0.58430  -0.57865  -0.56870  -0.56294  -0.54926
 Alpha  occ. eigenvalues --   -0.54042  -0.53780  -0.52652  -0.52396  -0.51964
 Alpha  occ. eigenvalues --   -0.51246  -0.51159  -0.50597  -0.50451  -0.50266
 Alpha  occ. eigenvalues --   -0.50179  -0.49340  -0.48622  -0.47605  -0.47183
 Alpha  occ. eigenvalues --   -0.46203  -0.45975  -0.45478  -0.45253  -0.44078
 Alpha  occ. eigenvalues --   -0.43857  -0.43769  -0.43247  -0.42671  -0.42367
 Alpha  occ. eigenvalues --   -0.41981  -0.41884  -0.41497  -0.41185  -0.41075
 Alpha  occ. eigenvalues --   -0.40880  -0.40800  -0.40033  -0.39929  -0.39622
 Alpha  occ. eigenvalues --   -0.39470  -0.39359  -0.39246  -0.39116  -0.38841
 Alpha  occ. eigenvalues --   -0.38618  -0.38497  -0.38365  -0.38333  -0.38140
 Alpha  occ. eigenvalues --   -0.38028  -0.37987  -0.37729  -0.37537  -0.37367
 Alpha  occ. eigenvalues --   -0.37197  -0.36969  -0.36899  -0.36808  -0.36450
 Alpha  occ. eigenvalues --   -0.36209  -0.35980  -0.35864  -0.35636  -0.35432
 Alpha  occ. eigenvalues --   -0.35375  -0.34945  -0.34699  -0.34654  -0.34534
 Alpha  occ. eigenvalues --   -0.34396  -0.34236  -0.33997  -0.33893  -0.33814
 Alpha  occ. eigenvalues --   -0.33682  -0.33633  -0.33451  -0.33243  -0.33123
 Alpha  occ. eigenvalues --   -0.32880  -0.32834  -0.32483  -0.32447  -0.32425
 Alpha  occ. eigenvalues --   -0.32245  -0.31796  -0.31715  -0.31624  -0.31607
 Alpha  occ. eigenvalues --   -0.31228  -0.31126  -0.30965  -0.30818  -0.30736
 Alpha  occ. eigenvalues --   -0.30165  -0.30117  -0.30038  -0.29755  -0.29743
 Alpha  occ. eigenvalues --   -0.29599  -0.29574  -0.29255  -0.29039  -0.28851
 Alpha  occ. eigenvalues --   -0.28732  -0.28431  -0.28029  -0.27961  -0.27936
 Alpha  occ. eigenvalues --   -0.27865  -0.27744  -0.27265  -0.26963  -0.26857
 Alpha  occ. eigenvalues --   -0.26557  -0.26357  -0.25816  -0.25781  -0.25569
 Alpha  occ. eigenvalues --   -0.25528  -0.24526  -0.23610  -0.23201  -0.23112
 Alpha  occ. eigenvalues --   -0.23036  -0.22418  -0.21998  -0.21082  -0.20515
 Alpha  occ. eigenvalues --   -0.20087  -0.19798  -0.19067  -0.18106  -0.17031
 Alpha  occ. eigenvalues --   -0.15993
 Alpha virt. eigenvalues --   -0.11761  -0.06954  -0.06316  -0.04623  -0.02780
 Alpha virt. eigenvalues --   -0.02515  -0.02312  -0.01836  -0.01556   0.00285
 Alpha virt. eigenvalues --    0.01296   0.01586   0.02039   0.02486   0.02488

 Mulliken charges:
               1
     1  Mg   0.685512
     2  C    0.088716
     3  C   -0.048020
     4  C   -0.016492
     5  C   -0.052678
     6  N   -0.227248
     7  C   -0.070482
     8  C    0.026506
     9  C   -0.007285
    10  C   -0.039769
    11  C    0.149791
    12  C    0.169125
    13  C    0.161461
    14  C    0.008987
    15  O   -0.162059
    16  O   -0.230263
    17  N   -0.320767
    18  C    0.166410
    19  C   -0.125573
    20  C    0.031269
    21  C    0.098763
    22  C    0.159832
    23  C   -0.092880
    24  O   -0.174395
    25  C    0.118874
    26  N   -0.183562
    27  C   -0.000550
    28  C    0.043048
    29  C    0.058466
    30  C   -0.026317
    31  C    0.133795
    32  C    0.061790
    33  C    0.070095
    34  N   -0.262087
    35  C    0.077544
    36  C   -0.169701
    37  C    0.117283
    38  C    0.057768
    39  C    0.164050
    40  C   -0.057619
    41  O   -0.128596
    42  C    0.007111
    43  C    0.138856
    44  O   -0.238050
    45  O   -0.294848
    46  C    0.233900
    47  C    0.319417
    48  C   -0.160011
    49  C   -0.126298
    50  C    0.108550
    51  C    0.118650
    52  C    0.049403
    53  C    0.124185
    54  C   -0.119780
    55  C    0.114140
    56  C    0.127768
    57  C    0.079945
    58  C    0.085046
    59  C   -0.086079
    60  C    0.118509
    61  C    0.070063
    62  C    0.071054
    63  C    0.049564
    64  C   -0.064871
    65  C    0.116620
    66  C    0.116364
    67  H   -0.064954
    68  H   -0.032028
    69  H   -0.066650
    70  H    0.002466
    71  H   -0.032354
    72  H   -0.000838
    73  H    0.010446
    74  H   -0.008126
    75  H   -0.034464
    76  H   -0.016239
    77  H   -0.014695
    78  H   -0.006808
    79  H   -0.013862
    80  H    0.005225
    81  H    0.010138
    82  H   -0.012399
    83  H    0.015747
    84  H   -0.002193
    85  H   -0.028899
    86  H   -0.025448
    87  H   -0.012577
    88  H    0.002179
    89  H   -0.001065
    90  H   -0.025649
    91  H   -0.017504
    92  H   -0.013868
    93  H    0.005773
    94  H    0.001167
    95  H    0.010290
    96  H   -0.004617
    97  H   -0.004181
    98  H    0.006717
    99  H    0.002164
   100  H    0.021410
   101  H    0.011585
   102  H    0.009031
   103  H    0.022265
   104  H   -0.023722
   105  H   -0.003287
   106  H    0.006378
   107  H   -0.003267
   108  H   -0.032637
   109  H   -0.015595
   110  H   -0.024347
   111  H   -0.030269
   112  H   -0.022793
   113  H   -0.030258
   114  H   -0.036650
   115  H   -0.015238
   116  H   -0.034545
   117  H   -0.011736
   118  H   -0.028190
   119  H   -0.035313
   120  H   -0.021760
   121  H   -0.019382
   122  H   -0.042889
   123  H   -0.042894
   124  H   -0.037685
   125  H   -0.008178
   126  H   -0.024653
   127  H   -0.010373
   128  H   -0.027051
   129  H   -0.031498
   130  H   -0.028132
   131  H   -0.036940
   132  H   -0.022863
   133  H   -0.034009
   134  H   -0.047936
   135  H   -0.017745
   136  H   -0.032641
   137  H   -0.020909
   138  H   -0.028671
   139  H   -0.019232
   140  H   -0.012221
 Sum of Mulliken charges =  -0.00000

 Dipole moment (field-independent basis, Debye):
    X=             -4.4091    Y=              1.7658    Z=              2.5753  Tot=              5.4028
 Quadrupole moment (field-independent basis, Debye-Ang):
   XX=           -373.3859   YY=           -441.4992   ZZ=           -408.0822
   XY=             21.4436   XZ=              7.7411   YZ=             -9.5612

 Normal termination of Gaussian 16 at Thu May  5 06:38:27 2022.
