 Gaussian 16, Revision A.03,
 Gaussian 16:  ES64L-G16RevA.03 25-Dec-2016

 -----------------------------------
 #p cam-b3lyp/Def2SVP td=(nstates=5)
 -----------------------------------

 -------------------------------------------------------
 step_651_chromophore_24 TDDFT with cam-b3lyp functional
 -------------------------------------------------------
 Symbolic Z-matrix:
 Charge =  0 Multiplicity = 1

                         Standard orientation:
 ---------------------------------------------------------------------
 Center     Atomic      Atomic             Coordinates (Angstroms)
 Number     Number       Type             X           Y           Z
 ---------------------------------------------------------------------
      1         12           0        5.080459    1.046103    0.085899
      2          6           0        4.267232   -2.272081   -0.042106
      3          6           0        1.641841    1.770487    0.001848
      4          6           0        5.995495    4.310209   -0.145750
      5          6           0        8.566827    0.153699   -0.271244
      6          7           0        3.129731   -0.134207   -0.148059
      7          6           0        3.080163   -1.532327   -0.064646
      8          6           0        1.655509   -1.953631    0.155185
      9          6           0        0.771682   -0.735688   -0.206599
     10          6           0        1.850675    0.375915   -0.111163
     11          6           0       -0.145928   -0.647370   -1.482399
     12          6           0        1.422622   -2.689024    1.490298
     13          6           0        0.407715   -3.828515    1.490178
     14          6           0       -0.422543   -4.037533    0.191590
     15          8           0       -0.149289   -4.877266   -0.599799
     16          8           0       -1.458722   -3.233814    0.071487
     17          7           0        3.977351    2.832107    0.011347
     18          6           0        2.563763    2.908693   -0.007745
     19          6           0        2.155493    4.284224   -0.018195
     20          6           0        3.416378    5.073546    0.048720
     21          6           0        4.553537    4.094092   -0.034294
     22          6           0        0.705616    4.639530    0.054371
     23          6           0        3.607516    6.507034    0.199524
     24          8           0        4.739847    6.933928    0.410386
     25          6           0        2.394224    7.391243    0.177057
     26          7           0        7.066145    2.103049   -0.259707
     27          6           0        7.113998    3.445791   -0.226396
     28          6           0        8.567112    3.908448   -0.424759
     29          6           0        9.461981    2.650932   -0.249421
     30          6           0        8.341953    1.568525   -0.244873
     31          6           0        8.799918    4.521505   -1.813236
     32          6           0       10.368660    2.457681    1.033201
     33          6           0        9.772778    2.432312    2.454952
     34          7           0        6.223291   -0.649841   -0.030895
     35          6           0        7.576473   -0.860749   -0.154157
     36          6           0        7.881159   -2.293675   -0.117922
     37          6           0        6.619499   -2.899305   -0.072407
     38          6           0        5.638242   -1.861251   -0.055458
     39          6           0        9.241941   -2.812910   -0.406913
     40          6           0        5.933734   -4.179304   -0.002749
     41          8           0        6.404006   -5.316805   -0.029978
     42          6           0        4.388227   -3.769512    0.158062
     43          6           0        3.710234   -4.648774   -0.798010
     44          8           0        3.691617   -4.537233   -2.069666
     45          8           0        3.026342   -5.658680   -0.123500
     46          6           0        2.324020   -6.708674   -0.929084
     47          6           0       -2.438219   -3.572913   -0.950667
     48          6           0       -3.737269   -2.870752   -0.618755
     49          6           0       -5.041552   -3.064495   -0.899291
     50          6           0       -5.645180   -4.350998   -1.691201
     51          6           0       -6.087058   -2.012857   -0.423077
     52          6           0       -6.681860   -2.379918    1.007170
     53          6           0       -6.956225   -1.144612    1.896998
     54          6           0       -8.275596   -1.264692    2.678720
     55          6           0       -8.147962   -2.151306    3.924719
     56          6           0       -8.887059    0.102371    3.098993
     57          6           0      -10.055462    0.503016    2.097727
     58          6           0       -9.652648    1.731654    1.211199
     59          6           0       -9.963181    1.564922   -0.301899
     60          6           0       -8.791354    1.990231   -1.230116
     61          6           0      -11.250200    2.429184   -0.699648
     62          6           0      -12.649421    1.724220   -0.531030
     63          6           0      -13.515866    2.250613   -1.639148
     64          6           0      -15.031833    2.081947   -1.370810
     65          6           0      -15.781016    2.265468   -2.673415
     66          6           0      -15.749072    2.711199   -0.175430
     67          1           0        0.581190    1.895514    0.231542
     68          1           0        6.293313    5.355886   -0.038631
     69          1           0        9.574198   -0.259251   -0.354215
     70          1           0        1.487616   -2.651583   -0.665500
     71          1           0        0.065675   -0.639079    0.617910
     72          1           0       -1.111042   -0.228694   -1.196875
     73          1           0       -0.191030   -1.629084   -1.953140
     74          1           0        0.313788    0.052627   -2.178341
     75          1           0        1.009568   -1.955168    2.181826
     76          1           0        2.358906   -2.937003    1.989247
     77          1           0       -0.247238   -3.885709    2.360439
     78          1           0        0.894074   -4.802916    1.532932
     79          1           0        0.385425    5.597573    0.463825
     80          1           0        0.235415    3.955304    0.760478
     81          1           0        0.338001    4.531534   -0.965419
     82          1           0        2.575033    8.430704   -0.098327
     83          1           0        1.948881    7.395898    1.171815
     84          1           0        1.646737    7.063614   -0.544349
     85          1           0        8.818361    4.627347    0.354769
     86          1           0       10.031573    2.392930   -1.141908
     87          1           0        8.896222    3.614474   -2.409827
     88          1           0        9.703846    5.129102   -1.802771
     89          1           0        7.944431    5.078847   -2.196284
     90          1           0       11.016732    3.332693    0.978699
     91          1           0       11.046673    1.605734    0.975042
     92          1           0       10.086924    1.499313    2.921770
     93          1           0        8.689581    2.358637    2.352053
     94          1           0       10.139227    3.236339    3.093625
     95          1           0        9.762692   -2.236469   -1.171167
     96          1           0        9.215399   -3.826546   -0.809467
     97          1           0        9.854458   -2.968222    0.480717
     98          1           0        4.188320   -4.137359    1.165164
     99          1           0        3.057984   -7.447363   -1.251954
    100          1           0        1.896206   -6.276628   -1.834210
    101          1           0        1.557090   -7.305188   -0.433293
    102          1           0       -2.596028   -4.634485   -1.144487
    103          1           0       -2.366691   -3.065727   -1.913074
    104          1           0       -3.463135   -2.105036    0.106816
    105          1           0       -4.921945   -5.154696   -1.558768
    106          1           0       -5.796721   -4.174480   -2.756599
    107          1           0       -6.638994   -4.571116   -1.302684
    108          1           0       -6.966930   -1.997635   -1.066014
    109          1           0       -5.681149   -1.003659   -0.491600
    110          1           0       -5.976038   -3.070315    1.469533
    111          1           0       -7.583956   -2.983894    0.915057
    112          1           0       -7.005571   -0.231660    1.304123
    113          1           0       -6.160018   -1.160411    2.641059
    114          1           0       -8.945415   -1.791147    1.998751
    115          1           0       -7.995417   -1.624461    4.866683
    116          1           0       -7.237225   -2.741291    3.823829
    117          1           0       -9.012716   -2.812849    3.982491
    118          1           0       -8.063231    0.816505    3.079929
    119          1           0       -9.282783    0.087904    4.113808
    120          1           0      -10.955118    0.824124    2.623127
    121          1           0      -10.239616   -0.239120    1.320267
    122          1           0       -8.610438    2.023607    1.338364
    123          1           0      -10.222680    2.598027    1.548053
    124          1           0      -10.299670    0.536704   -0.435959
    125          1           0       -8.704334    1.370710   -2.122827
    126          1           0       -7.886071    1.895673   -0.630004
    127          1           0       -8.920035    3.038654   -1.497975
    128          1           0      -11.206876    2.864030   -1.698144
    129          1           0      -11.334589    3.276496   -0.018958
    130          1           0      -13.063477    1.845305    0.469214
    131          1           0      -12.633625    0.659056   -0.762829
    132          1           0      -13.204996    1.726670   -2.543100
    133          1           0      -13.342757    3.320032   -1.761273
    134          1           0      -15.050919    1.006759   -1.190737
    135          1           0      -15.137932    2.455284   -3.533456
    136          1           0      -16.487737    3.094752   -2.642075
    137          1           0      -16.458332    1.416434   -2.761212
    138          1           0      -15.058413    3.309639    0.419159
    139          1           0      -16.054404    1.938553    0.530407
    140          1           0      -16.608067    3.362289   -0.335081
 ---------------------------------------------------------------------

 SCF Done:  E(RCAM-B3LYP) =  -3007.15264052     A.U. after   19 cycles

 Excitation energies and oscillator strengths:

 Excited State   1:      Singlet-A      1.6615 eV  746.20 nm  f=0.3704  <S**2>=0.000
     245 -> 248       -0.19224
     246 -> 247        0.68274
     245 <- 248       -0.11312
 This state for optimization and/or second-order correction.
 Total Energy, E(TD-HF/TD-DFT) =  -3007.09157990
 Copying the excited state density for this state as the 1-particle RhoCI density.

 Excited State   2:      Singlet-A      2.1265 eV  583.03 nm  f=0.1464  <S**2>=0.000
     245 -> 247        0.65376
     246 -> 248        0.25748

 Excited State   3:      Singlet-A      3.1766 eV  390.30 nm  f=0.0060  <S**2>=0.000
     244 -> 247        0.68137
     246 -> 248       -0.12081

 Excited State   4:      Singlet-A      3.4453 eV  359.86 nm  f=0.0033  <S**2>=0.000
     241 -> 247        0.23038
     241 -> 249        0.14390
     242 -> 247        0.53568
     242 -> 248       -0.12905
     242 -> 249        0.19592
     242 -> 250        0.15501
     242 -> 251       -0.11177

 Excited State   5:      Singlet-A      3.4703 eV  357.27 nm  f=0.1177  <S**2>=0.000
     239 -> 247        0.22140
     239 -> 249       -0.16009
     240 -> 247        0.20391
     240 -> 249       -0.13658
     241 -> 247        0.39621
     242 -> 247       -0.19777
     245 -> 247        0.10397
     246 -> 248       -0.33209

 The electronic state is 1-A.
 Alpha  occ. eigenvalues --  -46.89735 -19.27063 -19.24056 -19.20146 -19.19509
 Alpha  occ. eigenvalues --  -19.18327 -19.17612 -14.41995 -14.41976 -14.39864
 Alpha  occ. eigenvalues --  -14.39803 -10.39716 -10.38759 -10.35493 -10.33806
 Alpha  occ. eigenvalues --  -10.33278 -10.31557 -10.31294 -10.31056 -10.30951
 Alpha  occ. eigenvalues --  -10.30724 -10.30440 -10.30044 -10.29994 -10.29681
 Alpha  occ. eigenvalues --  -10.28740 -10.28568 -10.28414 -10.28374 -10.28334
 Alpha  occ. eigenvalues --  -10.28320 -10.28315 -10.28279 -10.27999 -10.27625
 Alpha  occ. eigenvalues --  -10.27599 -10.27425 -10.27371 -10.27089 -10.26912
 Alpha  occ. eigenvalues --  -10.26869 -10.26721 -10.26683 -10.26627 -10.26603
 Alpha  occ. eigenvalues --  -10.26511 -10.26206 -10.25880 -10.25748 -10.25722
 Alpha  occ. eigenvalues --  -10.25691 -10.25541 -10.25431 -10.25420 -10.25315
 Alpha  occ. eigenvalues --  -10.25299 -10.25188 -10.25137 -10.24938 -10.24903
 Alpha  occ. eigenvalues --  -10.24691 -10.24605 -10.24546 -10.24487 -10.24449
 Alpha  occ. eigenvalues --  -10.23824  -3.18014  -1.92925  -1.92490  -1.92289
 Alpha  occ. eigenvalues --   -1.20030  -1.12901  -1.10325  -1.09492  -1.08877
 Alpha  occ. eigenvalues --   -1.04245  -1.03864  -1.03137  -1.02564  -1.00463
 Alpha  occ. eigenvalues --   -0.92493  -0.90393  -0.90052  -0.89625  -0.88904
 Alpha  occ. eigenvalues --   -0.88625  -0.87858  -0.87579  -0.87158  -0.86865
 Alpha  occ. eigenvalues --   -0.85972  -0.85439  -0.84285  -0.83591  -0.83237
 Alpha  occ. eigenvalues --   -0.82715  -0.82009  -0.81426  -0.80500  -0.79907
 Alpha  occ. eigenvalues --   -0.79660  -0.78683  -0.77740  -0.76946  -0.75966
 Alpha  occ. eigenvalues --   -0.75927  -0.75688  -0.74868  -0.74800  -0.74021
 Alpha  occ. eigenvalues --   -0.73620  -0.72905  -0.71746  -0.71127  -0.69546
 Alpha  occ. eigenvalues --   -0.68722  -0.68329  -0.67008  -0.66763  -0.66024
 Alpha  occ. eigenvalues --   -0.65421  -0.65318  -0.64660  -0.64371  -0.64331
 Alpha  occ. eigenvalues --   -0.64114  -0.63321  -0.62510  -0.61292  -0.60847
 Alpha  occ. eigenvalues --   -0.59762  -0.59466  -0.58859  -0.58695  -0.57400
 Alpha  occ. eigenvalues --   -0.57285  -0.57161  -0.56372  -0.55901  -0.55373
 Alpha  occ. eigenvalues --   -0.55211  -0.54795  -0.54510  -0.54368  -0.54114
 Alpha  occ. eigenvalues --   -0.53649  -0.53537  -0.52946  -0.52523  -0.52217
 Alpha  occ. eigenvalues --   -0.52148  -0.51946  -0.51892  -0.51533  -0.51488
 Alpha  occ. eigenvalues --   -0.51133  -0.51019  -0.50936  -0.50647  -0.50569
 Alpha  occ. eigenvalues --   -0.50403  -0.50352  -0.50233  -0.49777  -0.49645
 Alpha  occ. eigenvalues --   -0.49497  -0.49286  -0.49063  -0.48976  -0.48943
 Alpha  occ. eigenvalues --   -0.48613  -0.48387  -0.48053  -0.47767  -0.47735
 Alpha  occ. eigenvalues --   -0.47491  -0.47363  -0.46864  -0.46549  -0.46358
 Alpha  occ. eigenvalues --   -0.46205  -0.46096  -0.45792  -0.45720  -0.45573
 Alpha  occ. eigenvalues --   -0.45436  -0.45345  -0.45152  -0.45029  -0.44850
 Alpha  occ. eigenvalues --   -0.44762  -0.44410  -0.44193  -0.44090  -0.44008
 Alpha  occ. eigenvalues --   -0.43877  -0.43551  -0.43433  -0.43225  -0.43095
 Alpha  occ. eigenvalues --   -0.42606  -0.42576  -0.42315  -0.42061  -0.42035
 Alpha  occ. eigenvalues --   -0.41776  -0.41374  -0.41299  -0.41141  -0.40990
 Alpha  occ. eigenvalues --   -0.40903  -0.40789  -0.40528  -0.40289  -0.40071
 Alpha  occ. eigenvalues --   -0.39858  -0.39642  -0.39411  -0.39058  -0.38956
 Alpha  occ. eigenvalues --   -0.38877  -0.38706  -0.38198  -0.37909  -0.37827
 Alpha  occ. eigenvalues --   -0.37626  -0.37112  -0.36687  -0.36444  -0.36247
 Alpha  occ. eigenvalues --   -0.36202  -0.35088  -0.34700  -0.34534  -0.34439
 Alpha  occ. eigenvalues --   -0.33391  -0.32813  -0.32331  -0.31315  -0.30897
 Alpha  occ. eigenvalues --   -0.30471  -0.30340  -0.30187  -0.28880  -0.23643
 Alpha  occ. eigenvalues --   -0.21312
 Alpha virt. eigenvalues --   -0.09018  -0.01794   0.00089   0.02171   0.02752
 Alpha virt. eigenvalues --    0.04857   0.05100   0.05544   0.06135   0.06493
 Alpha virt. eigenvalues --    0.08043   0.08233   0.08564   0.08742   0.09051

 Mulliken charges:
               1
     1  Mg   0.814539
     2  C    0.055735
     3  C   -0.066887
     4  C   -0.034467
     5  C   -0.059908
     6  N   -0.294472
     7  C   -0.019029
     8  C   -0.037172
     9  C   -0.047857
    10  C   -0.022106
    11  C    0.094673
    12  C    0.111173
    13  C    0.101857
    14  C    0.076967
    15  O   -0.202307
    16  O   -0.291860
    17  N   -0.406616
    18  C    0.175225
    19  C   -0.132521
    20  C   -0.035404
    21  C    0.125121
    22  C    0.096225
    23  C   -0.016479
    24  O   -0.218991
    25  C    0.037635
    26  N   -0.247599
    27  C    0.017014
    28  C   -0.015017
    29  C    0.003177
    30  C   -0.011416
    31  C    0.077834
    32  C    0.010347
    33  C    0.008422
    34  N   -0.353077
    35  C    0.083336
    36  C   -0.153132
    37  C    0.034310
    38  C    0.095476
    39  C    0.099225
    40  C    0.046973
    41  O   -0.167174
    42  C   -0.073585
    43  C    0.229320
    44  O   -0.275319
    45  O   -0.359411
    46  C    0.194580
    47  C    0.288432
    48  C   -0.174665
    49  C   -0.158318
    50  C    0.057915
    51  C    0.062306
    52  C    0.001312
    53  C    0.071329
    54  C   -0.170851
    55  C    0.053953
    56  C    0.070406
    57  C    0.027018
    58  C    0.036404
    59  C   -0.143894
    60  C    0.063803
    61  C    0.018410
    62  C    0.021887
    63  C   -0.003025
    64  C   -0.127458
    65  C    0.055421
    66  C    0.053300
    67  H   -0.030888
    68  H    0.007676
    69  H   -0.028747
    70  H    0.035671
    71  H    0.003377
    72  H    0.021281
    73  H    0.031014
    74  H    0.019557
    75  H   -0.002086
    76  H    0.015882
    77  H    0.019229
    78  H    0.025656
    79  H    0.014261
    80  H    0.030605
    81  H    0.038014
    82  H    0.022097
    83  H    0.043608
    84  H    0.026100
    85  H    0.006305
    86  H    0.011903
    87  H    0.009152
    88  H    0.026327
    89  H    0.025312
    90  H    0.002902
    91  H    0.010163
    92  H    0.010235
    93  H    0.026110
    94  H    0.025380
    95  H    0.035400
    96  H    0.026038
    97  H    0.024753
    98  H    0.049444
    99  H    0.025475
   100  H    0.047546
   101  H    0.034488
   102  H    0.037704
   103  H    0.046812
   104  H    0.008256
   105  H    0.018087
   106  H    0.030208
   107  H    0.019153
   108  H   -0.003180
   109  H    0.013434
   110  H    0.003799
   111  H   -0.003677
   112  H    0.000621
   113  H   -0.001455
   114  H   -0.005781
   115  H    0.008958
   116  H   -0.010396
   117  H    0.013220
   118  H   -0.000163
   119  H   -0.003897
   120  H    0.006507
   121  H    0.004974
   122  H   -0.015638
   123  H   -0.013500
   124  H   -0.007380
   125  H    0.015863
   126  H   -0.003420
   127  H    0.012975
   128  H    0.002204
   129  H   -0.004162
   130  H   -0.002158
   131  H   -0.009838
   132  H    0.005842
   133  H   -0.007064
   134  H   -0.015453
   135  H    0.007704
   136  H   -0.007939
   137  H    0.004101
   138  H   -0.004511
   139  H    0.005677
   140  H    0.013230
 Sum of Mulliken charges =  -0.00000

 Dipole moment (field-independent basis, Debye):
    X=             -4.6602    Y=              1.8453    Z=              2.7389  Tot=              5.7117
 Quadrupole moment (field-independent basis, Debye-Ang):
   XX=           -370.6796   YY=           -438.1416   ZZ=           -408.3311
   XY=             20.4447   XZ=              8.3558   YZ=            -10.1490

 Normal termination of Gaussian 16 at Thu May  5 05:11:13 2022.
