 Gaussian 16, Revision A.03,
 Gaussian 16:  ES64L-G16RevA.03 25-Dec-2016

 ---------------------------------
 #p PBE1PBE/Def2SVP td=(nstates=5)
 ---------------------------------

 -----------------------------------------------------
 step_651_chromophore_24 TDDFT with PBE1PBE functional
 -----------------------------------------------------
 Symbolic Z-matrix:
 Charge =  0 Multiplicity = 1

                         Standard orientation:
 ---------------------------------------------------------------------
 Center     Atomic      Atomic             Coordinates (Angstroms)
 Number     Number       Type             X           Y           Z
 ---------------------------------------------------------------------
      1         12           0        5.080459    1.046103    0.085899
      2          6           0        4.267232   -2.272081   -0.042106
      3          6           0        1.641841    1.770487    0.001848
      4          6           0        5.995495    4.310209   -0.145750
      5          6           0        8.566827    0.153699   -0.271244
      6          7           0        3.129731   -0.134207   -0.148059
      7          6           0        3.080163   -1.532327   -0.064646
      8          6           0        1.655509   -1.953631    0.155185
      9          6           0        0.771682   -0.735688   -0.206599
     10          6           0        1.850675    0.375915   -0.111163
     11          6           0       -0.145928   -0.647370   -1.482399
     12          6           0        1.422622   -2.689024    1.490298
     13          6           0        0.407715   -3.828515    1.490178
     14          6           0       -0.422543   -4.037533    0.191590
     15          8           0       -0.149289   -4.877266   -0.599799
     16          8           0       -1.458722   -3.233814    0.071487
     17          7           0        3.977351    2.832107    0.011347
     18          6           0        2.563763    2.908693   -0.007745
     19          6           0        2.155493    4.284224   -0.018195
     20          6           0        3.416378    5.073546    0.048720
     21          6           0        4.553537    4.094092   -0.034294
     22          6           0        0.705616    4.639530    0.054371
     23          6           0        3.607516    6.507034    0.199524
     24          8           0        4.739847    6.933928    0.410386
     25          6           0        2.394224    7.391243    0.177057
     26          7           0        7.066145    2.103049   -0.259707
     27          6           0        7.113998    3.445791   -0.226396
     28          6           0        8.567112    3.908448   -0.424759
     29          6           0        9.461981    2.650932   -0.249421
     30          6           0        8.341953    1.568525   -0.244873
     31          6           0        8.799918    4.521505   -1.813236
     32          6           0       10.368660    2.457681    1.033201
     33          6           0        9.772778    2.432312    2.454952
     34          7           0        6.223291   -0.649841   -0.030895
     35          6           0        7.576473   -0.860749   -0.154157
     36          6           0        7.881159   -2.293675   -0.117922
     37          6           0        6.619499   -2.899305   -0.072407
     38          6           0        5.638242   -1.861251   -0.055458
     39          6           0        9.241941   -2.812910   -0.406913
     40          6           0        5.933734   -4.179304   -0.002749
     41          8           0        6.404006   -5.316805   -0.029978
     42          6           0        4.388227   -3.769512    0.158062
     43          6           0        3.710234   -4.648774   -0.798010
     44          8           0        3.691617   -4.537233   -2.069666
     45          8           0        3.026342   -5.658680   -0.123500
     46          6           0        2.324020   -6.708674   -0.929084
     47          6           0       -2.438219   -3.572913   -0.950667
     48          6           0       -3.737269   -2.870752   -0.618755
     49          6           0       -5.041552   -3.064495   -0.899291
     50          6           0       -5.645180   -4.350998   -1.691201
     51          6           0       -6.087058   -2.012857   -0.423077
     52          6           0       -6.681860   -2.379918    1.007170
     53          6           0       -6.956225   -1.144612    1.896998
     54          6           0       -8.275596   -1.264692    2.678720
     55          6           0       -8.147962   -2.151306    3.924719
     56          6           0       -8.887059    0.102371    3.098993
     57          6           0      -10.055462    0.503016    2.097727
     58          6           0       -9.652648    1.731654    1.211199
     59          6           0       -9.963181    1.564922   -0.301899
     60          6           0       -8.791354    1.990231   -1.230116
     61          6           0      -11.250200    2.429184   -0.699648
     62          6           0      -12.649421    1.724220   -0.531030
     63          6           0      -13.515866    2.250613   -1.639148
     64          6           0      -15.031833    2.081947   -1.370810
     65          6           0      -15.781016    2.265468   -2.673415
     66          6           0      -15.749072    2.711199   -0.175430
     67          1           0        0.581190    1.895514    0.231542
     68          1           0        6.293313    5.355886   -0.038631
     69          1           0        9.574198   -0.259251   -0.354215
     70          1           0        1.487616   -2.651583   -0.665500
     71          1           0        0.065675   -0.639079    0.617910
     72          1           0       -1.111042   -0.228694   -1.196875
     73          1           0       -0.191030   -1.629084   -1.953140
     74          1           0        0.313788    0.052627   -2.178341
     75          1           0        1.009568   -1.955168    2.181826
     76          1           0        2.358906   -2.937003    1.989247
     77          1           0       -0.247238   -3.885709    2.360439
     78          1           0        0.894074   -4.802916    1.532932
     79          1           0        0.385425    5.597573    0.463825
     80          1           0        0.235415    3.955304    0.760478
     81          1           0        0.338001    4.531534   -0.965419
     82          1           0        2.575033    8.430704   -0.098327
     83          1           0        1.948881    7.395898    1.171815
     84          1           0        1.646737    7.063614   -0.544349
     85          1           0        8.818361    4.627347    0.354769
     86          1           0       10.031573    2.392930   -1.141908
     87          1           0        8.896222    3.614474   -2.409827
     88          1           0        9.703846    5.129102   -1.802771
     89          1           0        7.944431    5.078847   -2.196284
     90          1           0       11.016732    3.332693    0.978699
     91          1           0       11.046673    1.605734    0.975042
     92          1           0       10.086924    1.499313    2.921770
     93          1           0        8.689581    2.358637    2.352053
     94          1           0       10.139227    3.236339    3.093625
     95          1           0        9.762692   -2.236469   -1.171167
     96          1           0        9.215399   -3.826546   -0.809467
     97          1           0        9.854458   -2.968222    0.480717
     98          1           0        4.188320   -4.137359    1.165164
     99          1           0        3.057984   -7.447363   -1.251954
    100          1           0        1.896206   -6.276628   -1.834210
    101          1           0        1.557090   -7.305188   -0.433293
    102          1           0       -2.596028   -4.634485   -1.144487
    103          1           0       -2.366691   -3.065727   -1.913074
    104          1           0       -3.463135   -2.105036    0.106816
    105          1           0       -4.921945   -5.154696   -1.558768
    106          1           0       -5.796721   -4.174480   -2.756599
    107          1           0       -6.638994   -4.571116   -1.302684
    108          1           0       -6.966930   -1.997635   -1.066014
    109          1           0       -5.681149   -1.003659   -0.491600
    110          1           0       -5.976038   -3.070315    1.469533
    111          1           0       -7.583956   -2.983894    0.915057
    112          1           0       -7.005571   -0.231660    1.304123
    113          1           0       -6.160018   -1.160411    2.641059
    114          1           0       -8.945415   -1.791147    1.998751
    115          1           0       -7.995417   -1.624461    4.866683
    116          1           0       -7.237225   -2.741291    3.823829
    117          1           0       -9.012716   -2.812849    3.982491
    118          1           0       -8.063231    0.816505    3.079929
    119          1           0       -9.282783    0.087904    4.113808
    120          1           0      -10.955118    0.824124    2.623127
    121          1           0      -10.239616   -0.239120    1.320267
    122          1           0       -8.610438    2.023607    1.338364
    123          1           0      -10.222680    2.598027    1.548053
    124          1           0      -10.299670    0.536704   -0.435959
    125          1           0       -8.704334    1.370710   -2.122827
    126          1           0       -7.886071    1.895673   -0.630004
    127          1           0       -8.920035    3.038654   -1.497975
    128          1           0      -11.206876    2.864030   -1.698144
    129          1           0      -11.334589    3.276496   -0.018958
    130          1           0      -13.063477    1.845305    0.469214
    131          1           0      -12.633625    0.659056   -0.762829
    132          1           0      -13.204996    1.726670   -2.543100
    133          1           0      -13.342757    3.320032   -1.761273
    134          1           0      -15.050919    1.006759   -1.190737
    135          1           0      -15.137932    2.455284   -3.533456
    136          1           0      -16.487737    3.094752   -2.642075
    137          1           0      -16.458332    1.416434   -2.761212
    138          1           0      -15.058413    3.309639    0.419159
    139          1           0      -16.054404    1.938553    0.530407
    140          1           0      -16.608067    3.362289   -0.335081
 ---------------------------------------------------------------------

 SCF Done:  E(RPBE1PBE) =  -3005.34208820     A.U. after   16 cycles

 Excitation energies and oscillator strengths:

 Excited State   1:      Singlet-A      1.8297 eV  677.63 nm  f=0.3553  <S**2>=0.000
     245 -> 248        0.18539
     246 -> 247        0.68962
     246 <- 247       -0.10483
 This state for optimization and/or second-order correction.
 Total Energy, E(TD-HF/TD-DFT) =  -3005.27484892
 Copying the excited state density for this state as the 1-particle RhoCI density.

 Excited State   2:      Singlet-A      2.1373 eV  580.09 nm  f=0.1377  <S**2>=0.000
     245 -> 247        0.66220
     246 -> 248       -0.23279

 Excited State   3:      Singlet-A      2.8553 eV  434.23 nm  f=0.0124  <S**2>=0.000
     244 -> 247        0.69034

 Excited State   4:      Singlet-A      2.8674 eV  432.39 nm  f=0.0002  <S**2>=0.000
     243 -> 247        0.67992
     243 -> 249        0.12356

 Excited State   5:      Singlet-A      3.0220 eV  410.27 nm  f=0.0001  <S**2>=0.000
     240 -> 247       -0.17793
     241 -> 247        0.63786
     241 -> 249       -0.15245

 The electronic state is 1-A.
 Alpha  occ. eigenvalues --  -46.93139 -19.27690 -19.24676 -19.20370 -19.19693
 Alpha  occ. eigenvalues --  -19.18548 -19.17901 -14.41564 -14.41440 -14.39601
 Alpha  occ. eigenvalues --  -14.39407 -10.36744 -10.35739 -10.32621 -10.30938
 Alpha  occ. eigenvalues --  -10.30705 -10.29238 -10.29046 -10.28839 -10.28767
 Alpha  occ. eigenvalues --  -10.28480 -10.28263 -10.27664 -10.27307 -10.27263
 Alpha  occ. eigenvalues --  -10.26503 -10.26388 -10.26197 -10.26120 -10.26109
 Alpha  occ. eigenvalues --  -10.26076 -10.25986 -10.25920 -10.25592 -10.25432
 Alpha  occ. eigenvalues --  -10.25170 -10.25075 -10.24953 -10.24719 -10.24486
 Alpha  occ. eigenvalues --  -10.24389 -10.24383 -10.24360 -10.24196 -10.24108
 Alpha  occ. eigenvalues --  -10.24063 -10.23619 -10.23586 -10.23388 -10.23328
 Alpha  occ. eigenvalues --  -10.23189 -10.23152 -10.22888 -10.22884 -10.22818
 Alpha  occ. eigenvalues --  -10.22808 -10.22796 -10.22794 -10.22558 -10.22315
 Alpha  occ. eigenvalues --  -10.22136 -10.22086 -10.22084 -10.22070 -10.21846
 Alpha  occ. eigenvalues --  -10.21203  -3.15006  -1.87857  -1.87401  -1.87203
 Alpha  occ. eigenvalues --   -1.14857  -1.07599  -1.05183  -1.04188  -1.03653
 Alpha  occ. eigenvalues --   -0.98870  -0.98599  -0.97733  -0.97163  -0.95176
 Alpha  occ. eigenvalues --   -0.86804  -0.84561  -0.84194  -0.83741  -0.83071
 Alpha  occ. eigenvalues --   -0.82897  -0.82173  -0.81705  -0.81437  -0.81180
 Alpha  occ. eigenvalues --   -0.80247  -0.79685  -0.78501  -0.77825  -0.77435
 Alpha  occ. eigenvalues --   -0.76981  -0.76252  -0.75608  -0.74763  -0.74083
 Alpha  occ. eigenvalues --   -0.74015  -0.72929  -0.72061  -0.71254  -0.70142
 Alpha  occ. eigenvalues --   -0.70015  -0.69982  -0.69195  -0.68945  -0.68307
 Alpha  occ. eigenvalues --   -0.67830  -0.67356  -0.66081  -0.65535  -0.63867
 Alpha  occ. eigenvalues --   -0.63164  -0.62587  -0.61484  -0.61061  -0.60466
 Alpha  occ. eigenvalues --   -0.59817  -0.59611  -0.59167  -0.58880  -0.58684
 Alpha  occ. eigenvalues --   -0.58469  -0.57491  -0.56726  -0.55700  -0.55381
 Alpha  occ. eigenvalues --   -0.54277  -0.54030  -0.53482  -0.53331  -0.51971
 Alpha  occ. eigenvalues --   -0.51670  -0.51627  -0.50982  -0.50502  -0.49936
 Alpha  occ. eigenvalues --   -0.49704  -0.49105  -0.49086  -0.48834  -0.48545
 Alpha  occ. eigenvalues --   -0.48176  -0.48017  -0.47457  -0.47031  -0.46856
 Alpha  occ. eigenvalues --   -0.46629  -0.46481  -0.46451  -0.46096  -0.46036
 Alpha  occ. eigenvalues --   -0.45722  -0.45508  -0.45481  -0.45160  -0.45108
 Alpha  occ. eigenvalues --   -0.44990  -0.44877  -0.44834  -0.44297  -0.44252
 Alpha  occ. eigenvalues --   -0.44073  -0.43873  -0.43722  -0.43658  -0.43555
 Alpha  occ. eigenvalues --   -0.43212  -0.43026  -0.42626  -0.42391  -0.42365
 Alpha  occ. eigenvalues --   -0.42091  -0.42026  -0.41497  -0.41240  -0.41023
 Alpha  occ. eigenvalues --   -0.40915  -0.40725  -0.40531  -0.40476  -0.40259
 Alpha  occ. eigenvalues --   -0.40170  -0.39974  -0.39867  -0.39811  -0.39570
 Alpha  occ. eigenvalues --   -0.39430  -0.39111  -0.38944  -0.38896  -0.38800
 Alpha  occ. eigenvalues --   -0.38647  -0.38322  -0.38207  -0.38063  -0.37955
 Alpha  occ. eigenvalues --   -0.37478  -0.37318  -0.37081  -0.36957  -0.36811
 Alpha  occ. eigenvalues --   -0.36549  -0.36157  -0.36131  -0.35977  -0.35886
 Alpha  occ. eigenvalues --   -0.35695  -0.35660  -0.35334  -0.35114  -0.34856
 Alpha  occ. eigenvalues --   -0.34671  -0.34559  -0.34233  -0.33896  -0.33807
 Alpha  occ. eigenvalues --   -0.33672  -0.33626  -0.33053  -0.32851  -0.32748
 Alpha  occ. eigenvalues --   -0.32405  -0.31964  -0.31743  -0.31408  -0.31347
 Alpha  occ. eigenvalues --   -0.31078  -0.29974  -0.29696  -0.29539  -0.29338
 Alpha  occ. eigenvalues --   -0.28367  -0.28173  -0.27356  -0.26796  -0.26165
 Alpha  occ. eigenvalues --   -0.25767  -0.25474  -0.25152  -0.24619  -0.20650
 Alpha  occ. eigenvalues --   -0.18943
 Alpha virt. eigenvalues --   -0.11408  -0.05297  -0.04091  -0.02091  -0.00166
 Alpha virt. eigenvalues --    0.00331   0.00590   0.01070   0.01577   0.03142
 Alpha virt. eigenvalues --    0.04155   0.04494   0.05005   0.05390   0.05470

 Mulliken charges:
               1
     1  Mg   0.958882
     2  C    0.038356
     3  C   -0.067577
     4  C   -0.033006
     5  C   -0.047813
     6  N   -0.387765
     7  C    0.055871
     8  C   -0.119812
     9  C   -0.109993
    10  C    0.016289
    11  C    0.034127
    12  C    0.059315
    13  C    0.032770
    14  C    0.139915
    15  O   -0.235185
    16  O   -0.324737
    17  N   -0.516904
    18  C    0.198917
    19  C   -0.162393
    20  C   -0.083491
    21  C    0.164975
    22  C    0.033918
    23  C    0.031274
    24  O   -0.256974
    25  C   -0.031980
    26  N   -0.344594
    27  C    0.052022
    28  C   -0.093578
    29  C   -0.071246
    30  C    0.027185
    31  C    0.018719
    32  C   -0.048271
    33  C   -0.065865
    34  N   -0.482377
    35  C    0.100148
    36  C   -0.161826
    37  C   -0.020824
    38  C    0.142721
    39  C    0.040509
    40  C    0.144461
    41  O   -0.213235
    42  C   -0.179071
    43  C    0.319399
    44  O   -0.309494
    45  O   -0.391097
    46  C    0.140140
    47  C    0.249260
    48  C   -0.185971
    49  C   -0.205261
    50  C   -0.005172
    51  C    0.000377
    52  C   -0.054152
    53  C    0.007435
    54  C   -0.252655
    55  C   -0.005814
    56  C    0.014401
    57  C   -0.040033
    58  C   -0.007036
    59  C   -0.233979
    60  C    0.001635
    61  C   -0.035092
    62  C   -0.035271
    63  C   -0.065319
    64  C   -0.220150
    65  C   -0.003848
    66  C   -0.006397
    67  H    0.001548
    68  H    0.039108
    69  H    0.001973
    70  H    0.079943
    71  H    0.040941
    72  H    0.047349
    73  H    0.058286
    74  H    0.048073
    75  H    0.030881
    76  H    0.048146
    77  H    0.050231
    78  H    0.059566
    79  H    0.041340
    80  H    0.057092
    81  H    0.067201
    82  H    0.049673
    83  H    0.070508
    84  H    0.052996
    85  H    0.043465
    86  H    0.048578
    87  H    0.037764
    88  H    0.054642
    89  H    0.053696
    90  H    0.037099
    91  H    0.041882
    92  H    0.038323
    93  H    0.057179
    94  H    0.052073
    95  H    0.060211
    96  H    0.054502
    97  H    0.052949
    98  H    0.086796
    99  H    0.048412
   100  H    0.068338
   101  H    0.055467
   102  H    0.063512
   103  H    0.073523
   104  H    0.038082
   105  H    0.045400
   106  H    0.057464
   107  H    0.046295
   108  H    0.030513
   109  H    0.043457
   110  H    0.036559
   111  H    0.026960
   112  H    0.036678
   113  H    0.032863
   114  H    0.032272
   115  H    0.035972
   116  H    0.018246
   117  H    0.041166
   118  H    0.031859
   119  H    0.028671
   120  H    0.039060
   121  H    0.036481
   122  H    0.014390
   123  H    0.019547
   124  H    0.030998
   125  H    0.043542
   126  H    0.024486
   127  H    0.040435
   128  H    0.033449
   129  H    0.029507
   130  H    0.029557
   131  H    0.022791
   132  H    0.038603
   133  H    0.027457
   134  H    0.024745
   135  H    0.034243
   136  H    0.020130
   137  H    0.031627
   138  H    0.023162
   139  H    0.032845
   140  H    0.039463
 Sum of Mulliken charges =  -0.00000

 Dipole moment (field-independent basis, Debye):
    X=             -4.7000    Y=              1.9504    Z=              2.7593  Tot=              5.7886
 Quadrupole moment (field-independent basis, Debye-Ang):
   XX=           -365.2879   YY=           -435.3702   ZZ=           -405.8934
   XY=             21.5180   XZ=              8.2260   YZ=            -10.0728

 Normal termination of Gaussian 16 at Thu May  5 05:36:10 2022.
