 Gaussian 16, Revision A.03,
 Gaussian 16:  ES64L-G16RevA.03 25-Dec-2016

 --------------------------------
 #p wB97XD/Def2SVP td=(nstates=5)
 --------------------------------

 ----------------------------------------------------
 step_651_chromophore_24 TDDFT with wB97XD functional
 ----------------------------------------------------
 Symbolic Z-matrix:
 Charge =  0 Multiplicity = 1

                         Standard orientation:
 ---------------------------------------------------------------------
 Center     Atomic      Atomic             Coordinates (Angstroms)
 Number     Number       Type             X           Y           Z
 ---------------------------------------------------------------------
      1         12           0        5.080459    1.046103    0.085899
      2          6           0        4.267232   -2.272081   -0.042106
      3          6           0        1.641841    1.770487    0.001848
      4          6           0        5.995495    4.310209   -0.145750
      5          6           0        8.566827    0.153699   -0.271244
      6          7           0        3.129731   -0.134207   -0.148059
      7          6           0        3.080163   -1.532327   -0.064646
      8          6           0        1.655509   -1.953631    0.155185
      9          6           0        0.771682   -0.735688   -0.206599
     10          6           0        1.850675    0.375915   -0.111163
     11          6           0       -0.145928   -0.647370   -1.482399
     12          6           0        1.422622   -2.689024    1.490298
     13          6           0        0.407715   -3.828515    1.490178
     14          6           0       -0.422543   -4.037533    0.191590
     15          8           0       -0.149289   -4.877266   -0.599799
     16          8           0       -1.458722   -3.233814    0.071487
     17          7           0        3.977351    2.832107    0.011347
     18          6           0        2.563763    2.908693   -0.007745
     19          6           0        2.155493    4.284224   -0.018195
     20          6           0        3.416378    5.073546    0.048720
     21          6           0        4.553537    4.094092   -0.034294
     22          6           0        0.705616    4.639530    0.054371
     23          6           0        3.607516    6.507034    0.199524
     24          8           0        4.739847    6.933928    0.410386
     25          6           0        2.394224    7.391243    0.177057
     26          7           0        7.066145    2.103049   -0.259707
     27          6           0        7.113998    3.445791   -0.226396
     28          6           0        8.567112    3.908448   -0.424759
     29          6           0        9.461981    2.650932   -0.249421
     30          6           0        8.341953    1.568525   -0.244873
     31          6           0        8.799918    4.521505   -1.813236
     32          6           0       10.368660    2.457681    1.033201
     33          6           0        9.772778    2.432312    2.454952
     34          7           0        6.223291   -0.649841   -0.030895
     35          6           0        7.576473   -0.860749   -0.154157
     36          6           0        7.881159   -2.293675   -0.117922
     37          6           0        6.619499   -2.899305   -0.072407
     38          6           0        5.638242   -1.861251   -0.055458
     39          6           0        9.241941   -2.812910   -0.406913
     40          6           0        5.933734   -4.179304   -0.002749
     41          8           0        6.404006   -5.316805   -0.029978
     42          6           0        4.388227   -3.769512    0.158062
     43          6           0        3.710234   -4.648774   -0.798010
     44          8           0        3.691617   -4.537233   -2.069666
     45          8           0        3.026342   -5.658680   -0.123500
     46          6           0        2.324020   -6.708674   -0.929084
     47          6           0       -2.438219   -3.572913   -0.950667
     48          6           0       -3.737269   -2.870752   -0.618755
     49          6           0       -5.041552   -3.064495   -0.899291
     50          6           0       -5.645180   -4.350998   -1.691201
     51          6           0       -6.087058   -2.012857   -0.423077
     52          6           0       -6.681860   -2.379918    1.007170
     53          6           0       -6.956225   -1.144612    1.896998
     54          6           0       -8.275596   -1.264692    2.678720
     55          6           0       -8.147962   -2.151306    3.924719
     56          6           0       -8.887059    0.102371    3.098993
     57          6           0      -10.055462    0.503016    2.097727
     58          6           0       -9.652648    1.731654    1.211199
     59          6           0       -9.963181    1.564922   -0.301899
     60          6           0       -8.791354    1.990231   -1.230116
     61          6           0      -11.250200    2.429184   -0.699648
     62          6           0      -12.649421    1.724220   -0.531030
     63          6           0      -13.515866    2.250613   -1.639148
     64          6           0      -15.031833    2.081947   -1.370810
     65          6           0      -15.781016    2.265468   -2.673415
     66          6           0      -15.749072    2.711199   -0.175430
     67          1           0        0.581190    1.895514    0.231542
     68          1           0        6.293313    5.355886   -0.038631
     69          1           0        9.574198   -0.259251   -0.354215
     70          1           0        1.487616   -2.651583   -0.665500
     71          1           0        0.065675   -0.639079    0.617910
     72          1           0       -1.111042   -0.228694   -1.196875
     73          1           0       -0.191030   -1.629084   -1.953140
     74          1           0        0.313788    0.052627   -2.178341
     75          1           0        1.009568   -1.955168    2.181826
     76          1           0        2.358906   -2.937003    1.989247
     77          1           0       -0.247238   -3.885709    2.360439
     78          1           0        0.894074   -4.802916    1.532932
     79          1           0        0.385425    5.597573    0.463825
     80          1           0        0.235415    3.955304    0.760478
     81          1           0        0.338001    4.531534   -0.965419
     82          1           0        2.575033    8.430704   -0.098327
     83          1           0        1.948881    7.395898    1.171815
     84          1           0        1.646737    7.063614   -0.544349
     85          1           0        8.818361    4.627347    0.354769
     86          1           0       10.031573    2.392930   -1.141908
     87          1           0        8.896222    3.614474   -2.409827
     88          1           0        9.703846    5.129102   -1.802771
     89          1           0        7.944431    5.078847   -2.196284
     90          1           0       11.016732    3.332693    0.978699
     91          1           0       11.046673    1.605734    0.975042
     92          1           0       10.086924    1.499313    2.921770
     93          1           0        8.689581    2.358637    2.352053
     94          1           0       10.139227    3.236339    3.093625
     95          1           0        9.762692   -2.236469   -1.171167
     96          1           0        9.215399   -3.826546   -0.809467
     97          1           0        9.854458   -2.968222    0.480717
     98          1           0        4.188320   -4.137359    1.165164
     99          1           0        3.057984   -7.447363   -1.251954
    100          1           0        1.896206   -6.276628   -1.834210
    101          1           0        1.557090   -7.305188   -0.433293
    102          1           0       -2.596028   -4.634485   -1.144487
    103          1           0       -2.366691   -3.065727   -1.913074
    104          1           0       -3.463135   -2.105036    0.106816
    105          1           0       -4.921945   -5.154696   -1.558768
    106          1           0       -5.796721   -4.174480   -2.756599
    107          1           0       -6.638994   -4.571116   -1.302684
    108          1           0       -6.966930   -1.997635   -1.066014
    109          1           0       -5.681149   -1.003659   -0.491600
    110          1           0       -5.976038   -3.070315    1.469533
    111          1           0       -7.583956   -2.983894    0.915057
    112          1           0       -7.005571   -0.231660    1.304123
    113          1           0       -6.160018   -1.160411    2.641059
    114          1           0       -8.945415   -1.791147    1.998751
    115          1           0       -7.995417   -1.624461    4.866683
    116          1           0       -7.237225   -2.741291    3.823829
    117          1           0       -9.012716   -2.812849    3.982491
    118          1           0       -8.063231    0.816505    3.079929
    119          1           0       -9.282783    0.087904    4.113808
    120          1           0      -10.955118    0.824124    2.623127
    121          1           0      -10.239616   -0.239120    1.320267
    122          1           0       -8.610438    2.023607    1.338364
    123          1           0      -10.222680    2.598027    1.548053
    124          1           0      -10.299670    0.536704   -0.435959
    125          1           0       -8.704334    1.370710   -2.122827
    126          1           0       -7.886071    1.895673   -0.630004
    127          1           0       -8.920035    3.038654   -1.497975
    128          1           0      -11.206876    2.864030   -1.698144
    129          1           0      -11.334589    3.276496   -0.018958
    130          1           0      -13.063477    1.845305    0.469214
    131          1           0      -12.633625    0.659056   -0.762829
    132          1           0      -13.204996    1.726670   -2.543100
    133          1           0      -13.342757    3.320032   -1.761273
    134          1           0      -15.050919    1.006759   -1.190737
    135          1           0      -15.137932    2.455284   -3.533456
    136          1           0      -16.487737    3.094752   -2.642075
    137          1           0      -16.458332    1.416434   -2.761212
    138          1           0      -15.058413    3.309639    0.419159
    139          1           0      -16.054404    1.938553    0.530407
    140          1           0      -16.608067    3.362289   -0.335081
 ---------------------------------------------------------------------

 SCF Done:  E(RwB97XD) =  -3007.85225588     A.U. after   20 cycles

 Excitation energies and oscillator strengths:

 Excited State   1:      Singlet-A      1.5971 eV  776.32 nm  f=0.3685  <S**2>=0.000
     245 -> 248       -0.19861
     246 -> 247        0.68062
     245 <- 248       -0.12363
 This state for optimization and/or second-order correction.
 Total Energy, E(TD-HF/TD-DFT) =  -3007.79356437
 Copying the excited state density for this state as the 1-particle RhoCI density.

 Excited State   2:      Singlet-A      2.0684 eV  599.43 nm  f=0.1421  <S**2>=0.000
     245 -> 247        0.65141
     246 -> 248        0.26157
     246 <- 248        0.10126

 Excited State   3:      Singlet-A      3.2052 eV  386.82 nm  f=0.0050  <S**2>=0.000
     244 -> 247        0.67131
     246 -> 248       -0.13763

 Excited State   4:      Singlet-A      3.4704 eV  357.26 nm  f=0.0018  <S**2>=0.000
     242 -> 247        0.56828
     242 -> 248       -0.15735
     242 -> 249        0.25588
     242 -> 250        0.23285

 Excited State   5:      Singlet-A      3.4889 eV  355.36 nm  f=0.1617  <S**2>=0.000
     239 -> 247        0.13190
     239 -> 249       -0.12061
     240 -> 247        0.12676
     240 -> 249       -0.13394
     241 -> 247        0.47538
     241 -> 249       -0.13512
     245 -> 247        0.12173
     246 -> 248       -0.37394

 The electronic state is 1-A.
 Alpha  occ. eigenvalues --  -46.96058 -19.32251 -19.29284 -19.25030 -19.24600
 Alpha  occ. eigenvalues --  -19.23311 -19.22624 -14.46599 -14.46574 -14.44467
 Alpha  occ. eigenvalues --  -14.44400 -10.43497 -10.42639 -10.39561 -10.37726
 Alpha  occ. eigenvalues --  -10.37176 -10.35614 -10.35345 -10.35080 -10.35007
 Alpha  occ. eigenvalues --  -10.34737 -10.34488 -10.34048 -10.33828 -10.33728
 Alpha  occ. eigenvalues --  -10.32870 -10.32617 -10.32580 -10.32514 -10.32392
 Alpha  occ. eigenvalues --  -10.32389 -10.32374 -10.32342 -10.31976 -10.31643
 Alpha  occ. eigenvalues --  -10.31506 -10.31485 -10.31441 -10.30955 -10.30934
 Alpha  occ. eigenvalues --  -10.30832 -10.30781 -10.30665 -10.30562 -10.30485
 Alpha  occ. eigenvalues --  -10.30454 -10.30119 -10.29876 -10.29810 -10.29696
 Alpha  occ. eigenvalues --  -10.29541 -10.29419 -10.29374 -10.29247 -10.29234
 Alpha  occ. eigenvalues --  -10.29223 -10.29140 -10.29080 -10.28898 -10.28733
 Alpha  occ. eigenvalues --  -10.28512 -10.28499 -10.28458 -10.28427 -10.28278
 Alpha  occ. eigenvalues --  -10.27627  -3.21819  -1.95412  -1.94956  -1.94757
 Alpha  occ. eigenvalues --   -1.22196  -1.15072  -1.12488  -1.11764  -1.11064
 Alpha  occ. eigenvalues --   -1.06305  -1.06042  -1.05143  -1.04565  -1.02480
 Alpha  occ. eigenvalues --   -0.94491  -0.92216  -0.91847  -0.91398  -0.90726
 Alpha  occ. eigenvalues --   -0.90485  -0.89793  -0.89359  -0.89107  -0.88783
 Alpha  occ. eigenvalues --   -0.87881  -0.87321  -0.86146  -0.85471  -0.85087
 Alpha  occ. eigenvalues --   -0.84626  -0.83925  -0.83270  -0.82435  -0.81749
 Alpha  occ. eigenvalues --   -0.81634  -0.80591  -0.79675  -0.78861  -0.77823
 Alpha  occ. eigenvalues --   -0.77704  -0.77631  -0.76802  -0.76624  -0.75920
 Alpha  occ. eigenvalues --   -0.75478  -0.74907  -0.73670  -0.73091  -0.71448
 Alpha  occ. eigenvalues --   -0.70730  -0.70216  -0.68992  -0.68654  -0.67967
 Alpha  occ. eigenvalues --   -0.67322  -0.67226  -0.66635  -0.66313  -0.66165
 Alpha  occ. eigenvalues --   -0.66117  -0.65145  -0.64344  -0.63217  -0.62852
 Alpha  occ. eigenvalues --   -0.61742  -0.61440  -0.60857  -0.60721  -0.59371
 Alpha  occ. eigenvalues --   -0.59246  -0.59067  -0.58343  -0.57879  -0.57326
 Alpha  occ. eigenvalues --   -0.57137  -0.56611  -0.56474  -0.56310  -0.55994
 Alpha  occ. eigenvalues --   -0.55562  -0.55420  -0.54877  -0.54410  -0.54168
 Alpha  occ. eigenvalues --   -0.54073  -0.53859  -0.53775  -0.53430  -0.53395
 Alpha  occ. eigenvalues --   -0.53079  -0.52966  -0.52835  -0.52520  -0.52448
 Alpha  occ. eigenvalues --   -0.52327  -0.52282  -0.52143  -0.51636  -0.51574
 Alpha  occ. eigenvalues --   -0.51392  -0.51186  -0.50975  -0.50894  -0.50851
 Alpha  occ. eigenvalues --   -0.50540  -0.50317  -0.49939  -0.49676  -0.49645
 Alpha  occ. eigenvalues --   -0.49373  -0.49288  -0.48805  -0.48470  -0.48255
 Alpha  occ. eigenvalues --   -0.48130  -0.47957  -0.47683  -0.47659  -0.47458
 Alpha  occ. eigenvalues --   -0.47351  -0.47206  -0.47052  -0.46957  -0.46791
 Alpha  occ. eigenvalues --   -0.46624  -0.46294  -0.46136  -0.46004  -0.45909
 Alpha  occ. eigenvalues --   -0.45793  -0.45516  -0.45347  -0.45130  -0.45003
 Alpha  occ. eigenvalues --   -0.44529  -0.44466  -0.44239  -0.43955  -0.43917
 Alpha  occ. eigenvalues --   -0.43701  -0.43284  -0.43229  -0.43040  -0.42948
 Alpha  occ. eigenvalues --   -0.42757  -0.42731  -0.42413  -0.42161  -0.42007
 Alpha  occ. eigenvalues --   -0.41741  -0.41519  -0.41287  -0.40943  -0.40845
 Alpha  occ. eigenvalues --   -0.40715  -0.40600  -0.40099  -0.39788  -0.39745
 Alpha  occ. eigenvalues --   -0.39467  -0.38970  -0.38627  -0.38415  -0.38306
 Alpha  occ. eigenvalues --   -0.38037  -0.36939  -0.36700  -0.36459  -0.36403
 Alpha  occ. eigenvalues --   -0.35224  -0.34899  -0.34446  -0.33473  -0.33017
 Alpha  occ. eigenvalues --   -0.32611  -0.32274  -0.32219  -0.31046  -0.25547
 Alpha  occ. eigenvalues --   -0.23106
 Alpha virt. eigenvalues --   -0.07396   0.00113   0.02142   0.04388   0.05746
 Alpha virt. eigenvalues --    0.07094   0.07312   0.07796   0.08430   0.09398
 Alpha virt. eigenvalues --    0.10776   0.11318   0.11787   0.12057   0.12258

 Mulliken charges:
               1
     1  Mg   0.950433
     2  C    0.035637
     3  C   -0.080443
     4  C   -0.045980
     5  C   -0.065025
     6  N   -0.359188
     7  C    0.026757
     8  C   -0.083578
     9  C   -0.091416
    10  C    0.002581
    11  C    0.047261
    12  C    0.065705
    13  C    0.049386
    14  C    0.124812
    15  O   -0.230666
    16  O   -0.319707
    17  N   -0.487914
    18  C    0.190023
    19  C   -0.151287
    20  C   -0.076585
    21  C    0.151128
    22  C    0.046610
    23  C    0.027467
    24  O   -0.251698
    25  C   -0.022601
    26  N   -0.311170
    27  C    0.037129
    28  C   -0.070060
    29  C   -0.044837
    30  C    0.011158
    31  C    0.030598
    32  C   -0.036313
    33  C   -0.046911
    34  N   -0.445750
    35  C    0.095594
    36  C   -0.158048
    37  C   -0.015302
    38  C    0.129119
    39  C    0.049479
    40  C    0.125514
    41  O   -0.203265
    42  C   -0.138895
    43  C    0.292776
    44  O   -0.302785
    45  O   -0.387896
    46  C    0.150926
    47  C    0.260313
    48  C   -0.192272
    49  C   -0.191948
    50  C    0.011523
    51  C    0.016774
    52  C   -0.039432
    53  C    0.029109
    54  C   -0.221706
    55  C    0.004984
    56  C    0.028611
    57  C   -0.017339
    58  C    0.003176
    59  C   -0.201503
    60  C    0.017036
    61  C   -0.016871
    62  C   -0.022908
    63  C   -0.045277
    64  C   -0.189052
    65  C    0.007276
    66  C    0.002700
    67  H   -0.006026
    68  H    0.035177
    69  H   -0.003509
    70  H    0.060674
    71  H    0.029996
    72  H    0.042848
    73  H    0.049903
    74  H    0.042730
    75  H    0.023498
    76  H    0.040363
    77  H    0.046579
    78  H    0.051013
    79  H    0.036501
    80  H    0.051229
    81  H    0.062468
    82  H    0.048158
    83  H    0.066049
    84  H    0.046719
    85  H    0.034546
    86  H    0.038791
    87  H    0.028732
    88  H    0.049590
    89  H    0.048147
    90  H    0.028666
    91  H    0.034799
    92  H    0.032487
    93  H    0.045815
    94  H    0.047953
    95  H    0.055726
    96  H    0.051390
    97  H    0.049286
    98  H    0.078668
    99  H    0.045098
   100  H    0.065932
   101  H    0.053528
   102  H    0.058662
   103  H    0.067571
   104  H    0.033253
   105  H    0.038687
   106  H    0.052227
   107  H    0.040549
   108  H    0.022846
   109  H    0.036573
   110  H    0.026266
   111  H    0.018258
   112  H    0.021646
   113  H    0.023486
   114  H    0.016113
   115  H    0.030071
   116  H    0.010741
   117  H    0.036436
   118  H    0.022053
   119  H    0.021838
   120  H    0.032810
   121  H    0.022560
   122  H    0.002985
   123  H    0.010255
   124  H    0.015721
   125  H    0.038645
   126  H    0.016876
   127  H    0.033974
   128  H    0.023141
   129  H    0.018233
   130  H    0.021093
   131  H    0.013114
   132  H    0.029810
   133  H    0.015618
   134  H    0.011274
   135  H    0.029094
   136  H    0.013185
   137  H    0.026271
   138  H    0.016048
   139  H    0.027706
   140  H    0.034821
 Sum of Mulliken charges =  -0.00000

 Dipole moment (field-independent basis, Debye):
    X=             -4.6930    Y=              1.8307    Z=              2.8033  Tot=              5.7649
 Quadrupole moment (field-independent basis, Debye-Ang):
   XX=           -365.0978   YY=           -434.0485   ZZ=           -405.5031
   XY=             20.2921   XZ=              8.5477   YZ=            -10.2347

 Normal termination of Gaussian 16 at Thu May  5 06:17:45 2022.
