 Gaussian 16, Revision A.03,
 Gaussian 16:  ES64L-G16RevA.03 25-Dec-2016

 --------------------
 #p ZINDO=(nstates=5)
 --------------------

 -----------------------------
 step_651_chromophore_24 ZINDO
 -----------------------------
 Symbolic Z-matrix:
 Charge =  0 Multiplicity = 1

                         Standard orientation:
 ---------------------------------------------------------------------
 Center     Atomic      Atomic             Coordinates (Angstroms)
 Number     Number       Type             X           Y           Z
 ---------------------------------------------------------------------
      1         12           0        5.080459    1.046103    0.085899
      2          6           0        4.267232   -2.272081   -0.042106
      3          6           0        1.641841    1.770487    0.001848
      4          6           0        5.995495    4.310209   -0.145750
      5          6           0        8.566827    0.153699   -0.271244
      6          7           0        3.129731   -0.134207   -0.148059
      7          6           0        3.080163   -1.532327   -0.064646
      8          6           0        1.655509   -1.953631    0.155185
      9          6           0        0.771682   -0.735688   -0.206599
     10          6           0        1.850675    0.375915   -0.111163
     11          6           0       -0.145928   -0.647370   -1.482399
     12          6           0        1.422622   -2.689024    1.490298
     13          6           0        0.407715   -3.828515    1.490178
     14          6           0       -0.422543   -4.037533    0.191590
     15          8           0       -0.149289   -4.877266   -0.599799
     16          8           0       -1.458722   -3.233814    0.071487
     17          7           0        3.977351    2.832107    0.011347
     18          6           0        2.563763    2.908693   -0.007745
     19          6           0        2.155493    4.284224   -0.018195
     20          6           0        3.416378    5.073546    0.048720
     21          6           0        4.553537    4.094092   -0.034294
     22          6           0        0.705616    4.639530    0.054371
     23          6           0        3.607516    6.507034    0.199524
     24          8           0        4.739847    6.933928    0.410386
     25          6           0        2.394224    7.391243    0.177057
     26          7           0        7.066145    2.103049   -0.259707
     27          6           0        7.113998    3.445791   -0.226396
     28          6           0        8.567112    3.908448   -0.424759
     29          6           0        9.461981    2.650932   -0.249421
     30          6           0        8.341953    1.568525   -0.244873
     31          6           0        8.799918    4.521505   -1.813236
     32          6           0       10.368660    2.457681    1.033201
     33          6           0        9.772778    2.432312    2.454952
     34          7           0        6.223291   -0.649841   -0.030895
     35          6           0        7.576473   -0.860749   -0.154157
     36          6           0        7.881159   -2.293675   -0.117922
     37          6           0        6.619499   -2.899305   -0.072407
     38          6           0        5.638242   -1.861251   -0.055458
     39          6           0        9.241941   -2.812910   -0.406913
     40          6           0        5.933734   -4.179304   -0.002749
     41          8           0        6.404006   -5.316805   -0.029978
     42          6           0        4.388227   -3.769512    0.158062
     43          6           0        3.710234   -4.648774   -0.798010
     44          8           0        3.691617   -4.537233   -2.069666
     45          8           0        3.026342   -5.658680   -0.123500
     46          6           0        2.324020   -6.708674   -0.929084
     47          6           0       -2.438219   -3.572913   -0.950667
     48          6           0       -3.737269   -2.870752   -0.618755
     49          6           0       -5.041552   -3.064495   -0.899291
     50          6           0       -5.645180   -4.350998   -1.691201
     51          6           0       -6.087058   -2.012857   -0.423077
     52          6           0       -6.681860   -2.379918    1.007170
     53          6           0       -6.956225   -1.144612    1.896998
     54          6           0       -8.275596   -1.264692    2.678720
     55          6           0       -8.147962   -2.151306    3.924719
     56          6           0       -8.887059    0.102371    3.098993
     57          6           0      -10.055462    0.503016    2.097727
     58          6           0       -9.652648    1.731654    1.211199
     59          6           0       -9.963181    1.564922   -0.301899
     60          6           0       -8.791354    1.990231   -1.230116
     61          6           0      -11.250200    2.429184   -0.699648
     62          6           0      -12.649421    1.724220   -0.531030
     63          6           0      -13.515866    2.250613   -1.639148
     64          6           0      -15.031833    2.081947   -1.370810
     65          6           0      -15.781016    2.265468   -2.673415
     66          6           0      -15.749072    2.711199   -0.175430
     67          1           0        0.581190    1.895514    0.231542
     68          1           0        6.293313    5.355886   -0.038631
     69          1           0        9.574198   -0.259251   -0.354215
     70          1           0        1.487616   -2.651583   -0.665500
     71          1           0        0.065675   -0.639079    0.617910
     72          1           0       -1.111042   -0.228694   -1.196875
     73          1           0       -0.191030   -1.629084   -1.953140
     74          1           0        0.313788    0.052627   -2.178341
     75          1           0        1.009568   -1.955168    2.181826
     76          1           0        2.358906   -2.937003    1.989247
     77          1           0       -0.247238   -3.885709    2.360439
     78          1           0        0.894074   -4.802916    1.532932
     79          1           0        0.385425    5.597573    0.463825
     80          1           0        0.235415    3.955304    0.760478
     81          1           0        0.338001    4.531534   -0.965419
     82          1           0        2.575033    8.430704   -0.098327
     83          1           0        1.948881    7.395898    1.171815
     84          1           0        1.646737    7.063614   -0.544349
     85          1           0        8.818361    4.627347    0.354769
     86          1           0       10.031573    2.392930   -1.141908
     87          1           0        8.896222    3.614474   -2.409827
     88          1           0        9.703846    5.129102   -1.802771
     89          1           0        7.944431    5.078847   -2.196284
     90          1           0       11.016732    3.332693    0.978699
     91          1           0       11.046673    1.605734    0.975042
     92          1           0       10.086924    1.499313    2.921770
     93          1           0        8.689581    2.358637    2.352053
     94          1           0       10.139227    3.236339    3.093625
     95          1           0        9.762692   -2.236469   -1.171167
     96          1           0        9.215399   -3.826546   -0.809467
     97          1           0        9.854458   -2.968222    0.480717
     98          1           0        4.188320   -4.137359    1.165164
     99          1           0        3.057984   -7.447363   -1.251954
    100          1           0        1.896206   -6.276628   -1.834210
    101          1           0        1.557090   -7.305188   -0.433293
    102          1           0       -2.596028   -4.634485   -1.144487
    103          1           0       -2.366691   -3.065727   -1.913074
    104          1           0       -3.463135   -2.105036    0.106816
    105          1           0       -4.921945   -5.154696   -1.558768
    106          1           0       -5.796721   -4.174480   -2.756599
    107          1           0       -6.638994   -4.571116   -1.302684
    108          1           0       -6.966930   -1.997635   -1.066014
    109          1           0       -5.681149   -1.003659   -0.491600
    110          1           0       -5.976038   -3.070315    1.469533
    111          1           0       -7.583956   -2.983894    0.915057
    112          1           0       -7.005571   -0.231660    1.304123
    113          1           0       -6.160018   -1.160411    2.641059
    114          1           0       -8.945415   -1.791147    1.998751
    115          1           0       -7.995417   -1.624461    4.866683
    116          1           0       -7.237225   -2.741291    3.823829
    117          1           0       -9.012716   -2.812849    3.982491
    118          1           0       -8.063231    0.816505    3.079929
    119          1           0       -9.282783    0.087904    4.113808
    120          1           0      -10.955118    0.824124    2.623127
    121          1           0      -10.239616   -0.239120    1.320267
    122          1           0       -8.610438    2.023607    1.338364
    123          1           0      -10.222680    2.598027    1.548053
    124          1           0      -10.299670    0.536704   -0.435959
    125          1           0       -8.704334    1.370710   -2.122827
    126          1           0       -7.886071    1.895673   -0.630004
    127          1           0       -8.920035    3.038654   -1.497975
    128          1           0      -11.206876    2.864030   -1.698144
    129          1           0      -11.334589    3.276496   -0.018958
    130          1           0      -13.063477    1.845305    0.469214
    131          1           0      -12.633625    0.659056   -0.762829
    132          1           0      -13.204996    1.726670   -2.543100
    133          1           0      -13.342757    3.320032   -1.761273
    134          1           0      -15.050919    1.006759   -1.190737
    135          1           0      -15.137932    2.455284   -3.533456
    136          1           0      -16.487737    3.094752   -2.642075
    137          1           0      -16.458332    1.416434   -2.761212
    138          1           0      -15.058413    3.309639    0.419159
    139          1           0      -16.054404    1.938553    0.530407
    140          1           0      -16.608067    3.362289   -0.335081
 ---------------------------------------------------------------------

 SCF Done:  E(RZINDO/S) =  -473.904875861     A.U. after   20 cycles

 Excitation energies and oscillator strengths:

 Excited State   1:      Singlet-A      1.2142 eV 1021.15 nm  f=0.6146  <S**2>=0.000
     175 ->178         0.19434
     176 ->177         0.66146
 This state for optimization and/or second-order correction.
 Total Energy, E(CIS/TDA) =  -473.860256353
 Copying the excited state density for this state as the 1-particle RhoCI density.

 Excited State   2:      Singlet-A      1.8631 eV  665.46 nm  f=0.0893  <S**2>=0.000
     175 ->177         0.57419
     176 ->178        -0.38277

 Excited State   3:      Singlet-A      2.9459 eV  420.87 nm  f=0.0755  <S**2>=0.000
     168 ->177         0.34984
     168 ->178        -0.13418
     168 ->179        -0.42370
     168 ->180         0.18336
     168 ->186        -0.19944
     168 ->197         0.10784
     176 ->178         0.13944

 Excited State   4:      Singlet-A      2.9621 eV  418.57 nm  f=0.0600  <S**2>=0.000
     169 ->177         0.12240
     169 ->180         0.12312
     170 ->177         0.30663
     170 ->178        -0.11760
     170 ->179         0.24705
     170 ->180         0.34885
     170 ->182        -0.12304
     170 ->186         0.15469
     170 ->187         0.18161
     170 ->201        -0.12665
     176 ->178         0.13288

 Excited State   5:      Singlet-A      2.9834 eV  415.57 nm  f=0.7505  <S**2>=0.000
     174 ->177         0.12412
     175 ->177         0.29724
     176 ->178         0.49615
     176 ->179         0.28252

 The electronic state is 1-A.
 Alpha  occ. eigenvalues --   -1.83860  -1.79481  -1.77614  -1.75270  -1.68927
 Alpha  occ. eigenvalues --   -1.68661  -1.65002  -1.61362  -1.57539  -1.56904
 Alpha  occ. eigenvalues --   -1.54469  -1.51969  -1.47425  -1.47021  -1.45379
 Alpha  occ. eigenvalues --   -1.43971  -1.40783  -1.38762  -1.38580  -1.37934
 Alpha  occ. eigenvalues --   -1.35740  -1.35113  -1.33072  -1.29887  -1.28720
 Alpha  occ. eigenvalues --   -1.28020  -1.23957  -1.22185  -1.20959  -1.18071
 Alpha  occ. eigenvalues --   -1.17567  -1.16889  -1.14641  -1.13573  -1.13204
 Alpha  occ. eigenvalues --   -1.12582  -1.09631  -1.08984  -1.04955  -1.03750
 Alpha  occ. eigenvalues --   -1.02991  -1.01644  -0.99282  -0.97950  -0.96868
 Alpha  occ. eigenvalues --   -0.96119  -0.94783  -0.93816  -0.93145  -0.92849
 Alpha  occ. eigenvalues --   -0.90838  -0.89709  -0.89179  -0.88044  -0.86941
 Alpha  occ. eigenvalues --   -0.86569  -0.85567  -0.83707  -0.82402  -0.81090
 Alpha  occ. eigenvalues --   -0.79522  -0.78349  -0.77292  -0.76757  -0.75878
 Alpha  occ. eigenvalues --   -0.75630  -0.75398  -0.74881  -0.74610  -0.73318
 Alpha  occ. eigenvalues --   -0.72571  -0.72378  -0.71377  -0.70522  -0.70468
 Alpha  occ. eigenvalues --   -0.70189  -0.69103  -0.68557  -0.67997  -0.67714
 Alpha  occ. eigenvalues --   -0.67368  -0.66529  -0.65994  -0.65895  -0.65424
 Alpha  occ. eigenvalues --   -0.65374  -0.64633  -0.64281  -0.63974  -0.63702
 Alpha  occ. eigenvalues --   -0.63301  -0.62966  -0.62308  -0.62026  -0.61601
 Alpha  occ. eigenvalues --   -0.61415  -0.61125  -0.60834  -0.60222  -0.60195
 Alpha  occ. eigenvalues --   -0.59615  -0.59272  -0.59196  -0.58253  -0.58033
 Alpha  occ. eigenvalues --   -0.57794  -0.57720  -0.56981  -0.56728  -0.56623
 Alpha  occ. eigenvalues --   -0.56040  -0.55642  -0.55232  -0.55117  -0.54738
 Alpha  occ. eigenvalues --   -0.54251  -0.54001  -0.53588  -0.53564  -0.52569
 Alpha  occ. eigenvalues --   -0.52513  -0.52260  -0.52062  -0.51493  -0.51190
 Alpha  occ. eigenvalues --   -0.51007  -0.50595  -0.50537  -0.50279  -0.50171
 Alpha  occ. eigenvalues --   -0.49820  -0.49608  -0.49442  -0.49215  -0.48875
 Alpha  occ. eigenvalues --   -0.48678  -0.48497  -0.48406  -0.48072  -0.47912
 Alpha  occ. eigenvalues --   -0.47556  -0.47440  -0.47223  -0.46582  -0.46444
 Alpha  occ. eigenvalues --   -0.46252  -0.46009  -0.45758  -0.45591  -0.45581
 Alpha  occ. eigenvalues --   -0.45163  -0.45032  -0.44529  -0.44481  -0.44157
 Alpha  occ. eigenvalues --   -0.44074  -0.43844  -0.43083  -0.42603  -0.42408
 Alpha  occ. eigenvalues --   -0.42201  -0.40620  -0.40389  -0.38466  -0.38301
 Alpha  occ. eigenvalues --   -0.37672  -0.37464  -0.35593  -0.34145  -0.34078
 Alpha  occ. eigenvalues --   -0.33782  -0.32370  -0.32145  -0.31346  -0.26377
 Alpha  occ. eigenvalues --   -0.21873
 Alpha virt. eigenvalues --   -0.08956  -0.02076  -0.00842   0.01344   0.02277
 Alpha virt. eigenvalues --    0.02410   0.02739   0.02878   0.04593   0.04897
 Alpha virt. eigenvalues --    0.06248   0.06604   0.07232   0.07810   0.07871

 Mulliken charges:
               1
     1  Mg   0.432468
     2  C   -0.054060
     3  C   -0.084498
     4  C   -0.060727
     5  C   -0.075415
     6  N   -0.308253
     7  C    0.147100
     8  C    0.023186
     9  C    0.005345
    10  C    0.111660
    11  C   -0.044964
    12  C   -0.008478
    13  C   -0.001378
    14  C    0.476965
    15  O   -0.518454
    16  O   -0.255838
    17  N   -0.324027
    18  C    0.084920
    19  C   -0.002453
    20  C   -0.065269
    21  C    0.130539
    22  C   -0.038651
    23  C    0.332566
    24  O   -0.546912
    25  C   -0.030730
    26  N   -0.273181
    27  C    0.131455
    28  C    0.020596
    29  C    0.004740
    30  C    0.133162
    31  C   -0.049581
    32  C   -0.028812
    33  C   -0.054356
    34  N   -0.314633
    35  C    0.109010
    36  C    0.047242
    37  C   -0.041654
    38  C    0.133614
    39  C   -0.033654
    40  C    0.333569
    41  O   -0.506405
    42  C    0.060945
    43  C    0.489659
    44  O   -0.544186
    45  O   -0.274181
    46  C    0.074438
    47  C    0.101465
    48  C   -0.076694
    49  C   -0.036288
    50  C   -0.049427
    51  C   -0.025201
    52  C   -0.036375
    53  C   -0.031194
    54  C   -0.015089
    55  C   -0.058258
    56  C   -0.036099
    57  C   -0.048089
    58  C   -0.043457
    59  C   -0.019893
    60  C   -0.056065
    61  C   -0.048983
    62  C   -0.042067
    63  C   -0.023856
    64  C   -0.011746
    65  C   -0.059434
    66  C   -0.049526
    67  H    0.021865
    68  H    0.045455
    69  H    0.032906
    70  H    0.037665
    71  H    0.018730
    72  H    0.026441
    73  H    0.033614
    74  H    0.024869
    75  H    0.015352
    76  H    0.031130
    77  H    0.036650
    78  H    0.033703
    79  H    0.023112
    80  H    0.024558
    81  H    0.035496
    82  H    0.030720
    83  H    0.040846
    84  H    0.025152
    85  H    0.027517
    86  H    0.036444
    87  H    0.021643
    88  H    0.024685
    89  H    0.029809
    90  H    0.007866
    91  H    0.023309
    92  H    0.013943
    93  H    0.027857
    94  H    0.030088
    95  H    0.032119
    96  H    0.026340
    97  H    0.036375
    98  H    0.055951
    99  H    0.034492
   100  H    0.053172
   101  H    0.041409
   102  H    0.059505
   103  H    0.059649
   104  H    0.023612
   105  H    0.027411
   106  H    0.029651
   107  H    0.028217
   108  H    0.015605
   109  H    0.026246
   110  H    0.018063
   111  H    0.020853
   112  H    0.024383
   113  H    0.021819
   114  H    0.019249
   115  H    0.020744
   116  H    0.009773
   117  H    0.019068
   118  H    0.022504
   119  H    0.020402
   120  H    0.025068
   121  H    0.032268
   122  H    0.019001
   123  H    0.013739
   124  H    0.024911
   125  H    0.022050
   126  H    0.014712
   127  H    0.023270
   128  H    0.022560
   129  H    0.015002
   130  H    0.025676
   131  H    0.014846
   132  H    0.023121
   133  H    0.012515
   134  H    0.006692
   135  H    0.023152
   136  H    0.009591
   137  H    0.016226
   138  H    0.010439
   139  H    0.014901
   140  H    0.026072
 Sum of Mulliken charges =  -0.00000

 Dipole moment (field-independent basis, Debye):
    X=             -4.2946    Y=              1.1244    Z=              4.3266  Tot=              6.1990
 N-N= 4.338332322250D+03 E-N= 0.000000000000D+00  KE=-9.350798392250D+03
 Leave Link  601 at Thu May  5 06:38:34 2022, MaxMem=  6710886400 cpu:               1.1 elap:               0.1
 (Enter /sw/apps/gaussian-16.0/g16/l9999.exe)
 1\1\GINC-BP1-COMPUTE164\SP\RZINDO CIS\STO-3G\C55H74Mg1N4O6\OF15641\05-
 May-2022\0\\#p ZINDO=(nstates=5)\\step_651_chromophore_24 ZINDO\\0,1\M
 g,0,0.067,43.882,25.395\C,0,2.223,43.211,27.962\C,0,-2.585,43.283,27.6
 23\C,0,-1.981,44.213,22.704\C,0,2.886,44.038,23.135\N,0,-0.167,43.167,
 27.56\C,0,0.917,43.07,28.443\C,0,0.391,42.983,29.847\C,0,-1.11,42.622,
 29.737\C,0,-1.346,43.04,28.261\C,0,-1.722,41.225,30.126\C,0,0.824,44.1
 57,30.748\C,0,1.12,43.84,32.211\C,0,0.798,42.4,32.703\O,0,1.64,41.573,

 Normal termination of Gaussian 16 at Thu May  5 06:38:34 2022.
