 Gaussian 16, Revision A.03,
 Gaussian 16:  ES64L-G16RevA.03 25-Dec-2016

 ------------------------------
 #p blyp/Def2SVP td=(nstates=5)
 ------------------------------

 --------------------------------------------------
 step_951_chromophore_25 TDDFT with blyp functional
 --------------------------------------------------
 Symbolic Z-matrix:
 Charge =  0 Multiplicity = 1

                         Standard orientation:
 ---------------------------------------------------------------------
 Center     Atomic      Atomic             Coordinates (Angstroms)
 Number     Number       Type             X           Y           Z
 ---------------------------------------------------------------------
      1         12           0        6.045258    0.353327    0.193836
      2          6           0        3.447099   -2.211577    0.073528
      3          6           0        3.628107    2.611764   -0.202107
      4          6           0        8.596180    2.646274   -0.101279
      5          6           0        8.309157   -2.214238    0.402178
      6          7           0        3.886537    0.169192   -0.018365
      7          6           0        2.955330   -0.910178   -0.013614
      8          6           0        1.467296   -0.500791   -0.081926
      9          6           0        1.636702    1.066926   -0.144864
     10          6           0        3.150086    1.294543   -0.092996
     11          6           0        0.957928    1.654833   -1.417704
     12          6           0        0.653724   -1.074560    1.167509
     13          6           0       -0.505372   -1.954693    0.748439
     14          6           0       -1.829394   -1.629594    1.377822
     15          8           0       -2.246890   -1.957673    2.486817
     16          8           0       -2.513556   -0.734583    0.558775
     17          7           0        6.121343    2.364690   -0.023839
     18          6           0        5.008751    3.158931   -0.230874
     19          6           0        5.340382    4.540198   -0.367062
     20          6           0        6.798494    4.474400   -0.514912
     21          6           0        7.266224    3.151415   -0.230981
     22          6           0        4.410103    5.712466   -0.368675
     23          6           0        7.760743    5.621010   -0.817683
     24          8           0        9.009609    5.476105   -0.876981
     25          6           0        7.135216    7.017111   -1.098748
     26          7           0        8.080692    0.224033    0.041864
     27          6           0        8.980910    1.322737    0.079064
     28          6           0       10.424796    0.896614   -0.032590
     29          6           0       10.293994   -0.634829    0.473328
     30          6           0        8.793531   -0.905004    0.334743
     31          6           0       11.083529    1.086338   -1.445735
     32          6           0       10.784590   -1.037416    1.938549
     33          6           0        9.852168   -0.858356    3.195971
     34          7           0        5.965057   -1.738326    0.217822
     35          6           0        6.979868   -2.689511    0.291006
     36          6           0        6.475614   -3.990742    0.416706
     37          6           0        5.092374   -3.886640    0.216589
     38          6           0        4.844367   -2.481489    0.189148
     39          6           0        7.223616   -5.283304    0.355026
     40          6           0        3.783814   -4.614744    0.092914
     41          8           0        3.611869   -5.798055    0.057818
     42          6           0        2.644896   -3.585887    0.090223
     43          6           0        1.777892   -3.811240   -1.137498
     44          8           0        2.087402   -3.642062   -2.287959
     45          8           0        0.546511   -4.300967   -0.745724
     46          6           0       -0.223859   -4.643646   -1.926006
     47          6           0       -3.831842   -0.312989    1.052978
     48          6           0       -4.730925   -0.001740   -0.094922
     49          6           0       -5.870187    0.725329   -0.071655
     50          6           0       -6.641174    1.182212    1.121469
     51          6           0       -6.594353    1.067073   -1.343864
     52          6           0       -7.703496    0.150785   -1.762241
     53          6           0       -9.089691    0.878453   -2.134662
     54          6           0       -9.923839   -0.003462   -3.098694
     55          6           0       -9.370211    0.194419   -4.540323
     56          6           0      -11.478761    0.208811   -2.987174
     57          6           0      -12.214759   -0.873812   -2.186012
     58          6           0      -13.568791   -0.332280   -1.690393
     59          6           0      -13.946311   -0.315018   -0.166089
     60          6           0      -15.366286   -0.580491    0.042130
     61          6           0      -13.597813    1.077073    0.528529
     62          6           0      -12.212528    1.049014    1.197851
     63          6           0      -12.248550    0.695964    2.680953
     64          6           0      -11.495158    1.754118    3.562675
     65          6           0      -10.455234    1.073487    4.434249
     66          6           0      -12.373034    2.682488    4.377898
     67          1           0        2.800406    3.323369   -0.214397
     68          1           0        9.396402    3.380230   -0.210303
     69          1           0        8.942599   -2.987652    0.841828
     70          1           0        1.051192   -0.905041   -1.005136
     71          1           0        1.173098    1.555758    0.712581
     72          1           0        0.560165    0.901215   -2.097891
     73          1           0        1.735630    2.221798   -1.930098
     74          1           0        0.112589    2.234513   -1.045658
     75          1           0        0.318445   -0.238803    1.780869
     76          1           0        1.365822   -1.617671    1.786777
     77          1           0       -0.228148   -2.962109    1.059476
     78          1           0       -0.601502   -1.901218   -0.335991
     79          1           0        4.649526    6.212332   -1.306963
     80          1           0        4.577467    6.371604    0.483725
     81          1           0        3.361444    5.429238   -0.458227
     82          1           0        6.661650    7.085977   -2.078351
     83          1           0        8.005758    7.672998   -1.117295
     84          1           0        6.500170    7.475866   -0.341388
     85          1           0       11.133353    1.335401    0.670800
     86          1           0       10.738036   -1.283047   -0.282276
     87          1           0       11.868437    1.834094   -1.328427
     88          1           0       10.337930    1.538392   -2.099110
     89          1           0       11.470808    0.186876   -1.923240
     90          1           0       11.526475   -0.253829    2.090062
     91          1           0       11.306756   -1.991113    1.860917
     92          1           0       10.373824   -0.164256    3.856423
     93          1           0        9.707644   -1.854996    3.612883
     94          1           0        8.907394   -0.459921    2.826673
     95          1           0        8.158234   -5.266691    0.915407
     96          1           0        7.372592   -5.489033   -0.705395
     97          1           0        6.572543   -6.087335    0.697755
     98          1           0        2.005126   -3.621626    0.972489
     99          1           0       -0.186461   -3.874853   -2.698505
    100          1           0       -1.233384   -4.794678   -1.542853
    101          1           0        0.019290   -5.632031   -2.315800
    102          1           0       -3.867162    0.483929    1.795915
    103          1           0       -4.387001   -1.094816    1.571062
    104          1           0       -4.209930   -0.239271   -1.023187
    105          1           0       -7.675731    0.838749    1.131144
    106          1           0       -6.700671    2.270472    1.141837
    107          1           0       -6.143054    0.748112    1.989085
    108          1           0       -5.895662    1.129607   -2.177836
    109          1           0       -7.069380    2.034589   -1.179756
    110          1           0       -7.977375   -0.500170   -0.932815
    111          1           0       -7.429605   -0.564214   -2.537891
    112          1           0       -8.832122    1.847972   -2.560975
    113          1           0       -9.562037    1.053471   -1.167893
    114          1           0       -9.802896   -1.058088   -2.846953
    115          1           0       -8.523877    0.880287   -4.577340
    116          1           0      -10.143225    0.473831   -5.256247
    117          1           0       -9.018996   -0.731498   -4.996070
    118          1           0      -11.837427   -0.000815   -3.994977
    119          1           0      -11.657371    1.234450   -2.665298
    120          1           0      -11.564651   -1.097211   -1.339144
    121          1           0      -12.324758   -1.698715   -2.889438
    122          1           0      -14.276124   -0.951742   -2.241508
    123          1           0      -13.686644    0.691133   -2.047254
    124          1           0      -13.388192   -1.142791    0.271050
    125          1           0      -16.001997   -0.080756   -0.688156
    126          1           0      -15.709039   -0.275370    1.030850
    127          1           0      -15.648566   -1.626894   -0.071660
    128          1           0      -14.346354    1.531856    1.177464
    129          1           0      -13.381346    1.785746   -0.271054
    130          1           0      -11.751539    2.033259    1.110474
    131          1           0      -11.563757    0.487030    0.527216
    132          1           0      -11.888087   -0.311142    2.889789
    133          1           0      -13.314449    0.729191    2.906767
    134          1           0      -10.986533    2.436244    2.881264
    135          1           0       -9.753122    0.562299    3.775127
    136          1           0      -10.916605    0.383743    5.140277
    137          1           0       -9.924380    1.743245    5.111190
    138          1           0      -13.439048    2.461035    4.343742
    139          1           0      -12.382363    3.659359    3.894268
    140          1           0      -12.073777    2.841665    5.414050
 ---------------------------------------------------------------------

 SCF Done:  E(RB-LYP) =  -3007.39271969     A.U. after   20 cycles

 Excitation energies and oscillator strengths:

 Excited State   1:      Singlet-A      1.7568 eV  705.73 nm  f=0.2827  <S**2>=0.000
     245 -> 248        0.16091
     246 -> 247        0.69071
     246 <- 247       -0.16401
 This state for optimization and/or second-order correction.
 Total Energy, E(TD-HF/TD-DFT) =  -3007.32815787
 Copying the excited state density for this state as the 1-particle RhoCI density.

 Excited State   2:      Singlet-A      1.8506 eV  669.96 nm  f=0.0183  <S**2>=0.000
     244 -> 247        0.68769
     245 -> 247       -0.11865
     246 -> 247        0.10025

 Excited State   3:      Singlet-A      1.9980 eV  620.55 nm  f=0.1150  <S**2>=0.000
     244 -> 247        0.12516
     245 -> 247        0.63991
     246 -> 248       -0.19589

 Excited State   4:      Singlet-A      2.0708 eV  598.72 nm  f=0.0001  <S**2>=0.000
     242 -> 247        0.68796
     243 -> 247        0.16205

 Excited State   5:      Singlet-A      2.0779 eV  596.67 nm  f=0.0019  <S**2>=0.000
     242 -> 247       -0.16338
     243 -> 247        0.68182

 The electronic state is 1-A.
 Alpha  occ. eigenvalues --  -46.25929 -18.83013 -18.82613 -18.77838 -18.77181
 Alpha  occ. eigenvalues --  -18.76547 -18.75843 -14.03710 -14.03266 -14.00991
 Alpha  occ. eigenvalues --  -14.00784 -10.04635 -10.04313 -10.00590 -10.00216
 Alpha  occ. eigenvalues --   -9.97645  -9.97601  -9.96987  -9.96543  -9.96477
 Alpha  occ. eigenvalues --   -9.96384  -9.96115  -9.95672  -9.95239  -9.95162
 Alpha  occ. eigenvalues --   -9.94906  -9.94712  -9.94303  -9.94111  -9.94084
 Alpha  occ. eigenvalues --   -9.94079  -9.94057  -9.93719  -9.93467  -9.93318
 Alpha  occ. eigenvalues --   -9.93247  -9.93217  -9.93043  -9.92709  -9.92590
 Alpha  occ. eigenvalues --   -9.92512  -9.92502  -9.92498  -9.92370  -9.92251
 Alpha  occ. eigenvalues --   -9.92231  -9.92156  -9.92122  -9.91906  -9.91876
 Alpha  occ. eigenvalues --   -9.91776  -9.91776  -9.91740  -9.91369  -9.91360
 Alpha  occ. eigenvalues --   -9.91339  -9.91311  -9.91102  -9.91012  -9.90975
 Alpha  occ. eigenvalues --   -9.90948  -9.90885  -9.90864  -9.90738  -9.90582
 Alpha  occ. eigenvalues --   -9.90218  -2.90806  -1.71230  -1.70689  -1.70519
 Alpha  occ. eigenvalues --   -0.99326  -0.97472  -0.93521  -0.91334  -0.89745
 Alpha  occ. eigenvalues --   -0.89660  -0.86451  -0.85329  -0.84925  -0.84013
 Alpha  occ. eigenvalues --   -0.75096  -0.74037  -0.73345  -0.73198  -0.72121
 Alpha  occ. eigenvalues --   -0.71639  -0.71103  -0.70989  -0.70891  -0.70376
 Alpha  occ. eigenvalues --   -0.69992  -0.69367  -0.68407  -0.67746  -0.67191
 Alpha  occ. eigenvalues --   -0.66774  -0.65972  -0.65410  -0.64926  -0.64495
 Alpha  occ. eigenvalues --   -0.63853  -0.62498  -0.62326  -0.61826  -0.60968
 Alpha  occ. eigenvalues --   -0.60410  -0.60348  -0.59965  -0.59452  -0.59055
 Alpha  occ. eigenvalues --   -0.58344  -0.57802  -0.56450  -0.55842  -0.54703
 Alpha  occ. eigenvalues --   -0.53917  -0.53379  -0.52398  -0.52137  -0.51307
 Alpha  occ. eigenvalues --   -0.51020  -0.50707  -0.50592  -0.50314  -0.50080
 Alpha  occ. eigenvalues --   -0.49811  -0.49520  -0.48894  -0.48459  -0.46621
 Alpha  occ. eigenvalues --   -0.46414  -0.46053  -0.45956  -0.45297  -0.44930
 Alpha  occ. eigenvalues --   -0.44137  -0.43459  -0.42896  -0.42617  -0.42535
 Alpha  occ. eigenvalues --   -0.42270  -0.42242  -0.41833  -0.41666  -0.41416
 Alpha  occ. eigenvalues --   -0.40956  -0.40773  -0.40494  -0.40266  -0.40168
 Alpha  occ. eigenvalues --   -0.39870  -0.39695  -0.39656  -0.39359  -0.39256
 Alpha  occ. eigenvalues --   -0.38863  -0.38715  -0.38617  -0.38458  -0.38267
 Alpha  occ. eigenvalues --   -0.38007  -0.37858  -0.37746  -0.37563  -0.37258
 Alpha  occ. eigenvalues --   -0.37190  -0.37170  -0.37056  -0.36884  -0.36637
 Alpha  occ. eigenvalues --   -0.36403  -0.36387  -0.36131  -0.36048  -0.35603
 Alpha  occ. eigenvalues --   -0.35420  -0.35258  -0.34785  -0.34660  -0.34543
 Alpha  occ. eigenvalues --   -0.34417  -0.34301  -0.34232  -0.34039  -0.33906
 Alpha  occ. eigenvalues --   -0.33689  -0.33602  -0.33538  -0.33458  -0.33249
 Alpha  occ. eigenvalues --   -0.33096  -0.32859  -0.32787  -0.32618  -0.32373
 Alpha  occ. eigenvalues --   -0.32260  -0.31999  -0.31920  -0.31809  -0.31675
 Alpha  occ. eigenvalues --   -0.31602  -0.31554  -0.31241  -0.31150  -0.31040
 Alpha  occ. eigenvalues --   -0.30693  -0.30503  -0.30282  -0.30121  -0.29988
 Alpha  occ. eigenvalues --   -0.29893  -0.29648  -0.29469  -0.29225  -0.28895
 Alpha  occ. eigenvalues --   -0.28793  -0.28674  -0.28232  -0.27820  -0.27627
 Alpha  occ. eigenvalues --   -0.27501  -0.27466  -0.27033  -0.26708  -0.26571
 Alpha  occ. eigenvalues --   -0.26301  -0.26277  -0.26114  -0.25922  -0.25816
 Alpha  occ. eigenvalues --   -0.25658  -0.25266  -0.24848  -0.24353  -0.24018
 Alpha  occ. eigenvalues --   -0.23650  -0.23021  -0.22268  -0.22061  -0.20835
 Alpha  occ. eigenvalues --   -0.20111  -0.19724  -0.19642  -0.18838  -0.17491
 Alpha  occ. eigenvalues --   -0.16092
 Alpha virt. eigenvalues --   -0.12113  -0.07079  -0.06083  -0.04870  -0.03613
 Alpha virt. eigenvalues --   -0.03347  -0.02028  -0.01841  -0.01445  -0.00336
 Alpha virt. eigenvalues --    0.00525   0.01197   0.01606   0.02006   0.02761

 Mulliken charges:
               1
     1  Mg   0.707662
     2  C   -0.067894
     3  C   -0.071213
     4  C   -0.044262
     5  C   -0.079394
     6  N   -0.226353
     7  C   -0.095802
     8  C    0.020892
     9  C   -0.019261
    10  C    0.045769
    11  C    0.121842
    12  C    0.116635
    13  C    0.159451
    14  C    0.066299
    15  O   -0.188221
    16  O   -0.289659
    17  N   -0.336046
    18  C    0.155078
    19  C   -0.151029
    20  C    0.024940
    21  C    0.107971
    22  C    0.193012
    23  C   -0.049738
    24  O   -0.192972
    25  C    0.088601
    26  N   -0.271933
    27  C    0.075647
    28  C    0.013095
    29  C    0.009363
    30  C    0.051013
    31  C    0.126233
    32  C    0.053645
    33  C    0.080403
    34  N   -0.236889
    35  C    0.109730
    36  C   -0.201763
    37  C    0.061205
    38  C    0.092607
    39  C    0.162369
    40  C   -0.038338
    41  O   -0.098960
    42  C    0.124047
    43  C    0.085680
    44  O   -0.156262
    45  O   -0.269605
    46  C    0.216210
    47  C    0.306177
    48  C   -0.113144
    49  C   -0.145348
    50  C    0.141935
    51  C    0.189032
    52  C    0.037833
    53  C    0.074449
    54  C   -0.065248
    55  C    0.106759
    56  C    0.075895
    57  C    0.075623
    58  C    0.091198
    59  C   -0.015174
    60  C    0.110528
    61  C    0.098897
    62  C    0.024545
    63  C    0.149359
    64  C   -0.072879
    65  C    0.088507
    66  C    0.107846
    67  H   -0.065273
    68  H   -0.037360
    69  H   -0.054829
    70  H   -0.001000
    71  H   -0.014687
    72  H   -0.005815
    73  H   -0.000041
    74  H   -0.004688
    75  H   -0.014241
    76  H   -0.011433
    77  H    0.014912
    78  H   -0.008944
    79  H    0.000982
    80  H    0.021131
    81  H   -0.018069
    82  H    0.021251
    83  H   -0.017178
    84  H    0.003782
    85  H   -0.028411
    86  H   -0.029588
    87  H   -0.000781
    88  H   -0.000010
    89  H   -0.000797
    90  H   -0.031133
    91  H   -0.009425
    92  H    0.003247
    93  H    0.003128
    94  H    0.013852
    95  H   -0.005527
    96  H    0.014259
    97  H    0.003374
    98  H    0.002202
    99  H    0.025985
   100  H   -0.000834
   101  H    0.017856
   102  H    0.001290
   103  H    0.004287
   104  H   -0.036668
   105  H    0.003262
   106  H    0.000473
   107  H   -0.019380
   108  H   -0.035423
   109  H   -0.047170
   110  H   -0.037048
   111  H   -0.028887
   112  H   -0.022569
   113  H   -0.030529
   114  H   -0.038740
   115  H   -0.013476
   116  H   -0.023469
   117  H   -0.026186
   118  H   -0.043665
   119  H   -0.022176
   120  H   -0.021893
   121  H   -0.025523
   122  H   -0.041404
   123  H   -0.029898
   124  H   -0.037961
   125  H   -0.026189
   126  H   -0.023797
   127  H   -0.030900
   128  H   -0.027837
   129  H   -0.045962
   130  H   -0.045277
   131  H   -0.032508
   132  H   -0.031745
   133  H   -0.040113
   134  H   -0.032096
   135  H   -0.012451
   136  H   -0.016264
   137  H   -0.023921
   138  H   -0.028285
   139  H   -0.030423
   140  H   -0.015980
 Sum of Mulliken charges =  -0.00000

 Dipole moment (field-independent basis, Debye):
    X=             -2.0248    Y=              2.7910    Z=              0.2548  Tot=              3.4575
 Quadrupole moment (field-independent basis, Debye-Ang):
   XX=           -387.2737   YY=           -421.8323   ZZ=           -412.0477
   XY=            -16.8697   XZ=             20.9815   YZ=              6.5592

 Normal termination of Gaussian 16 at Sun May  1 01:02:52 2022.
