 Gaussian 16, Revision A.03,
 Gaussian 16:  ES64L-G16RevA.03 25-Dec-2016

 -----------------------------------
 #p cam-b3lyp/Def2SVP td=(nstates=5)
 -----------------------------------

 -------------------------------------------------------
 step_951_chromophore_25 TDDFT with cam-b3lyp functional
 -------------------------------------------------------
 Symbolic Z-matrix:
 Charge =  0 Multiplicity = 1

                         Standard orientation:
 ---------------------------------------------------------------------
 Center     Atomic      Atomic             Coordinates (Angstroms)
 Number     Number       Type             X           Y           Z
 ---------------------------------------------------------------------
      1         12           0        6.045258    0.353327    0.193836
      2          6           0        3.447099   -2.211577    0.073528
      3          6           0        3.628107    2.611764   -0.202107
      4          6           0        8.596180    2.646274   -0.101279
      5          6           0        8.309157   -2.214238    0.402178
      6          7           0        3.886537    0.169192   -0.018365
      7          6           0        2.955330   -0.910178   -0.013614
      8          6           0        1.467296   -0.500791   -0.081926
      9          6           0        1.636702    1.066926   -0.144864
     10          6           0        3.150086    1.294543   -0.092996
     11          6           0        0.957928    1.654833   -1.417704
     12          6           0        0.653724   -1.074560    1.167509
     13          6           0       -0.505372   -1.954693    0.748439
     14          6           0       -1.829394   -1.629594    1.377822
     15          8           0       -2.246890   -1.957673    2.486817
     16          8           0       -2.513556   -0.734583    0.558775
     17          7           0        6.121343    2.364690   -0.023839
     18          6           0        5.008751    3.158931   -0.230874
     19          6           0        5.340382    4.540198   -0.367062
     20          6           0        6.798494    4.474400   -0.514912
     21          6           0        7.266224    3.151415   -0.230981
     22          6           0        4.410103    5.712466   -0.368675
     23          6           0        7.760743    5.621010   -0.817683
     24          8           0        9.009609    5.476105   -0.876981
     25          6           0        7.135216    7.017111   -1.098748
     26          7           0        8.080692    0.224033    0.041864
     27          6           0        8.980910    1.322737    0.079064
     28          6           0       10.424796    0.896614   -0.032590
     29          6           0       10.293994   -0.634829    0.473328
     30          6           0        8.793531   -0.905004    0.334743
     31          6           0       11.083529    1.086338   -1.445735
     32          6           0       10.784590   -1.037416    1.938549
     33          6           0        9.852168   -0.858356    3.195971
     34          7           0        5.965057   -1.738326    0.217822
     35          6           0        6.979868   -2.689511    0.291006
     36          6           0        6.475614   -3.990742    0.416706
     37          6           0        5.092374   -3.886640    0.216589
     38          6           0        4.844367   -2.481489    0.189148
     39          6           0        7.223616   -5.283304    0.355026
     40          6           0        3.783814   -4.614744    0.092914
     41          8           0        3.611869   -5.798055    0.057818
     42          6           0        2.644896   -3.585887    0.090223
     43          6           0        1.777892   -3.811240   -1.137498
     44          8           0        2.087402   -3.642062   -2.287959
     45          8           0        0.546511   -4.300967   -0.745724
     46          6           0       -0.223859   -4.643646   -1.926006
     47          6           0       -3.831842   -0.312989    1.052978
     48          6           0       -4.730925   -0.001740   -0.094922
     49          6           0       -5.870187    0.725329   -0.071655
     50          6           0       -6.641174    1.182212    1.121469
     51          6           0       -6.594353    1.067073   -1.343864
     52          6           0       -7.703496    0.150785   -1.762241
     53          6           0       -9.089691    0.878453   -2.134662
     54          6           0       -9.923839   -0.003462   -3.098694
     55          6           0       -9.370211    0.194419   -4.540323
     56          6           0      -11.478761    0.208811   -2.987174
     57          6           0      -12.214759   -0.873812   -2.186012
     58          6           0      -13.568791   -0.332280   -1.690393
     59          6           0      -13.946311   -0.315018   -0.166089
     60          6           0      -15.366286   -0.580491    0.042130
     61          6           0      -13.597813    1.077073    0.528529
     62          6           0      -12.212528    1.049014    1.197851
     63          6           0      -12.248550    0.695964    2.680953
     64          6           0      -11.495158    1.754118    3.562675
     65          6           0      -10.455234    1.073487    4.434249
     66          6           0      -12.373034    2.682488    4.377898
     67          1           0        2.800406    3.323369   -0.214397
     68          1           0        9.396402    3.380230   -0.210303
     69          1           0        8.942599   -2.987652    0.841828
     70          1           0        1.051192   -0.905041   -1.005136
     71          1           0        1.173098    1.555758    0.712581
     72          1           0        0.560165    0.901215   -2.097891
     73          1           0        1.735630    2.221798   -1.930098
     74          1           0        0.112589    2.234513   -1.045658
     75          1           0        0.318445   -0.238803    1.780869
     76          1           0        1.365822   -1.617671    1.786777
     77          1           0       -0.228148   -2.962109    1.059476
     78          1           0       -0.601502   -1.901218   -0.335991
     79          1           0        4.649526    6.212332   -1.306963
     80          1           0        4.577467    6.371604    0.483725
     81          1           0        3.361444    5.429238   -0.458227
     82          1           0        6.661650    7.085977   -2.078351
     83          1           0        8.005758    7.672998   -1.117295
     84          1           0        6.500170    7.475866   -0.341388
     85          1           0       11.133353    1.335401    0.670800
     86          1           0       10.738036   -1.283047   -0.282276
     87          1           0       11.868437    1.834094   -1.328427
     88          1           0       10.337930    1.538392   -2.099110
     89          1           0       11.470808    0.186876   -1.923240
     90          1           0       11.526475   -0.253829    2.090062
     91          1           0       11.306756   -1.991113    1.860917
     92          1           0       10.373824   -0.164256    3.856423
     93          1           0        9.707644   -1.854996    3.612883
     94          1           0        8.907394   -0.459921    2.826673
     95          1           0        8.158234   -5.266691    0.915407
     96          1           0        7.372592   -5.489033   -0.705395
     97          1           0        6.572543   -6.087335    0.697755
     98          1           0        2.005126   -3.621626    0.972489
     99          1           0       -0.186461   -3.874853   -2.698505
    100          1           0       -1.233384   -4.794678   -1.542853
    101          1           0        0.019290   -5.632031   -2.315800
    102          1           0       -3.867162    0.483929    1.795915
    103          1           0       -4.387001   -1.094816    1.571062
    104          1           0       -4.209930   -0.239271   -1.023187
    105          1           0       -7.675731    0.838749    1.131144
    106          1           0       -6.700671    2.270472    1.141837
    107          1           0       -6.143054    0.748112    1.989085
    108          1           0       -5.895662    1.129607   -2.177836
    109          1           0       -7.069380    2.034589   -1.179756
    110          1           0       -7.977375   -0.500170   -0.932815
    111          1           0       -7.429605   -0.564214   -2.537891
    112          1           0       -8.832122    1.847972   -2.560975
    113          1           0       -9.562037    1.053471   -1.167893
    114          1           0       -9.802896   -1.058088   -2.846953
    115          1           0       -8.523877    0.880287   -4.577340
    116          1           0      -10.143225    0.473831   -5.256247
    117          1           0       -9.018996   -0.731498   -4.996070
    118          1           0      -11.837427   -0.000815   -3.994977
    119          1           0      -11.657371    1.234450   -2.665298
    120          1           0      -11.564651   -1.097211   -1.339144
    121          1           0      -12.324758   -1.698715   -2.889438
    122          1           0      -14.276124   -0.951742   -2.241508
    123          1           0      -13.686644    0.691133   -2.047254
    124          1           0      -13.388192   -1.142791    0.271050
    125          1           0      -16.001997   -0.080756   -0.688156
    126          1           0      -15.709039   -0.275370    1.030850
    127          1           0      -15.648566   -1.626894   -0.071660
    128          1           0      -14.346354    1.531856    1.177464
    129          1           0      -13.381346    1.785746   -0.271054
    130          1           0      -11.751539    2.033259    1.110474
    131          1           0      -11.563757    0.487030    0.527216
    132          1           0      -11.888087   -0.311142    2.889789
    133          1           0      -13.314449    0.729191    2.906767
    134          1           0      -10.986533    2.436244    2.881264
    135          1           0       -9.753122    0.562299    3.775127
    136          1           0      -10.916605    0.383743    5.140277
    137          1           0       -9.924380    1.743245    5.111190
    138          1           0      -13.439048    2.461035    4.343742
    139          1           0      -12.382363    3.659359    3.894268
    140          1           0      -12.073777    2.841665    5.414050
 ---------------------------------------------------------------------

 SCF Done:  E(RCAM-B3LYP) =  -3007.18325509     A.U. after   19 cycles

 Excitation energies and oscillator strengths:

 Excited State   1:      Singlet-A      1.6274 eV  761.85 nm  f=0.3825  <S**2>=0.000
     245 -> 248        0.15508
     246 -> 247        0.69104
     245 <- 248        0.10229
 This state for optimization and/or second-order correction.
 Total Energy, E(TD-HF/TD-DFT) =  -3007.12344867
 Copying the excited state density for this state as the 1-particle RhoCI density.

 Excited State   2:      Singlet-A      2.1622 eV  573.41 nm  f=0.1854  <S**2>=0.000
     245 -> 247        0.65741
     246 -> 248       -0.24017

 Excited State   3:      Singlet-A      3.1076 eV  398.97 nm  f=0.0055  <S**2>=0.000
     242 -> 247       -0.14548
     244 -> 247        0.67890

 Excited State   4:      Singlet-A      3.3242 eV  372.97 nm  f=0.0060  <S**2>=0.000
     242 -> 247        0.67675
     244 -> 247        0.13244

 Excited State   5:      Singlet-A      3.5393 eV  350.31 nm  f=0.0374  <S**2>=0.000
     241 -> 247        0.52733
     241 -> 248        0.23753
     241 -> 249        0.22813
     241 -> 250       -0.21560
     246 -> 248       -0.17890

 The electronic state is 1-A.
 Alpha  occ. eigenvalues --  -46.87315 -19.26095 -19.25547 -19.21146 -19.20260
 Alpha  occ. eigenvalues --  -19.20078 -19.18937 -14.42571 -14.42204 -14.39296
 Alpha  occ. eigenvalues --  -14.39257 -10.40251 -10.39718 -10.36117 -10.35452
 Alpha  occ. eigenvalues --  -10.31719 -10.31677 -10.31642 -10.31019 -10.30843
 Alpha  occ. eigenvalues --  -10.30686 -10.30205 -10.29841 -10.29821 -10.29603
 Alpha  occ. eigenvalues --  -10.29278 -10.29066 -10.28502 -10.28341 -10.28246
 Alpha  occ. eigenvalues --  -10.28089 -10.27949 -10.27821 -10.27710 -10.27335
 Alpha  occ. eigenvalues --  -10.27243 -10.27182 -10.26815 -10.26810 -10.26798
 Alpha  occ. eigenvalues --  -10.26662 -10.26286 -10.26177 -10.26151 -10.26015
 Alpha  occ. eigenvalues --  -10.25983 -10.25941 -10.25913 -10.25801 -10.25777
 Alpha  occ. eigenvalues --  -10.25727 -10.25614 -10.25548 -10.25456 -10.25074
 Alpha  occ. eigenvalues --  -10.25063 -10.25026 -10.24802 -10.24698 -10.24650
 Alpha  occ. eigenvalues --  -10.24627 -10.24542 -10.24497 -10.24319 -10.24152
 Alpha  occ. eigenvalues --  -10.23769  -3.16108  -1.91005  -1.90577  -1.90419
 Alpha  occ. eigenvalues --   -1.18074  -1.15962  -1.12288  -1.09451  -1.07954
 Alpha  occ. eigenvalues --   -1.07567  -1.04263  -1.02934  -1.02481  -1.01316
 Alpha  occ. eigenvalues --   -0.92362  -0.90992  -0.90186  -0.90026  -0.88840
 Alpha  occ. eigenvalues --   -0.88309  -0.87711  -0.87590  -0.87459  -0.86891
 Alpha  occ. eigenvalues --   -0.86441  -0.85751  -0.84708  -0.84023  -0.83306
 Alpha  occ. eigenvalues --   -0.82858  -0.81944  -0.81385  -0.80863  -0.80293
 Alpha  occ. eigenvalues --   -0.79748  -0.78196  -0.77910  -0.77351  -0.76451
 Alpha  occ. eigenvalues --   -0.75786  -0.75733  -0.75195  -0.74752  -0.74308
 Alpha  occ. eigenvalues --   -0.73418  -0.72873  -0.71278  -0.70681  -0.69306
 Alpha  occ. eigenvalues --   -0.68582  -0.67920  -0.66790  -0.66496  -0.65510
 Alpha  occ. eigenvalues --   -0.65217  -0.64769  -0.64610  -0.64235  -0.63964
 Alpha  occ. eigenvalues --   -0.63864  -0.63525  -0.62823  -0.62304  -0.60236
 Alpha  occ. eigenvalues --   -0.59963  -0.59739  -0.59554  -0.59168  -0.58217
 Alpha  occ. eigenvalues --   -0.57522  -0.56854  -0.56064  -0.55987  -0.55679
 Alpha  occ. eigenvalues --   -0.55573  -0.55084  -0.54873  -0.54533  -0.54454
 Alpha  occ. eigenvalues --   -0.54028  -0.53693  -0.53532  -0.53052  -0.52786
 Alpha  occ. eigenvalues --   -0.52399  -0.52253  -0.52218  -0.51957  -0.51842
 Alpha  occ. eigenvalues --   -0.51735  -0.51443  -0.51105  -0.50989  -0.50820
 Alpha  occ. eigenvalues --   -0.50542  -0.50403  -0.50182  -0.49781  -0.49521
 Alpha  occ. eigenvalues --   -0.49446  -0.49279  -0.49245  -0.49116  -0.49019
 Alpha  occ. eigenvalues --   -0.48836  -0.48516  -0.48435  -0.48199  -0.47776
 Alpha  occ. eigenvalues --   -0.47582  -0.47368  -0.46852  -0.46757  -0.46593
 Alpha  occ. eigenvalues --   -0.46331  -0.46200  -0.46157  -0.45780  -0.45734
 Alpha  occ. eigenvalues --   -0.45607  -0.45427  -0.45243  -0.45181  -0.45094
 Alpha  occ. eigenvalues --   -0.44821  -0.44501  -0.44383  -0.44275  -0.44055
 Alpha  occ. eigenvalues --   -0.43983  -0.43695  -0.43574  -0.43476  -0.43267
 Alpha  occ. eigenvalues --   -0.43128  -0.43108  -0.42742  -0.42629  -0.42446
 Alpha  occ. eigenvalues --   -0.42288  -0.42044  -0.41667  -0.41400  -0.41359
 Alpha  occ. eigenvalues --   -0.41117  -0.40782  -0.40531  -0.40337  -0.39914
 Alpha  occ. eigenvalues --   -0.39898  -0.39828  -0.39246  -0.38908  -0.38487
 Alpha  occ. eigenvalues --   -0.38373  -0.38330  -0.38035  -0.37903  -0.37806
 Alpha  occ. eigenvalues --   -0.37485  -0.37281  -0.36992  -0.36968  -0.36632
 Alpha  occ. eigenvalues --   -0.36308  -0.35883  -0.35559  -0.35333  -0.34920
 Alpha  occ. eigenvalues --   -0.34794  -0.34369  -0.32763  -0.31916  -0.31362
 Alpha  occ. eigenvalues --   -0.30933  -0.30316  -0.29351  -0.29149  -0.24183
 Alpha  occ. eigenvalues --   -0.21436
 Alpha virt. eigenvalues --   -0.09465  -0.01504   0.00410   0.01984   0.03357
 Alpha virt. eigenvalues --    0.03999   0.04271   0.05278   0.05500   0.06945
 Alpha virt. eigenvalues --    0.07118   0.07663   0.08150   0.08298   0.09176

 Mulliken charges:
               1
     1  Mg   0.843157
     2  C   -0.093427
     3  C   -0.084445
     4  C   -0.054247
     5  C   -0.078089
     6  N   -0.298653
     7  C   -0.052418
     8  C   -0.023634
     9  C   -0.070004
    10  C    0.062580
    11  C    0.063016
    12  C    0.062944
    13  C    0.084604
    14  C    0.152284
    15  O   -0.228804
    16  O   -0.354710
    17  N   -0.423936
    18  C    0.162291
    19  C   -0.156851
    20  C   -0.047734
    21  C    0.126605
    22  C    0.134219
    23  C    0.029085
    24  O   -0.236746
    25  C    0.008555
    26  N   -0.340675
    27  C    0.082538
    28  C   -0.038499
    29  C   -0.041658
    30  C    0.062207
    31  C    0.068415
    32  C   -0.002183
    33  C    0.022465
    34  N   -0.324291
    35  C    0.113006
    36  C   -0.196670
    37  C   -0.013962
    38  C    0.128291
    39  C    0.109127
    40  C    0.060819
    41  O   -0.134538
    42  C    0.051901
    43  C    0.171951
    44  O   -0.191688
    45  O   -0.332065
    46  C    0.171509
    47  C    0.271302
    48  C   -0.129117
    49  C   -0.169940
    50  C    0.084214
    51  C    0.121981
    52  C   -0.010756
    53  C    0.026158
    54  C   -0.123259
    55  C    0.046783
    56  C    0.026740
    57  C    0.022908
    58  C    0.037572
    59  C   -0.074140
    60  C    0.049736
    61  C    0.042365
    62  C   -0.018330
    63  C    0.090325
    64  C   -0.133679
    65  C    0.031833
    66  C    0.046292
    67  H   -0.031959
    68  H    0.005077
    69  H   -0.021661
    70  H    0.030033
    71  H    0.019481
    72  H    0.018517
    73  H    0.026278
    74  H    0.019666
    75  H    0.018136
    76  H    0.020216
    77  H    0.046862
    78  H    0.022319
    79  H    0.024482
    80  H    0.045418
    81  H    0.009677
    82  H    0.048806
    83  H    0.018339
    84  H    0.032387
    85  H    0.006627
    86  H    0.007170
    87  H    0.022379
    88  H    0.025683
    89  H    0.022695
    90  H   -0.002554
    91  H    0.017567
    92  H    0.027148
    93  H    0.025154
    94  H    0.033394
    95  H    0.018649
    96  H    0.041379
    97  H    0.030881
    98  H    0.044221
    99  H    0.050307
   100  H    0.023565
   101  H    0.041494
   102  H    0.027499
   103  H    0.034605
   104  H   -0.000710
   105  H    0.024339
   106  H    0.025980
   107  H    0.003727
   108  H   -0.003755
   109  H   -0.015780
   110  H   -0.008078
   111  H   -0.000760
   112  H    0.004476
   113  H   -0.006561
   114  H   -0.005857
   115  H    0.010037
   116  H    0.002198
   117  H   -0.001172
   118  H   -0.013722
   119  H    0.003369
   120  H    0.001750
   121  H    0.003708
   122  H   -0.010076
   123  H   -0.001952
   124  H   -0.006542
   125  H   -0.001527
   126  H    0.001244
   127  H   -0.004058
   128  H    0.000364
   129  H   -0.016962
   130  H   -0.016034
   131  H   -0.011474
   132  H   -0.001493
   133  H   -0.011876
   134  H   -0.001181
   135  H    0.009129
   136  H    0.007234
   137  H    0.001199
   138  H   -0.003620
   139  H   -0.005381
   140  H    0.009248
 Sum of Mulliken charges =  -0.00000

 Dipole moment (field-independent basis, Debye):
    X=             -2.2309    Y=              2.7859    Z=              0.1929  Tot=              3.5742
 Quadrupole moment (field-independent basis, Debye-Ang):
   XX=           -385.9119   YY=           -417.2494   ZZ=           -412.2543
   XY=            -17.7816   XZ=             21.8872   YZ=              6.4056

 Normal termination of Gaussian 16 at Sun May  1 00:01:23 2022.
