 Gaussian 16, Revision A.03,
 Gaussian 16:  ES64L-G16RevA.03 25-Dec-2016

 ---------------------------------
 #p PBE1PBE/Def2SVP td=(nstates=5)
 ---------------------------------

 -----------------------------------------------------
 step_951_chromophore_25 TDDFT with PBE1PBE functional
 -----------------------------------------------------
 Symbolic Z-matrix:
 Charge =  0 Multiplicity = 1

                         Standard orientation:
 ---------------------------------------------------------------------
 Center     Atomic      Atomic             Coordinates (Angstroms)
 Number     Number       Type             X           Y           Z
 ---------------------------------------------------------------------
      1         12           0        6.045258    0.353327    0.193836
      2          6           0        3.447099   -2.211577    0.073528
      3          6           0        3.628107    2.611764   -0.202107
      4          6           0        8.596180    2.646274   -0.101279
      5          6           0        8.309157   -2.214238    0.402178
      6          7           0        3.886537    0.169192   -0.018365
      7          6           0        2.955330   -0.910178   -0.013614
      8          6           0        1.467296   -0.500791   -0.081926
      9          6           0        1.636702    1.066926   -0.144864
     10          6           0        3.150086    1.294543   -0.092996
     11          6           0        0.957928    1.654833   -1.417704
     12          6           0        0.653724   -1.074560    1.167509
     13          6           0       -0.505372   -1.954693    0.748439
     14          6           0       -1.829394   -1.629594    1.377822
     15          8           0       -2.246890   -1.957673    2.486817
     16          8           0       -2.513556   -0.734583    0.558775
     17          7           0        6.121343    2.364690   -0.023839
     18          6           0        5.008751    3.158931   -0.230874
     19          6           0        5.340382    4.540198   -0.367062
     20          6           0        6.798494    4.474400   -0.514912
     21          6           0        7.266224    3.151415   -0.230981
     22          6           0        4.410103    5.712466   -0.368675
     23          6           0        7.760743    5.621010   -0.817683
     24          8           0        9.009609    5.476105   -0.876981
     25          6           0        7.135216    7.017111   -1.098748
     26          7           0        8.080692    0.224033    0.041864
     27          6           0        8.980910    1.322737    0.079064
     28          6           0       10.424796    0.896614   -0.032590
     29          6           0       10.293994   -0.634829    0.473328
     30          6           0        8.793531   -0.905004    0.334743
     31          6           0       11.083529    1.086338   -1.445735
     32          6           0       10.784590   -1.037416    1.938549
     33          6           0        9.852168   -0.858356    3.195971
     34          7           0        5.965057   -1.738326    0.217822
     35          6           0        6.979868   -2.689511    0.291006
     36          6           0        6.475614   -3.990742    0.416706
     37          6           0        5.092374   -3.886640    0.216589
     38          6           0        4.844367   -2.481489    0.189148
     39          6           0        7.223616   -5.283304    0.355026
     40          6           0        3.783814   -4.614744    0.092914
     41          8           0        3.611869   -5.798055    0.057818
     42          6           0        2.644896   -3.585887    0.090223
     43          6           0        1.777892   -3.811240   -1.137498
     44          8           0        2.087402   -3.642062   -2.287959
     45          8           0        0.546511   -4.300967   -0.745724
     46          6           0       -0.223859   -4.643646   -1.926006
     47          6           0       -3.831842   -0.312989    1.052978
     48          6           0       -4.730925   -0.001740   -0.094922
     49          6           0       -5.870187    0.725329   -0.071655
     50          6           0       -6.641174    1.182212    1.121469
     51          6           0       -6.594353    1.067073   -1.343864
     52          6           0       -7.703496    0.150785   -1.762241
     53          6           0       -9.089691    0.878453   -2.134662
     54          6           0       -9.923839   -0.003462   -3.098694
     55          6           0       -9.370211    0.194419   -4.540323
     56          6           0      -11.478761    0.208811   -2.987174
     57          6           0      -12.214759   -0.873812   -2.186012
     58          6           0      -13.568791   -0.332280   -1.690393
     59          6           0      -13.946311   -0.315018   -0.166089
     60          6           0      -15.366286   -0.580491    0.042130
     61          6           0      -13.597813    1.077073    0.528529
     62          6           0      -12.212528    1.049014    1.197851
     63          6           0      -12.248550    0.695964    2.680953
     64          6           0      -11.495158    1.754118    3.562675
     65          6           0      -10.455234    1.073487    4.434249
     66          6           0      -12.373034    2.682488    4.377898
     67          1           0        2.800406    3.323369   -0.214397
     68          1           0        9.396402    3.380230   -0.210303
     69          1           0        8.942599   -2.987652    0.841828
     70          1           0        1.051192   -0.905041   -1.005136
     71          1           0        1.173098    1.555758    0.712581
     72          1           0        0.560165    0.901215   -2.097891
     73          1           0        1.735630    2.221798   -1.930098
     74          1           0        0.112589    2.234513   -1.045658
     75          1           0        0.318445   -0.238803    1.780869
     76          1           0        1.365822   -1.617671    1.786777
     77          1           0       -0.228148   -2.962109    1.059476
     78          1           0       -0.601502   -1.901218   -0.335991
     79          1           0        4.649526    6.212332   -1.306963
     80          1           0        4.577467    6.371604    0.483725
     81          1           0        3.361444    5.429238   -0.458227
     82          1           0        6.661650    7.085977   -2.078351
     83          1           0        8.005758    7.672998   -1.117295
     84          1           0        6.500170    7.475866   -0.341388
     85          1           0       11.133353    1.335401    0.670800
     86          1           0       10.738036   -1.283047   -0.282276
     87          1           0       11.868437    1.834094   -1.328427
     88          1           0       10.337930    1.538392   -2.099110
     89          1           0       11.470808    0.186876   -1.923240
     90          1           0       11.526475   -0.253829    2.090062
     91          1           0       11.306756   -1.991113    1.860917
     92          1           0       10.373824   -0.164256    3.856423
     93          1           0        9.707644   -1.854996    3.612883
     94          1           0        8.907394   -0.459921    2.826673
     95          1           0        8.158234   -5.266691    0.915407
     96          1           0        7.372592   -5.489033   -0.705395
     97          1           0        6.572543   -6.087335    0.697755
     98          1           0        2.005126   -3.621626    0.972489
     99          1           0       -0.186461   -3.874853   -2.698505
    100          1           0       -1.233384   -4.794678   -1.542853
    101          1           0        0.019290   -5.632031   -2.315800
    102          1           0       -3.867162    0.483929    1.795915
    103          1           0       -4.387001   -1.094816    1.571062
    104          1           0       -4.209930   -0.239271   -1.023187
    105          1           0       -7.675731    0.838749    1.131144
    106          1           0       -6.700671    2.270472    1.141837
    107          1           0       -6.143054    0.748112    1.989085
    108          1           0       -5.895662    1.129607   -2.177836
    109          1           0       -7.069380    2.034589   -1.179756
    110          1           0       -7.977375   -0.500170   -0.932815
    111          1           0       -7.429605   -0.564214   -2.537891
    112          1           0       -8.832122    1.847972   -2.560975
    113          1           0       -9.562037    1.053471   -1.167893
    114          1           0       -9.802896   -1.058088   -2.846953
    115          1           0       -8.523877    0.880287   -4.577340
    116          1           0      -10.143225    0.473831   -5.256247
    117          1           0       -9.018996   -0.731498   -4.996070
    118          1           0      -11.837427   -0.000815   -3.994977
    119          1           0      -11.657371    1.234450   -2.665298
    120          1           0      -11.564651   -1.097211   -1.339144
    121          1           0      -12.324758   -1.698715   -2.889438
    122          1           0      -14.276124   -0.951742   -2.241508
    123          1           0      -13.686644    0.691133   -2.047254
    124          1           0      -13.388192   -1.142791    0.271050
    125          1           0      -16.001997   -0.080756   -0.688156
    126          1           0      -15.709039   -0.275370    1.030850
    127          1           0      -15.648566   -1.626894   -0.071660
    128          1           0      -14.346354    1.531856    1.177464
    129          1           0      -13.381346    1.785746   -0.271054
    130          1           0      -11.751539    2.033259    1.110474
    131          1           0      -11.563757    0.487030    0.527216
    132          1           0      -11.888087   -0.311142    2.889789
    133          1           0      -13.314449    0.729191    2.906767
    134          1           0      -10.986533    2.436244    2.881264
    135          1           0       -9.753122    0.562299    3.775127
    136          1           0      -10.916605    0.383743    5.140277
    137          1           0       -9.924380    1.743245    5.111190
    138          1           0      -13.439048    2.461035    4.343742
    139          1           0      -12.382363    3.659359    3.894268
    140          1           0      -12.073777    2.841665    5.414050
 ---------------------------------------------------------------------

 SCF Done:  E(RPBE1PBE) =  -3005.37224043     A.U. after   15 cycles

 Excitation energies and oscillator strengths:

 Excited State   1:      Singlet-A      1.7924 eV  691.70 nm  f=0.3637  <S**2>=0.000
     245 -> 248        0.14754
     246 -> 247        0.69915
     246 <- 247       -0.12313
 This state for optimization and/or second-order correction.
 Total Energy, E(TD-HF/TD-DFT) =  -3005.30636917
 Copying the excited state density for this state as the 1-particle RhoCI density.

 Excited State   2:      Singlet-A      2.1853 eV  567.37 nm  f=0.1711  <S**2>=0.000
     245 -> 247        0.66344
     246 -> 248       -0.21761

 Excited State   3:      Singlet-A      2.7922 eV  444.04 nm  f=0.0093  <S**2>=0.000
     243 -> 247        0.69555

 Excited State   4:      Singlet-A      2.9787 eV  416.24 nm  f=0.0008  <S**2>=0.000
     241 -> 247        0.22601
     242 -> 247        0.64242

 Excited State   5:      Singlet-A      3.0292 eV  409.30 nm  f=0.0096  <S**2>=0.000
     241 -> 247        0.64570
     242 -> 247       -0.24349

 The electronic state is 1-A.
 Alpha  occ. eigenvalues --  -46.90759 -19.26699 -19.26262 -19.21282 -19.20546
 Alpha  occ. eigenvalues --  -19.20117 -19.19280 -14.42146 -14.41721 -14.39067
 Alpha  occ. eigenvalues --  -14.38907 -10.37195 -10.36772 -10.33139 -10.32704
 Alpha  occ. eigenvalues --  -10.29398 -10.29099 -10.28835 -10.28681 -10.28642
 Alpha  occ. eigenvalues --  -10.28546 -10.28105 -10.27690 -10.27395 -10.27158
 Alpha  occ. eigenvalues --  -10.26892 -10.26828 -10.26315 -10.26235 -10.26087
 Alpha  occ. eigenvalues --  -10.25817 -10.25707 -10.25568 -10.25324 -10.25050
 Alpha  occ. eigenvalues --  -10.24837 -10.24724 -10.24718 -10.24468 -10.24338
 Alpha  occ. eigenvalues --  -10.24301 -10.23967 -10.23676 -10.23633 -10.23559
 Alpha  occ. eigenvalues --  -10.23381 -10.23341 -10.23340 -10.23329 -10.23310
 Alpha  occ. eigenvalues --  -10.23299 -10.23291 -10.23139 -10.23118 -10.22616
 Alpha  occ. eigenvalues --  -10.22598 -10.22559 -10.22400 -10.22277 -10.22222
 Alpha  occ. eigenvalues --  -10.22175 -10.22078 -10.21905 -10.21692 -10.21527
 Alpha  occ. eigenvalues --  -10.21121  -3.13127  -1.85966  -1.85515  -1.85362
 Alpha  occ. eigenvalues --   -1.12772  -1.10777  -1.06911  -1.04214  -1.02754
 Alpha  occ. eigenvalues --   -1.02444  -0.98832  -0.97547  -0.97102  -0.96080
 Alpha  occ. eigenvalues --   -0.86592  -0.85132  -0.84352  -0.84149  -0.82948
 Alpha  occ. eigenvalues --   -0.82630  -0.81902  -0.81810  -0.81736  -0.81202
 Alpha  occ. eigenvalues --   -0.80774  -0.80061  -0.78913  -0.78291  -0.77540
 Alpha  occ. eigenvalues --   -0.77094  -0.76127  -0.75635  -0.75156  -0.74498
 Alpha  occ. eigenvalues --   -0.74039  -0.72511  -0.72235  -0.71642  -0.70726
 Alpha  occ. eigenvalues --   -0.69896  -0.69869  -0.69571  -0.68896  -0.68480
 Alpha  occ. eigenvalues --   -0.67805  -0.67244  -0.65706  -0.65004  -0.63642
 Alpha  occ. eigenvalues --   -0.62991  -0.62162  -0.61288  -0.60708  -0.59991
 Alpha  occ. eigenvalues --   -0.59458  -0.59229  -0.59061  -0.58783  -0.58522
 Alpha  occ. eigenvalues --   -0.57984  -0.57674  -0.57016  -0.56846  -0.54667
 Alpha  occ. eigenvalues --   -0.54492  -0.54196  -0.54129  -0.53488  -0.52883
 Alpha  occ. eigenvalues --   -0.52006  -0.51468  -0.50617  -0.50463  -0.50125
 Alpha  occ. eigenvalues --   -0.50075  -0.49485  -0.49325  -0.49146  -0.48988
 Alpha  occ. eigenvalues --   -0.48610  -0.48298  -0.47984  -0.47564  -0.47279
 Alpha  occ. eigenvalues --   -0.46875  -0.46778  -0.46732  -0.46454  -0.46303
 Alpha  occ. eigenvalues --   -0.46237  -0.46004  -0.45641  -0.45620  -0.45381
 Alpha  occ. eigenvalues --   -0.45071  -0.45024  -0.44726  -0.44316  -0.44158
 Alpha  occ. eigenvalues --   -0.44058  -0.43920  -0.43889  -0.43741  -0.43649
 Alpha  occ. eigenvalues --   -0.43492  -0.43164  -0.43000  -0.42932  -0.42472
 Alpha  occ. eigenvalues --   -0.42230  -0.41995  -0.41475  -0.41447  -0.41236
 Alpha  occ. eigenvalues --   -0.40991  -0.40861  -0.40774  -0.40555  -0.40376
 Alpha  occ. eigenvalues --   -0.40330  -0.40147  -0.40027  -0.39855  -0.39795
 Alpha  occ. eigenvalues --   -0.39525  -0.39276  -0.39020  -0.38988  -0.38822
 Alpha  occ. eigenvalues --   -0.38731  -0.38418  -0.38367  -0.38290  -0.38132
 Alpha  occ. eigenvalues --   -0.37963  -0.37766  -0.37525  -0.37454  -0.37252
 Alpha  occ. eigenvalues --   -0.37064  -0.36906  -0.36593  -0.36276  -0.36129
 Alpha  occ. eigenvalues --   -0.36028  -0.35699  -0.35498  -0.35110  -0.34825
 Alpha  occ. eigenvalues --   -0.34708  -0.34619  -0.34061  -0.33851  -0.33351
 Alpha  occ. eigenvalues --   -0.33294  -0.33128  -0.33062  -0.32734  -0.32635
 Alpha  occ. eigenvalues --   -0.32395  -0.32106  -0.32032  -0.31769  -0.31715
 Alpha  occ. eigenvalues --   -0.31171  -0.30733  -0.30371  -0.30284  -0.30052
 Alpha  occ. eigenvalues --   -0.29746  -0.29184  -0.28436  -0.27088  -0.26629
 Alpha  occ. eigenvalues --   -0.25875  -0.25797  -0.24915  -0.24658  -0.21143
 Alpha  occ. eigenvalues --   -0.19053
 Alpha virt. eigenvalues --   -0.11813  -0.05204  -0.03802  -0.02371  -0.00561
 Alpha virt. eigenvalues --   -0.00355   0.00593   0.01009   0.01120   0.02713
 Alpha virt. eigenvalues --    0.03628   0.03917   0.04221   0.04896   0.05684

 Mulliken charges:
               1
     1  Mg   1.002172
     2  C   -0.087545
     3  C   -0.073838
     4  C   -0.047829
     5  C   -0.062170
     6  N   -0.403173
     7  C    0.012768
     8  C   -0.087331
     9  C   -0.143843
    10  C    0.097698
    11  C    0.005479
    12  C    0.017656
    13  C    0.000304
    14  C    0.221049
    15  O   -0.262353
    16  O   -0.384628
    17  N   -0.539329
    18  C    0.185789
    19  C   -0.178854
    20  C   -0.100256
    21  C    0.162042
    22  C    0.068643
    23  C    0.079522
    24  O   -0.272124
    25  C   -0.063795
    26  N   -0.442807
    27  C    0.104152
    28  C   -0.111112
    29  C   -0.109991
    30  C    0.086257
    31  C    0.012333
    32  C   -0.061870
    33  C   -0.054536
    34  N   -0.448779
    35  C    0.128877
    36  C   -0.212848
    37  C   -0.058251
    38  C    0.169613
    39  C    0.051398
    40  C    0.160378
    41  O   -0.182638
    42  C   -0.064287
    43  C    0.261287
    44  O   -0.227600
    45  O   -0.363485
    46  C    0.114744
    47  C    0.233342
    48  C   -0.138259
    49  C   -0.217268
    50  C    0.020532
    51  C    0.050861
    52  C   -0.063547
    53  C   -0.037312
    54  C   -0.208615
    55  C   -0.010653
    56  C   -0.027833
    57  C   -0.043735
    58  C   -0.009645
    59  C   -0.163689
    60  C   -0.010215
    61  C   -0.017571
    62  C   -0.084940
    63  C    0.038011
    64  C   -0.228788
    65  C   -0.033848
    66  C   -0.009699
    67  H    0.001631
    68  H    0.036330
    69  H    0.009975
    70  H    0.066554
    71  H    0.055251
    72  H    0.045869
    73  H    0.053914
    74  H    0.047052
    75  H    0.049560
    76  H    0.053563
    77  H    0.080373
    78  H    0.055655
    79  H    0.053948
    80  H    0.073245
    81  H    0.038564
    82  H    0.074948
    83  H    0.046835
    84  H    0.058275
    85  H    0.043404
    86  H    0.044688
    87  H    0.049245
    88  H    0.054123
    89  H    0.049466
    90  H    0.031726
    91  H    0.048246
    92  H    0.054032
    93  H    0.052759
    94  H    0.066386
    95  H    0.044443
    96  H    0.069283
    97  H    0.058565
    98  H    0.080858
    99  H    0.071417
   100  H    0.045945
   101  H    0.064314
   102  H    0.054170
   103  H    0.062020
   104  H    0.029124
   105  H    0.051705
   106  H    0.053502
   107  H    0.031820
   108  H    0.028841
   109  H    0.018653
   110  H    0.025936
   111  H    0.031350
   112  H    0.036489
   113  H    0.030851
   114  H    0.032278
   115  H    0.036975
   116  H    0.029023
   117  H    0.026387
   118  H    0.021326
   119  H    0.034474
   120  H    0.034302
   121  H    0.036424
   122  H    0.022983
   123  H    0.029039
   124  H    0.031669
   125  H    0.026517
   126  H    0.029342
   127  H    0.024658
   128  H    0.030720
   129  H    0.017287
   130  H    0.016907
   131  H    0.028208
   132  H    0.029886
   133  H    0.022016
   134  H    0.036273
   135  H    0.038237
   136  H    0.035703
   137  H    0.029421
   138  H    0.023093
   139  H    0.022243
   140  H    0.035692
 Sum of Mulliken charges =  -0.00000

 Dipole moment (field-independent basis, Debye):
    X=             -2.1883    Y=              3.0609    Z=              0.1744  Tot=              3.7667
 Quadrupole moment (field-independent basis, Debye-Ang):
   XX=           -379.7759   YY=           -414.5719   ZZ=           -409.6718
   XY=            -16.9859   XZ=             22.0069   YZ=              6.4720

 Normal termination of Gaussian 16 at Sun May  1 00:21:47 2022.
