 Gaussian 16, Revision A.03,
 Gaussian 16:  ES64L-G16RevA.03 25-Dec-2016

 --------------------------------
 #p wB97XD/Def2SVP td=(nstates=5)
 --------------------------------

 ----------------------------------------------------
 step_951_chromophore_25 TDDFT with wB97XD functional
 ----------------------------------------------------
 Symbolic Z-matrix:
 Charge =  0 Multiplicity = 1

                         Standard orientation:
 ---------------------------------------------------------------------
 Center     Atomic      Atomic             Coordinates (Angstroms)
 Number     Number       Type             X           Y           Z
 ---------------------------------------------------------------------
      1         12           0        6.045258    0.353327    0.193836
      2          6           0        3.447099   -2.211577    0.073528
      3          6           0        3.628107    2.611764   -0.202107
      4          6           0        8.596180    2.646274   -0.101279
      5          6           0        8.309157   -2.214238    0.402178
      6          7           0        3.886537    0.169192   -0.018365
      7          6           0        2.955330   -0.910178   -0.013614
      8          6           0        1.467296   -0.500791   -0.081926
      9          6           0        1.636702    1.066926   -0.144864
     10          6           0        3.150086    1.294543   -0.092996
     11          6           0        0.957928    1.654833   -1.417704
     12          6           0        0.653724   -1.074560    1.167509
     13          6           0       -0.505372   -1.954693    0.748439
     14          6           0       -1.829394   -1.629594    1.377822
     15          8           0       -2.246890   -1.957673    2.486817
     16          8           0       -2.513556   -0.734583    0.558775
     17          7           0        6.121343    2.364690   -0.023839
     18          6           0        5.008751    3.158931   -0.230874
     19          6           0        5.340382    4.540198   -0.367062
     20          6           0        6.798494    4.474400   -0.514912
     21          6           0        7.266224    3.151415   -0.230981
     22          6           0        4.410103    5.712466   -0.368675
     23          6           0        7.760743    5.621010   -0.817683
     24          8           0        9.009609    5.476105   -0.876981
     25          6           0        7.135216    7.017111   -1.098748
     26          7           0        8.080692    0.224033    0.041864
     27          6           0        8.980910    1.322737    0.079064
     28          6           0       10.424796    0.896614   -0.032590
     29          6           0       10.293994   -0.634829    0.473328
     30          6           0        8.793531   -0.905004    0.334743
     31          6           0       11.083529    1.086338   -1.445735
     32          6           0       10.784590   -1.037416    1.938549
     33          6           0        9.852168   -0.858356    3.195971
     34          7           0        5.965057   -1.738326    0.217822
     35          6           0        6.979868   -2.689511    0.291006
     36          6           0        6.475614   -3.990742    0.416706
     37          6           0        5.092374   -3.886640    0.216589
     38          6           0        4.844367   -2.481489    0.189148
     39          6           0        7.223616   -5.283304    0.355026
     40          6           0        3.783814   -4.614744    0.092914
     41          8           0        3.611869   -5.798055    0.057818
     42          6           0        2.644896   -3.585887    0.090223
     43          6           0        1.777892   -3.811240   -1.137498
     44          8           0        2.087402   -3.642062   -2.287959
     45          8           0        0.546511   -4.300967   -0.745724
     46          6           0       -0.223859   -4.643646   -1.926006
     47          6           0       -3.831842   -0.312989    1.052978
     48          6           0       -4.730925   -0.001740   -0.094922
     49          6           0       -5.870187    0.725329   -0.071655
     50          6           0       -6.641174    1.182212    1.121469
     51          6           0       -6.594353    1.067073   -1.343864
     52          6           0       -7.703496    0.150785   -1.762241
     53          6           0       -9.089691    0.878453   -2.134662
     54          6           0       -9.923839   -0.003462   -3.098694
     55          6           0       -9.370211    0.194419   -4.540323
     56          6           0      -11.478761    0.208811   -2.987174
     57          6           0      -12.214759   -0.873812   -2.186012
     58          6           0      -13.568791   -0.332280   -1.690393
     59          6           0      -13.946311   -0.315018   -0.166089
     60          6           0      -15.366286   -0.580491    0.042130
     61          6           0      -13.597813    1.077073    0.528529
     62          6           0      -12.212528    1.049014    1.197851
     63          6           0      -12.248550    0.695964    2.680953
     64          6           0      -11.495158    1.754118    3.562675
     65          6           0      -10.455234    1.073487    4.434249
     66          6           0      -12.373034    2.682488    4.377898
     67          1           0        2.800406    3.323369   -0.214397
     68          1           0        9.396402    3.380230   -0.210303
     69          1           0        8.942599   -2.987652    0.841828
     70          1           0        1.051192   -0.905041   -1.005136
     71          1           0        1.173098    1.555758    0.712581
     72          1           0        0.560165    0.901215   -2.097891
     73          1           0        1.735630    2.221798   -1.930098
     74          1           0        0.112589    2.234513   -1.045658
     75          1           0        0.318445   -0.238803    1.780869
     76          1           0        1.365822   -1.617671    1.786777
     77          1           0       -0.228148   -2.962109    1.059476
     78          1           0       -0.601502   -1.901218   -0.335991
     79          1           0        4.649526    6.212332   -1.306963
     80          1           0        4.577467    6.371604    0.483725
     81          1           0        3.361444    5.429238   -0.458227
     82          1           0        6.661650    7.085977   -2.078351
     83          1           0        8.005758    7.672998   -1.117295
     84          1           0        6.500170    7.475866   -0.341388
     85          1           0       11.133353    1.335401    0.670800
     86          1           0       10.738036   -1.283047   -0.282276
     87          1           0       11.868437    1.834094   -1.328427
     88          1           0       10.337930    1.538392   -2.099110
     89          1           0       11.470808    0.186876   -1.923240
     90          1           0       11.526475   -0.253829    2.090062
     91          1           0       11.306756   -1.991113    1.860917
     92          1           0       10.373824   -0.164256    3.856423
     93          1           0        9.707644   -1.854996    3.612883
     94          1           0        8.907394   -0.459921    2.826673
     95          1           0        8.158234   -5.266691    0.915407
     96          1           0        7.372592   -5.489033   -0.705395
     97          1           0        6.572543   -6.087335    0.697755
     98          1           0        2.005126   -3.621626    0.972489
     99          1           0       -0.186461   -3.874853   -2.698505
    100          1           0       -1.233384   -4.794678   -1.542853
    101          1           0        0.019290   -5.632031   -2.315800
    102          1           0       -3.867162    0.483929    1.795915
    103          1           0       -4.387001   -1.094816    1.571062
    104          1           0       -4.209930   -0.239271   -1.023187
    105          1           0       -7.675731    0.838749    1.131144
    106          1           0       -6.700671    2.270472    1.141837
    107          1           0       -6.143054    0.748112    1.989085
    108          1           0       -5.895662    1.129607   -2.177836
    109          1           0       -7.069380    2.034589   -1.179756
    110          1           0       -7.977375   -0.500170   -0.932815
    111          1           0       -7.429605   -0.564214   -2.537891
    112          1           0       -8.832122    1.847972   -2.560975
    113          1           0       -9.562037    1.053471   -1.167893
    114          1           0       -9.802896   -1.058088   -2.846953
    115          1           0       -8.523877    0.880287   -4.577340
    116          1           0      -10.143225    0.473831   -5.256247
    117          1           0       -9.018996   -0.731498   -4.996070
    118          1           0      -11.837427   -0.000815   -3.994977
    119          1           0      -11.657371    1.234450   -2.665298
    120          1           0      -11.564651   -1.097211   -1.339144
    121          1           0      -12.324758   -1.698715   -2.889438
    122          1           0      -14.276124   -0.951742   -2.241508
    123          1           0      -13.686644    0.691133   -2.047254
    124          1           0      -13.388192   -1.142791    0.271050
    125          1           0      -16.001997   -0.080756   -0.688156
    126          1           0      -15.709039   -0.275370    1.030850
    127          1           0      -15.648566   -1.626894   -0.071660
    128          1           0      -14.346354    1.531856    1.177464
    129          1           0      -13.381346    1.785746   -0.271054
    130          1           0      -11.751539    2.033259    1.110474
    131          1           0      -11.563757    0.487030    0.527216
    132          1           0      -11.888087   -0.311142    2.889789
    133          1           0      -13.314449    0.729191    2.906767
    134          1           0      -10.986533    2.436244    2.881264
    135          1           0       -9.753122    0.562299    3.775127
    136          1           0      -10.916605    0.383743    5.140277
    137          1           0       -9.924380    1.743245    5.111190
    138          1           0      -13.439048    2.461035    4.343742
    139          1           0      -12.382363    3.659359    3.894268
    140          1           0      -12.073777    2.841665    5.414050
 ---------------------------------------------------------------------

 SCF Done:  E(RwB97XD) =  -3007.88174011     A.U. after   19 cycles

 Excitation energies and oscillator strengths:

 Excited State   1:      Singlet-A      1.5687 eV  790.34 nm  f=0.3828  <S**2>=0.000
     245 -> 248        0.16082
     246 -> 247        0.68866
     245 <- 248        0.11167
 This state for optimization and/or second-order correction.
 Total Energy, E(TD-HF/TD-DFT) =  -3007.82409013
 Copying the excited state density for this state as the 1-particle RhoCI density.

 Excited State   2:      Singlet-A      2.1033 eV  589.47 nm  f=0.1800  <S**2>=0.000
     245 -> 247        0.65514
     246 -> 248       -0.24399

 Excited State   3:      Singlet-A      3.1389 eV  394.99 nm  f=0.0045  <S**2>=0.000
     242 -> 247       -0.19376
     244 -> 247        0.66203

 Excited State   4:      Singlet-A      3.3437 eV  370.80 nm  f=0.0036  <S**2>=0.000
     242 -> 247        0.65625
     244 -> 247        0.17327
     246 -> 248        0.11706

 Excited State   5:      Singlet-A      3.5696 eV  347.33 nm  f=0.0472  <S**2>=0.000
     241 -> 247        0.50135
     241 -> 248        0.24497
     241 -> 249        0.24777
     241 -> 250       -0.23707
     246 -> 248       -0.18690

 The electronic state is 1-A.
 Alpha  occ. eigenvalues --  -46.93666 -19.31349 -19.30837 -19.26088 -19.25251
 Alpha  occ. eigenvalues --  -19.25154 -19.23944 -14.47185 -14.46847 -14.43940
 Alpha  occ. eigenvalues --  -14.43861 -10.44122 -10.43584 -10.40166 -10.39415
 Alpha  occ. eigenvalues --  -10.35795 -10.35592 -10.35404 -10.35056 -10.34825
 Alpha  occ. eigenvalues --  -10.34697 -10.34215 -10.33928 -10.33814 -10.33669
 Alpha  occ. eigenvalues --  -10.33326 -10.33159 -10.32638 -10.32436 -10.32277
 Alpha  occ. eigenvalues --  -10.32091 -10.31993 -10.31984 -10.31781 -10.31309
 Alpha  occ. eigenvalues --  -10.31308 -10.31078 -10.30870 -10.30869 -10.30766
 Alpha  occ. eigenvalues --  -10.30669 -10.30317 -10.30018 -10.30008 -10.29925
 Alpha  occ. eigenvalues --  -10.29921 -10.29839 -10.29807 -10.29791 -10.29726
 Alpha  occ. eigenvalues --  -10.29647 -10.29586 -10.29510 -10.29401 -10.29007
 Alpha  occ. eigenvalues --  -10.28996 -10.28947 -10.28747 -10.28645 -10.28592
 Alpha  occ. eigenvalues --  -10.28540 -10.28446 -10.28341 -10.28135 -10.27950
 Alpha  occ. eigenvalues --  -10.27579  -3.19865  -1.93459  -1.93009  -1.92851
 Alpha  occ. eigenvalues --   -1.20254  -1.18179  -1.14569  -1.11669  -1.10130
 Alpha  occ. eigenvalues --   -1.09813  -1.06315  -1.04946  -1.04486  -1.03336
 Alpha  occ. eigenvalues --   -0.94343  -0.92821  -0.92018  -0.91818  -0.90615
 Alpha  occ. eigenvalues --   -0.90234  -0.89553  -0.89472  -0.89330  -0.88816
 Alpha  occ. eigenvalues --   -0.88350  -0.87669  -0.86562  -0.85979  -0.85169
 Alpha  occ. eigenvalues --   -0.84726  -0.83791  -0.83307  -0.82793  -0.82159
 Alpha  occ. eigenvalues --   -0.81675  -0.80146  -0.79829  -0.79290  -0.78398
 Alpha  occ. eigenvalues --   -0.77587  -0.77562  -0.77130  -0.76574  -0.76147
 Alpha  occ. eigenvalues --   -0.75384  -0.74849  -0.73237  -0.72621  -0.71237
 Alpha  occ. eigenvalues --   -0.70574  -0.69803  -0.68781  -0.68360  -0.67488
 Alpha  occ. eigenvalues --   -0.67087  -0.66752  -0.66582  -0.66215  -0.65976
 Alpha  occ. eigenvalues --   -0.65670  -0.65340  -0.64665  -0.64310  -0.62173
 Alpha  occ. eigenvalues --   -0.61931  -0.61705  -0.61543  -0.61132  -0.60227
 Alpha  occ. eigenvalues --   -0.59465  -0.58854  -0.58007  -0.57942  -0.57605
 Alpha  occ. eigenvalues --   -0.57521  -0.56950  -0.56795  -0.56500  -0.56403
 Alpha  occ. eigenvalues --   -0.56004  -0.55681  -0.55396  -0.54964  -0.54681
 Alpha  occ. eigenvalues --   -0.54261  -0.54169  -0.54112  -0.53864  -0.53825
 Alpha  occ. eigenvalues --   -0.53624  -0.53363  -0.53000  -0.52929  -0.52733
 Alpha  occ. eigenvalues --   -0.52511  -0.52329  -0.52077  -0.51667  -0.51458
 Alpha  occ. eigenvalues --   -0.51351  -0.51182  -0.51152  -0.51012  -0.50936
 Alpha  occ. eigenvalues --   -0.50767  -0.50406  -0.50319  -0.50112  -0.49727
 Alpha  occ. eigenvalues --   -0.49478  -0.49316  -0.48816  -0.48705  -0.48512
 Alpha  occ. eigenvalues --   -0.48239  -0.48123  -0.48033  -0.47686  -0.47616
 Alpha  occ. eigenvalues --   -0.47546  -0.47336  -0.47172  -0.47114  -0.46995
 Alpha  occ. eigenvalues --   -0.46711  -0.46416  -0.46236  -0.46188  -0.45979
 Alpha  occ. eigenvalues --   -0.45921  -0.45595  -0.45499  -0.45408  -0.45210
 Alpha  occ. eigenvalues --   -0.45037  -0.44965  -0.44642  -0.44565  -0.44351
 Alpha  occ. eigenvalues --   -0.44185  -0.43992  -0.43593  -0.43396  -0.43236
 Alpha  occ. eigenvalues --   -0.43047  -0.42717  -0.42466  -0.42203  -0.41793
 Alpha  occ. eigenvalues --   -0.41749  -0.41673  -0.41124  -0.40830  -0.40330
 Alpha  occ. eigenvalues --   -0.40254  -0.40206  -0.39950  -0.39861  -0.39714
 Alpha  occ. eigenvalues --   -0.39479  -0.39171  -0.39035  -0.38828  -0.38659
 Alpha  occ. eigenvalues --   -0.38155  -0.37728  -0.37531  -0.37179  -0.36908
 Alpha  occ. eigenvalues --   -0.36646  -0.36314  -0.35037  -0.33940  -0.33583
 Alpha  occ. eigenvalues --   -0.32838  -0.32526  -0.31392  -0.31290  -0.26090
 Alpha  occ. eigenvalues --   -0.23236
 Alpha virt. eigenvalues --   -0.07827   0.00441   0.02446   0.04086   0.06205
 Alpha virt. eigenvalues --    0.06298   0.06506   0.07664   0.07805   0.09458
 Alpha virt. eigenvalues --    0.10270   0.10579   0.10721   0.11641   0.12442

 Mulliken charges:
               1
     1  Mg   0.986439
     2  C   -0.101093
     3  C   -0.091242
     4  C   -0.061086
     5  C   -0.081225
     6  N   -0.371754
     7  C   -0.010094
     8  C   -0.064093
     9  C   -0.120131
    10  C    0.085447
    11  C    0.017153
    12  C    0.025955
    13  C    0.023323
    14  C    0.211527
    15  O   -0.259571
    16  O   -0.383880
    17  N   -0.508095
    18  C    0.178138
    19  C   -0.172943
    20  C   -0.092645
    21  C    0.150377
    22  C    0.084361
    23  C    0.073727
    24  O   -0.267653
    25  C   -0.052681
    26  N   -0.412058
    27  C    0.093947
    28  C   -0.087298
    29  C   -0.088454
    30  C    0.082487
    31  C    0.021430
    32  C   -0.050202
    33  C   -0.032963
    34  N   -0.412658
    35  C    0.124334
    36  C   -0.207980
    37  C   -0.056219
    38  C    0.160295
    39  C    0.063818
    40  C    0.141036
    41  O   -0.171697
    42  C   -0.019497
    43  C    0.236696
    44  O   -0.221462
    45  O   -0.361129
    46  C    0.128980
    47  C    0.244070
    48  C   -0.146775
    49  C   -0.201261
    50  C    0.034378
    51  C    0.073951
    52  C   -0.053494
    53  C   -0.014939
    54  C   -0.178165
    55  C   -0.000336
    56  C   -0.011772
    57  C   -0.024397
    58  C    0.001939
    59  C   -0.133153
    60  C    0.001179
    61  C    0.000499
    62  C   -0.057041
    63  C    0.049498
    64  C   -0.196096
    65  C   -0.019252
    66  C   -0.001224
    67  H   -0.008588
    68  H    0.032886
    69  H    0.003130
    70  H    0.051351
    71  H    0.045568
    72  H    0.040547
    73  H    0.046748
    74  H    0.042101
    75  H    0.043644
    76  H    0.044180
    77  H    0.072462
    78  H    0.045557
    79  H    0.045337
    80  H    0.067961
    81  H    0.034027
    82  H    0.070786
    83  H    0.044179
    84  H    0.053464
    85  H    0.033545
    86  H    0.034151
    87  H    0.044066
    88  H    0.047214
    89  H    0.044204
    90  H    0.021842
    91  H    0.042396
    92  H    0.050007
    93  H    0.047015
    94  H    0.053546
    95  H    0.040415
    96  H    0.064551
    97  H    0.054944
    98  H    0.072408
    99  H    0.067361
   100  H    0.042621
   101  H    0.060579
   102  H    0.049055
   103  H    0.056092
   104  H    0.026426
   105  H    0.045437
   106  H    0.048513
   107  H    0.025450
   108  H    0.022661
   109  H    0.007606
   110  H    0.015110
   111  H    0.023330
   112  H    0.026293
   113  H    0.017678
   114  H    0.018732
   115  H    0.030415
   116  H    0.023266
   117  H    0.020983
   118  H    0.010796
   119  H    0.024779
   120  H    0.021217
   121  H    0.030258
   122  H    0.015764
   123  H    0.017290
   124  H    0.019352
   125  H    0.019727
   126  H    0.022880
   127  H    0.019439
   128  H    0.022646
   129  H    0.006493
   130  H    0.006237
   131  H    0.008681
   132  H    0.023264
   133  H    0.008848
   134  H    0.023508
   135  H    0.031752
   136  H    0.028640
   137  H    0.023619
   138  H    0.017000
   139  H    0.016536
   140  H    0.030746
 Sum of Mulliken charges =  -0.00000

 Dipole moment (field-independent basis, Debye):
    X=             -2.2928    Y=              2.7486    Z=              0.1925  Tot=              3.5845
 Quadrupole moment (field-independent basis, Debye-Ang):
   XX=           -380.6569   YY=           -413.0132   ZZ=           -409.2844
   XY=            -18.5081   XZ=             22.3443   YZ=              6.4522

 Normal termination of Gaussian 16 at Sun May  1 00:51:09 2022.
