 Gaussian 16, Revision A.03,
 Gaussian 16:  ES64L-G16RevA.03 25-Dec-2016

 --------------------
 #p ZINDO=(nstates=5)
 --------------------

 -----------------------------
 step_951_chromophore_25 ZINDO
 -----------------------------
 Symbolic Z-matrix:
 Charge =  0 Multiplicity = 1

                         Standard orientation:
 ---------------------------------------------------------------------
 Center     Atomic      Atomic             Coordinates (Angstroms)
 Number     Number       Type             X           Y           Z
 ---------------------------------------------------------------------
      1         12           0        6.045258    0.353327    0.193836
      2          6           0        3.447099   -2.211577    0.073528
      3          6           0        3.628107    2.611764   -0.202107
      4          6           0        8.596180    2.646274   -0.101279
      5          6           0        8.309157   -2.214238    0.402178
      6          7           0        3.886537    0.169192   -0.018365
      7          6           0        2.955330   -0.910178   -0.013614
      8          6           0        1.467296   -0.500791   -0.081926
      9          6           0        1.636702    1.066926   -0.144864
     10          6           0        3.150086    1.294543   -0.092996
     11          6           0        0.957928    1.654833   -1.417704
     12          6           0        0.653724   -1.074560    1.167509
     13          6           0       -0.505372   -1.954693    0.748439
     14          6           0       -1.829394   -1.629594    1.377822
     15          8           0       -2.246890   -1.957673    2.486817
     16          8           0       -2.513556   -0.734583    0.558775
     17          7           0        6.121343    2.364690   -0.023839
     18          6           0        5.008751    3.158931   -0.230874
     19          6           0        5.340382    4.540198   -0.367062
     20          6           0        6.798494    4.474400   -0.514912
     21          6           0        7.266224    3.151415   -0.230981
     22          6           0        4.410103    5.712466   -0.368675
     23          6           0        7.760743    5.621010   -0.817683
     24          8           0        9.009609    5.476105   -0.876981
     25          6           0        7.135216    7.017111   -1.098748
     26          7           0        8.080692    0.224033    0.041864
     27          6           0        8.980910    1.322737    0.079064
     28          6           0       10.424796    0.896614   -0.032590
     29          6           0       10.293994   -0.634829    0.473328
     30          6           0        8.793531   -0.905004    0.334743
     31          6           0       11.083529    1.086338   -1.445735
     32          6           0       10.784590   -1.037416    1.938549
     33          6           0        9.852168   -0.858356    3.195971
     34          7           0        5.965057   -1.738326    0.217822
     35          6           0        6.979868   -2.689511    0.291006
     36          6           0        6.475614   -3.990742    0.416706
     37          6           0        5.092374   -3.886640    0.216589
     38          6           0        4.844367   -2.481489    0.189148
     39          6           0        7.223616   -5.283304    0.355026
     40          6           0        3.783814   -4.614744    0.092914
     41          8           0        3.611869   -5.798055    0.057818
     42          6           0        2.644896   -3.585887    0.090223
     43          6           0        1.777892   -3.811240   -1.137498
     44          8           0        2.087402   -3.642062   -2.287959
     45          8           0        0.546511   -4.300967   -0.745724
     46          6           0       -0.223859   -4.643646   -1.926006
     47          6           0       -3.831842   -0.312989    1.052978
     48          6           0       -4.730925   -0.001740   -0.094922
     49          6           0       -5.870187    0.725329   -0.071655
     50          6           0       -6.641174    1.182212    1.121469
     51          6           0       -6.594353    1.067073   -1.343864
     52          6           0       -7.703496    0.150785   -1.762241
     53          6           0       -9.089691    0.878453   -2.134662
     54          6           0       -9.923839   -0.003462   -3.098694
     55          6           0       -9.370211    0.194419   -4.540323
     56          6           0      -11.478761    0.208811   -2.987174
     57          6           0      -12.214759   -0.873812   -2.186012
     58          6           0      -13.568791   -0.332280   -1.690393
     59          6           0      -13.946311   -0.315018   -0.166089
     60          6           0      -15.366286   -0.580491    0.042130
     61          6           0      -13.597813    1.077073    0.528529
     62          6           0      -12.212528    1.049014    1.197851
     63          6           0      -12.248550    0.695964    2.680953
     64          6           0      -11.495158    1.754118    3.562675
     65          6           0      -10.455234    1.073487    4.434249
     66          6           0      -12.373034    2.682488    4.377898
     67          1           0        2.800406    3.323369   -0.214397
     68          1           0        9.396402    3.380230   -0.210303
     69          1           0        8.942599   -2.987652    0.841828
     70          1           0        1.051192   -0.905041   -1.005136
     71          1           0        1.173098    1.555758    0.712581
     72          1           0        0.560165    0.901215   -2.097891
     73          1           0        1.735630    2.221798   -1.930098
     74          1           0        0.112589    2.234513   -1.045658
     75          1           0        0.318445   -0.238803    1.780869
     76          1           0        1.365822   -1.617671    1.786777
     77          1           0       -0.228148   -2.962109    1.059476
     78          1           0       -0.601502   -1.901218   -0.335991
     79          1           0        4.649526    6.212332   -1.306963
     80          1           0        4.577467    6.371604    0.483725
     81          1           0        3.361444    5.429238   -0.458227
     82          1           0        6.661650    7.085977   -2.078351
     83          1           0        8.005758    7.672998   -1.117295
     84          1           0        6.500170    7.475866   -0.341388
     85          1           0       11.133353    1.335401    0.670800
     86          1           0       10.738036   -1.283047   -0.282276
     87          1           0       11.868437    1.834094   -1.328427
     88          1           0       10.337930    1.538392   -2.099110
     89          1           0       11.470808    0.186876   -1.923240
     90          1           0       11.526475   -0.253829    2.090062
     91          1           0       11.306756   -1.991113    1.860917
     92          1           0       10.373824   -0.164256    3.856423
     93          1           0        9.707644   -1.854996    3.612883
     94          1           0        8.907394   -0.459921    2.826673
     95          1           0        8.158234   -5.266691    0.915407
     96          1           0        7.372592   -5.489033   -0.705395
     97          1           0        6.572543   -6.087335    0.697755
     98          1           0        2.005126   -3.621626    0.972489
     99          1           0       -0.186461   -3.874853   -2.698505
    100          1           0       -1.233384   -4.794678   -1.542853
    101          1           0        0.019290   -5.632031   -2.315800
    102          1           0       -3.867162    0.483929    1.795915
    103          1           0       -4.387001   -1.094816    1.571062
    104          1           0       -4.209930   -0.239271   -1.023187
    105          1           0       -7.675731    0.838749    1.131144
    106          1           0       -6.700671    2.270472    1.141837
    107          1           0       -6.143054    0.748112    1.989085
    108          1           0       -5.895662    1.129607   -2.177836
    109          1           0       -7.069380    2.034589   -1.179756
    110          1           0       -7.977375   -0.500170   -0.932815
    111          1           0       -7.429605   -0.564214   -2.537891
    112          1           0       -8.832122    1.847972   -2.560975
    113          1           0       -9.562037    1.053471   -1.167893
    114          1           0       -9.802896   -1.058088   -2.846953
    115          1           0       -8.523877    0.880287   -4.577340
    116          1           0      -10.143225    0.473831   -5.256247
    117          1           0       -9.018996   -0.731498   -4.996070
    118          1           0      -11.837427   -0.000815   -3.994977
    119          1           0      -11.657371    1.234450   -2.665298
    120          1           0      -11.564651   -1.097211   -1.339144
    121          1           0      -12.324758   -1.698715   -2.889438
    122          1           0      -14.276124   -0.951742   -2.241508
    123          1           0      -13.686644    0.691133   -2.047254
    124          1           0      -13.388192   -1.142791    0.271050
    125          1           0      -16.001997   -0.080756   -0.688156
    126          1           0      -15.709039   -0.275370    1.030850
    127          1           0      -15.648566   -1.626894   -0.071660
    128          1           0      -14.346354    1.531856    1.177464
    129          1           0      -13.381346    1.785746   -0.271054
    130          1           0      -11.751539    2.033259    1.110474
    131          1           0      -11.563757    0.487030    0.527216
    132          1           0      -11.888087   -0.311142    2.889789
    133          1           0      -13.314449    0.729191    2.906767
    134          1           0      -10.986533    2.436244    2.881264
    135          1           0       -9.753122    0.562299    3.775127
    136          1           0      -10.916605    0.383743    5.140277
    137          1           0       -9.924380    1.743245    5.111190
    138          1           0      -13.439048    2.461035    4.343742
    139          1           0      -12.382363    3.659359    3.894268
    140          1           0      -12.073777    2.841665    5.414050
 ---------------------------------------------------------------------

 SCF Done:  E(RZINDO/S) =  -474.191651428     A.U. after   19 cycles

 Excitation energies and oscillator strengths:

 Excited State   1:      Singlet-A      1.1984 eV 1034.61 nm  f=0.6196  <S**2>=0.000
     175 ->178         0.17053
     176 ->177         0.66728
 This state for optimization and/or second-order correction.
 Total Energy, E(CIS/TDA) =  -474.147612396
 Copying the excited state density for this state as the 1-particle RhoCI density.

 Excited State   2:      Singlet-A      1.8935 eV  654.80 nm  f=0.1355  <S**2>=0.000
     175 ->177         0.58930
     176 ->178        -0.35539

 Excited State   3:      Singlet-A      2.9889 eV  414.81 nm  f=0.0103  <S**2>=0.000
     168 ->177         0.22300
     168 ->178        -0.10388
     168 ->179        -0.25239
     168 ->180        -0.12910
     168 ->182         0.11341
     168 ->185        -0.12703
     171 ->177         0.23487
     172 ->177         0.14835
     174 ->177         0.41438
     176 ->179        -0.11127

 Excited State   4:      Singlet-A      3.0132 eV  411.47 nm  f=0.0258  <S**2>=0.000
     168 ->177         0.21071
     168 ->179        -0.26129
     168 ->180        -0.10712
     168 ->182         0.10164
     168 ->185        -0.13309
     169 ->177        -0.17197
     169 ->178         0.11454
     169 ->179        -0.19136
     169 ->180         0.18341
     169 ->181         0.12960
     169 ->185        -0.13104
     169 ->187        -0.11705
     172 ->177        -0.14514
     174 ->177        -0.28608

 Excited State   5:      Singlet-A      3.0345 eV  408.59 nm  f=0.1291  <S**2>=0.000
     168 ->177         0.14388
     168 ->179        -0.13868
     169 ->177         0.18776
     169 ->178        -0.12458
     169 ->179         0.22373
     169 ->180        -0.19304
     169 ->181        -0.13798
     169 ->185         0.14732
     169 ->187         0.12245
     172 ->177        -0.15143
     174 ->177        -0.28106
     175 ->177        -0.12449
     176 ->178        -0.22507

 The electronic state is 1-A.
 Alpha  occ. eigenvalues --   -1.84458  -1.79359  -1.78457  -1.75245  -1.72307
 Alpha  occ. eigenvalues --   -1.69299  -1.65489  -1.61184  -1.60682  -1.56561
 Alpha  occ. eigenvalues --   -1.54535  -1.52245  -1.49186  -1.48894  -1.45258
 Alpha  occ. eigenvalues --   -1.44839  -1.43942  -1.40063  -1.39582  -1.38397
 Alpha  occ. eigenvalues --   -1.36560  -1.34751  -1.34216  -1.31003  -1.29382
 Alpha  occ. eigenvalues --   -1.28180  -1.24678  -1.21180  -1.20099  -1.17805
 Alpha  occ. eigenvalues --   -1.17165  -1.16308  -1.15423  -1.14476  -1.12964
 Alpha  occ. eigenvalues --   -1.12831  -1.10945  -1.09718  -1.05055  -1.03777
 Alpha  occ. eigenvalues --   -1.01723  -1.01196  -0.98652  -0.98311  -0.96576
 Alpha  occ. eigenvalues --   -0.95394  -0.94844  -0.94638  -0.92580  -0.91963
 Alpha  occ. eigenvalues --   -0.91880  -0.89767  -0.88805  -0.88293  -0.87008
 Alpha  occ. eigenvalues --   -0.85877  -0.84726  -0.83457  -0.80771  -0.80288
 Alpha  occ. eigenvalues --   -0.80196  -0.79660  -0.77909  -0.77255  -0.76277
 Alpha  occ. eigenvalues --   -0.75629  -0.75335  -0.74470  -0.73971  -0.73498
 Alpha  occ. eigenvalues --   -0.73003  -0.72497  -0.72005  -0.71466  -0.70448
 Alpha  occ. eigenvalues --   -0.70193  -0.69578  -0.69006  -0.68429  -0.68402
 Alpha  occ. eigenvalues --   -0.67647  -0.67398  -0.66966  -0.66252  -0.65785
 Alpha  occ. eigenvalues --   -0.65660  -0.65104  -0.64425  -0.64283  -0.63505
 Alpha  occ. eigenvalues --   -0.63255  -0.62958  -0.62764  -0.62653  -0.61722
 Alpha  occ. eigenvalues --   -0.61677  -0.61213  -0.60620  -0.60465  -0.59883
 Alpha  occ. eigenvalues --   -0.59498  -0.59061  -0.58830  -0.58252  -0.58056
 Alpha  occ. eigenvalues --   -0.57367  -0.56751  -0.56477  -0.56086  -0.55901
 Alpha  occ. eigenvalues --   -0.55780  -0.55383  -0.55240  -0.55039  -0.54931
 Alpha  occ. eigenvalues --   -0.54258  -0.54017  -0.53576  -0.53268  -0.52891
 Alpha  occ. eigenvalues --   -0.52490  -0.52341  -0.52276  -0.52045  -0.51867
 Alpha  occ. eigenvalues --   -0.51628  -0.51503  -0.51143  -0.50911  -0.50639
 Alpha  occ. eigenvalues --   -0.50097  -0.50031  -0.49914  -0.49784  -0.49325
 Alpha  occ. eigenvalues --   -0.48963  -0.48914  -0.48277  -0.48188  -0.47643
 Alpha  occ. eigenvalues --   -0.47130  -0.47101  -0.46976  -0.46557  -0.46476
 Alpha  occ. eigenvalues --   -0.46404  -0.46324  -0.45677  -0.45571  -0.45391
 Alpha  occ. eigenvalues --   -0.44897  -0.44787  -0.44603  -0.43921  -0.43769
 Alpha  occ. eigenvalues --   -0.43658  -0.43462  -0.43129  -0.43090  -0.42935
 Alpha  occ. eigenvalues --   -0.42627  -0.42132  -0.41917  -0.39510  -0.39260
 Alpha  occ. eigenvalues --   -0.38373  -0.37916  -0.36189  -0.34770  -0.34369
 Alpha  occ. eigenvalues --   -0.33779  -0.32608  -0.31777  -0.31565  -0.26730
 Alpha  occ. eigenvalues --   -0.22093
 Alpha virt. eigenvalues --   -0.09284  -0.01704  -0.00577   0.01146   0.01320
 Alpha virt. eigenvalues --    0.02093   0.02928   0.03341   0.04512   0.04618
 Alpha virt. eigenvalues --    0.05870   0.06204   0.07527   0.07928   0.08084

 Mulliken charges:
               1
     1  Mg   0.425771
     2  C   -0.063004
     3  C   -0.096616
     4  C   -0.041222
     5  C   -0.076498
     6  N   -0.290272
     7  C    0.129750
     8  C   -0.006138
     9  C    0.000665
    10  C    0.128729
    11  C   -0.056101
    12  C   -0.017651
    13  C    0.010028
    14  C    0.468949
    15  O   -0.515409
    16  O   -0.272901
    17  N   -0.330333
    18  C    0.095021
    19  C   -0.008423
    20  C   -0.057805
    21  C    0.122684
    22  C   -0.035665
    23  C    0.317053
    24  O   -0.536838
    25  C   -0.040604
    26  N   -0.273854
    27  C    0.109547
    28  C    0.004321
    29  C   -0.012775
    30  C    0.166335
    31  C   -0.049401
    32  C   -0.039472
    33  C   -0.053010
    34  N   -0.331660
    35  C    0.120069
    36  C    0.044090
    37  C   -0.058472
    38  C    0.137219
    39  C   -0.039496
    40  C    0.350071
    41  O   -0.491920
    42  C    0.050772
    43  C    0.485867
    44  O   -0.503356
    45  O   -0.269676
    46  C    0.076177
    47  C    0.100278
    48  C   -0.089006
    49  C   -0.008739
    50  C   -0.039743
    51  C   -0.016404
    52  C   -0.037328
    53  C   -0.036381
    54  C   -0.015222
    55  C   -0.060707
    56  C   -0.043585
    57  C   -0.034192
    58  C   -0.039608
    59  C    0.001751
    60  C   -0.046724
    61  C   -0.041386
    62  C   -0.040757
    63  C   -0.030851
    64  C   -0.005678
    65  C   -0.052698
    66  C   -0.056509
    67  H    0.021436
    68  H    0.055020
    69  H    0.023773
    70  H    0.045536
    71  H    0.032184
    72  H    0.023228
    73  H    0.031808
    74  H    0.020724
    75  H    0.030659
    76  H    0.028573
    77  H    0.042891
    78  H    0.041486
    79  H    0.026937
    80  H    0.038138
    81  H    0.024164
    82  H    0.040939
    83  H    0.024074
    84  H    0.036822
    85  H    0.030890
    86  H    0.029075
    87  H    0.023013
    88  H    0.026607
    89  H    0.027311
    90  H    0.011177
    91  H    0.028407
    92  H    0.029799
    93  H    0.025015
    94  H    0.032552
    95  H    0.027199
    96  H    0.038706
    97  H    0.032352
    98  H    0.060870
    99  H    0.053083
   100  H    0.017873
   101  H    0.046912
   102  H    0.051003
   103  H    0.049868
   104  H    0.030768
   105  H    0.028854
   106  H    0.031887
   107  H    0.018114
   108  H    0.016876
   109  H    0.018722
   110  H    0.010612
   111  H    0.021952
   112  H    0.022449
   113  H    0.015719
   114  H    0.019572
   115  H    0.021407
   116  H    0.017873
   117  H    0.011669
   118  H    0.014814
   119  H    0.027847
   120  H    0.020853
   121  H    0.027871
   122  H    0.011806
   123  H    0.019740
   124  H    0.021472
   125  H    0.013699
   126  H    0.012423
   127  H    0.008112
   128  H    0.032456
   129  H    0.009855
   130  H    0.008116
   131  H    0.019799
   132  H    0.023313
   133  H    0.019364
   134  H    0.018796
   135  H    0.015362
   136  H    0.017369
   137  H    0.013030
   138  H    0.015924
   139  H    0.007775
   140  H    0.022567
 Sum of Mulliken charges =   0.00000

 Dipole moment (field-independent basis, Debye):
    X=             -3.4230    Y=              2.7189    Z=              1.0922  Tot=              4.5058
 N-N= 4.279368735508D+03 E-N= 0.000000000000D+00  KE=-9.232664307943D+03
 Leave Link  601 at Sun May  1 01:03:00 2022, MaxMem=  6710886400 cpu:               0.8 elap:               0.1
 (Enter /sw/apps/gaussian-16.0/g16/l9999.exe)
 1\1\GINC-BP1-COMPUTE165\SP\RZINDO CIS\STO-3G\C55H74Mg1N4O6\OF15641\01-
 May-2022\0\\#p ZINDO=(nstates=5)\\step_951_chromophore_25 ZINDO\\0,1\M
 g,0,-2.534,34.509,26.894\C,0,-3.425,32.595,29.875\C,0,-1.279,36.824,28
 .935\C,0,-2.121,36.412,24.055\C,0,-4.073,32.041,25.077\N,0,-2.395,34.6
 32,29.063\C,0,-2.754,33.785,30.152\C,0,-2.324,34.285,31.549\C,0,-1.625
 ,35.637,31.132\C,0,-1.755,35.685,29.607\C,0,-2.277,36.853,31.855\C,0,-
 1.401,33.21,32.287\C,0,-1.975,32.771,33.618\C,0,-1.029,32.823,34.783\O

 Normal termination of Gaussian 16 at Sun May  1 01:03:00 2022.
