 Gaussian 16, Revision A.03,
 Gaussian 16:  ES64L-G16RevA.03 25-Dec-2016

 ------------------------------
 #p blyp/Def2SVP td=(nstates=5)
 ------------------------------

 --------------------------------------------------
 step_1151_chromophore_7 TDDFT with blyp functional
 --------------------------------------------------
 Symbolic Z-matrix:
 Charge =  0 Multiplicity = 1

                         Standard orientation:
 ---------------------------------------------------------------------
 Center     Atomic      Atomic             Coordinates (Angstroms)
 Number     Number       Type             X           Y           Z
 ---------------------------------------------------------------------
      1         12           0        6.040948    0.425050   -0.110832
      2          6           0        3.785844   -2.231875    0.236231
      3          6           0        3.417359    2.237104   -1.532424
      4          6           0        8.084981    3.009441   -0.170901
      5          6           0        8.679564   -1.624278    0.934263
      6          7           0        3.903484    0.005115   -0.625061
      7          6           0        3.131747   -1.169046   -0.387269
      8          6           0        1.633792   -1.000932   -0.631409
      9          6           0        1.695285    0.317830   -1.521640
     10          6           0        3.091437    0.922933   -1.170552
     11          6           0        1.462612    0.026380   -3.038095
     12          6           0        0.731399   -0.819575    0.671198
     13          6           0       -0.556913   -1.730258    0.766346
     14          6           0       -1.507090   -1.789794   -0.495285
     15          8           0       -1.219846   -1.759148   -1.701271
     16          8           0       -2.850599   -1.890162   -0.088776
     17          7           0        5.750695    2.352249   -0.601668
     18          6           0        4.652307    2.893969   -1.235535
     19          6           0        4.881067    4.228373   -1.523974
     20          6           0        6.210860    4.552423   -1.171676
     21          6           0        6.781535    3.321007   -0.592575
     22          6           0        3.800305    5.173006   -2.039018
     23          6           0        6.953763    5.825617   -1.371232
     24          8           0        8.152187    5.951334   -1.061830
     25          6           0        6.277315    7.004823   -1.975969
     26          7           0        8.134944    0.640728    0.370677
     27          6           0        8.686536    1.864819    0.337920
     28          6           0       10.167251    1.846680    0.909958
     29          6           0       10.355537    0.307476    1.247494
     30          6           0        9.029532   -0.292454    0.784738
     31          6           0       11.301494    2.511114   -0.009277
     32          6           0       10.614574   -0.065107    2.740113
     33          6           0       12.070411    0.088618    3.275963
     34          7           0        6.241097   -1.582703    0.434942
     35          6           0        7.365457   -2.259712    0.814464
     36          6           0        6.860406   -3.618418    1.204698
     37          6           0        5.437065   -3.601294    1.039085
     38          6           0        5.129509   -2.336478    0.567268
     39          6           0        7.691439   -4.799445    1.680726
     40          6           0        4.180802   -4.354521    1.230392
     41          8           0        4.030973   -5.416844    1.825683
     42          6           0        3.090854   -3.500301    0.658831
     43          6           0        2.265020   -4.244719   -0.433310
     44          8           0        2.377997   -4.034694   -1.619008
     45          8           0        1.162809   -4.882525    0.083907
     46          6           0        0.377312   -5.573643   -0.906716
     47          6           0       -3.762589   -1.930231   -1.231925
     48          6           0       -5.167332   -1.861135   -0.657648
     49          6           0       -6.260884   -1.091145   -1.075721
     50          6           0       -6.121719    0.092674   -1.993924
     51          6           0       -7.601864   -1.221721   -0.464441
     52          6           0       -8.702256   -1.850464   -1.396922
     53          6           0       -9.738547   -0.892830   -2.003847
     54          6           0      -11.247582   -1.272286   -2.047461
     55          6           0      -11.537522   -2.467816   -3.017747
     56          6           0      -12.158014   -0.023020   -2.355119
     57          6           0      -13.460829   -0.008586   -1.469342
     58          6           0      -13.310394    1.239654   -0.541542
     59          6           0      -13.748333    1.229078    0.954439
     60          6           0      -15.210460    0.795279    1.055572
     61          6           0      -13.516426    2.638171    1.606824
     62          6           0      -13.195307    2.645172    3.126789
     63          6           0      -11.914521    3.446252    3.423484
     64          6           0      -10.717752    2.471298    3.735646
     65          6           0      -10.114565    2.907303    5.110989
     66          6           0       -9.607848    2.487905    2.683466
     67          1           0        2.538037    2.679852   -2.003664
     68          1           0        8.801016    3.829909   -0.087229
     69          1           0        9.413266   -2.391201    1.189095
     70          1           0        1.212040   -1.867997   -1.137881
     71          1           0        0.911885    1.042337   -1.299648
     72          1           0        1.296551   -1.022595   -3.284211
     73          1           0        2.361308    0.324618   -3.578547
     74          1           0        0.640742    0.639704   -3.405720
     75          1           0        0.393070    0.213646    0.749321
     76          1           0        1.250853   -1.020616    1.608041
     77          1           0       -1.089634   -1.254669    1.589750
     78          1           0       -0.391349   -2.705437    1.224068
     79          1           0        2.819699    4.725464   -2.201146
     80          1           0        4.149319    5.746819   -2.898144
     81          1           0        3.638646    5.925925   -1.268336
     82          1           0        5.474790    7.269388   -1.287312
     83          1           0        5.860924    6.788679   -2.959025
     84          1           0        6.996236    7.820738   -2.049398
     85          1           0        9.997509    2.535925    1.736786
     86          1           0       11.223299   -0.054671    0.697369
     87          1           0       10.795539    2.580942   -0.972725
     88          1           0       12.189906    1.884361   -0.080284
     89          1           0       11.556512    3.460376    0.461788
     90          1           0       10.289471   -1.065584    3.028581
     91          1           0        9.919131    0.587073    3.268729
     92          1           0       12.727132    0.505490    2.513339
     93          1           0       12.421319   -0.861705    3.678413
     94          1           0       12.003552    0.753495    4.138092
     95          1           0        8.740008   -4.508269    1.625365
     96          1           0        7.495448   -5.704679    1.106402
     97          1           0        7.524056   -5.059230    2.726142
     98          1           0        2.434373   -3.362787    1.517130
     99          1           0        0.756423   -5.958878   -1.853413
    100          1           0       -0.562079   -5.050464   -1.087429
    101          1           0        0.109500   -6.411270   -0.263414
    102          1           0       -3.648077   -2.940108   -1.625419
    103          1           0       -3.669764   -1.230039   -2.062407
    104          1           0       -5.425400   -2.780662   -0.131544
    105          1           0       -5.099235    0.469620   -2.015579
    106          1           0       -6.797828    0.862437   -1.623909
    107          1           0       -6.341680   -0.167072   -3.029497
    108          1           0       -7.923073   -0.266838   -0.048549
    109          1           0       -7.555071   -2.048115    0.244976
    110          1           0       -9.254550   -2.632009   -0.874494
    111          1           0       -8.253122   -2.408085   -2.218917
    112          1           0       -9.499176   -0.752024   -3.057669
    113          1           0       -9.504982    0.097978   -1.614463
    114          1           0      -11.609379   -1.657926   -1.094075
    115          1           0      -10.652014   -2.872080   -3.507963
    116          1           0      -12.240375   -2.243410   -3.820344
    117          1           0      -11.967979   -3.230122   -2.369579
    118          1           0      -12.649758   -0.108950   -3.324530
    119          1           0      -11.525121    0.863142   -2.416659
    120          1           0      -13.712073   -0.886109   -0.873567
    121          1           0      -14.274215    0.225085   -2.155519
    122          1           0      -13.956770    2.011568   -0.958457
    123          1           0      -12.327845    1.694339   -0.663165
    124          1           0      -13.101645    0.509698    1.457017
    125          1           0      -15.765892    1.197639    1.902125
    126          1           0      -15.297133   -0.289851    1.116223
    127          1           0      -15.715846    1.028349    0.118250
    128          1           0      -14.364371    3.283861    1.376737
    129          1           0      -12.671666    3.083579    1.080886
    130          1           0      -13.103428    1.639288    3.538331
    131          1           0      -13.907979    3.086016    3.824005
    132          1           0      -12.111825    4.085294    4.284341
    133          1           0      -11.618029    4.105783    2.607343
    134          1           0      -10.986036    1.458198    4.034613
    135          1           0       -9.751469    1.990141    5.575171
    136          1           0      -10.786331    3.352828    5.844480
    137          1           0       -9.262457    3.557871    4.915952
    138          1           0       -9.585356    1.539787    2.146926
    139          1           0       -8.600083    2.594464    3.085183
    140          1           0       -9.726274    3.289835    1.954550
 ---------------------------------------------------------------------

 SCF Done:  E(RB-LYP) =  -3007.38267327     A.U. after   20 cycles

 Excitation energies and oscillator strengths:

 Excited State   1:      Singlet-A      1.8246 eV  679.52 nm  f=0.2811  <S**2>=0.000
     244 -> 247        0.16424
     245 -> 248        0.18573
     246 -> 247        0.66890
     246 <- 247       -0.14160
 This state for optimization and/or second-order correction.
 Total Energy, E(TD-HF/TD-DFT) =  -3007.31562118
 Copying the excited state density for this state as the 1-particle RhoCI density.

 Excited State   2:      Singlet-A      1.8444 eV  672.23 nm  f=0.0198  <S**2>=0.000
     244 -> 247        0.68039
     246 -> 247       -0.15834

 Excited State   3:      Singlet-A      1.9410 eV  638.77 nm  f=0.0112  <S**2>=0.000
     243 -> 247        0.64878
     245 -> 247        0.26038

 Excited State   4:      Singlet-A      2.0737 eV  597.90 nm  f=0.0811  <S**2>=0.000
     243 -> 247       -0.27269
     245 -> 247        0.58942
     246 -> 248       -0.23516

 Excited State   5:      Singlet-A      2.4442 eV  507.25 nm  f=0.0075  <S**2>=0.000
     242 -> 247        0.69290

 The electronic state is 1-A.
 Alpha  occ. eigenvalues --  -46.26283 -18.82845 -18.82523 -18.78410 -18.77231
 Alpha  occ. eigenvalues --  -18.75304 -18.74757 -14.02965 -14.02787 -14.00990
 Alpha  occ. eigenvalues --  -14.00414 -10.05577 -10.04568  -9.99393  -9.99114
 Alpha  occ. eigenvalues --   -9.98038  -9.97484  -9.96307  -9.96170  -9.96138
 Alpha  occ. eigenvalues --   -9.96135  -9.96005  -9.95811  -9.95316  -9.94935
 Alpha  occ. eigenvalues --   -9.94249  -9.94168  -9.94143  -9.94111  -9.93889
 Alpha  occ. eigenvalues --   -9.93823  -9.93791  -9.93704  -9.93515  -9.93235
 Alpha  occ. eigenvalues --   -9.93118  -9.93004  -9.92955  -9.92722  -9.92579
 Alpha  occ. eigenvalues --   -9.92506  -9.92497  -9.92487  -9.92401  -9.92399
 Alpha  occ. eigenvalues --   -9.92334  -9.92130  -9.91931  -9.91923  -9.91856
 Alpha  occ. eigenvalues --   -9.91804  -9.91785  -9.91770  -9.91605  -9.91470
 Alpha  occ. eigenvalues --   -9.91450  -9.91161  -9.91120  -9.91093  -9.91022
 Alpha  occ. eigenvalues --   -9.90975  -9.90909  -9.90662  -9.90653  -9.90395
 Alpha  occ. eigenvalues --   -9.90389  -2.90962  -1.71407  -1.70856  -1.70654
 Alpha  occ. eigenvalues --   -0.98940  -0.97663  -0.90906  -0.90728  -0.89957
 Alpha  occ. eigenvalues --   -0.89908  -0.86237  -0.85456  -0.84905  -0.84063
 Alpha  occ. eigenvalues --   -0.76118  -0.73812  -0.72667  -0.71990  -0.71885
 Alpha  occ. eigenvalues --   -0.71700  -0.71177  -0.70667  -0.70255  -0.69937
 Alpha  occ. eigenvalues --   -0.68813  -0.68376  -0.67867  -0.67226  -0.66767
 Alpha  occ. eigenvalues --   -0.66381  -0.65720  -0.65338  -0.65169  -0.64325
 Alpha  occ. eigenvalues --   -0.64151  -0.62263  -0.62125  -0.61657  -0.61012
 Alpha  occ. eigenvalues --   -0.60893  -0.60069  -0.59634  -0.59303  -0.58668
 Alpha  occ. eigenvalues --   -0.57961  -0.57112  -0.56243  -0.55581  -0.54369
 Alpha  occ. eigenvalues --   -0.54236  -0.53377  -0.53020  -0.52458  -0.51243
 Alpha  occ. eigenvalues --   -0.50962  -0.50757  -0.50651  -0.49994  -0.49798
 Alpha  occ. eigenvalues --   -0.49579  -0.49526  -0.48857  -0.48538  -0.46524
 Alpha  occ. eigenvalues --   -0.46143  -0.45756  -0.45506  -0.44907  -0.44840
 Alpha  occ. eigenvalues --   -0.44030  -0.43497  -0.43262  -0.42846  -0.42604
 Alpha  occ. eigenvalues --   -0.41823  -0.41546  -0.41404  -0.41128  -0.40859
 Alpha  occ. eigenvalues --   -0.40753  -0.40261  -0.40092  -0.40055  -0.39771
 Alpha  occ. eigenvalues --   -0.39738  -0.39642  -0.39440  -0.39374  -0.39109
 Alpha  occ. eigenvalues --   -0.39013  -0.38947  -0.38282  -0.38152  -0.38003
 Alpha  occ. eigenvalues --   -0.37950  -0.37568  -0.37367  -0.37313  -0.36880
 Alpha  occ. eigenvalues --   -0.36675  -0.36543  -0.36463  -0.36253  -0.35991
 Alpha  occ. eigenvalues --   -0.35919  -0.35813  -0.35689  -0.35500  -0.35451
 Alpha  occ. eigenvalues --   -0.35371  -0.35138  -0.34933  -0.34576  -0.34440
 Alpha  occ. eigenvalues --   -0.34303  -0.34242  -0.33978  -0.33861  -0.33734
 Alpha  occ. eigenvalues --   -0.33631  -0.33400  -0.33329  -0.33209  -0.33023
 Alpha  occ. eigenvalues --   -0.32878  -0.32540  -0.32521  -0.32412  -0.32220
 Alpha  occ. eigenvalues --   -0.31928  -0.31761  -0.31551  -0.31522  -0.31350
 Alpha  occ. eigenvalues --   -0.31311  -0.31234  -0.31184  -0.30971  -0.30722
 Alpha  occ. eigenvalues --   -0.30600  -0.29862  -0.29849  -0.29727  -0.29671
 Alpha  occ. eigenvalues --   -0.29621  -0.29478  -0.29286  -0.29254  -0.29167
 Alpha  occ. eigenvalues --   -0.28874  -0.28529  -0.28331  -0.28185  -0.27892
 Alpha  occ. eigenvalues --   -0.27706  -0.27601  -0.27338  -0.26856  -0.26103
 Alpha  occ. eigenvalues --   -0.26101  -0.25925  -0.25892  -0.25608  -0.25372
 Alpha  occ. eigenvalues --   -0.25085  -0.25049  -0.23811  -0.23648  -0.23358
 Alpha  occ. eigenvalues --   -0.23279  -0.23018  -0.22386  -0.21815  -0.20502
 Alpha  occ. eigenvalues --   -0.20409  -0.19818  -0.18493  -0.18087  -0.17054
 Alpha  occ. eigenvalues --   -0.15750
 Alpha virt. eigenvalues --   -0.11388  -0.06734  -0.05818  -0.04521  -0.04256
 Alpha virt. eigenvalues --   -0.03732  -0.03448  -0.01432  -0.00400   0.00117
 Alpha virt. eigenvalues --    0.00857   0.01749   0.01873   0.02496   0.03106

 Mulliken charges:
               1
     1  Mg   0.691255
     2  C    0.013688
     3  C   -0.085221
     4  C   -0.013864
     5  C   -0.051303
     6  N   -0.216334
     7  C   -0.082284
     8  C    0.041510
     9  C   -0.023631
    10  C    0.002884
    11  C    0.134688
    12  C    0.114410
    13  C    0.060679
    14  C    0.137663
    15  O   -0.205933
    16  O   -0.280305
    17  N   -0.349201
    18  C    0.210721
    19  C   -0.148677
    20  C    0.080902
    21  C    0.119964
    22  C    0.197636
    23  C   -0.111727
    24  O   -0.183773
    25  C    0.146916
    26  N   -0.200499
    27  C   -0.036572
    28  C   -0.014435
    29  C    0.088956
    30  C    0.044482
    31  C    0.122358
    32  C    0.036178
    33  C    0.087498
    34  N   -0.256383
    35  C    0.063582
    36  C   -0.192853
    37  C    0.064696
    38  C    0.115203
    39  C    0.164792
    40  C   -0.083211
    41  O   -0.135299
    42  C    0.091852
    43  C    0.131272
    44  O   -0.166077
    45  O   -0.258744
    46  C    0.202556
    47  C    0.301003
    48  C   -0.069617
    49  C   -0.179032
    50  C    0.144593
    51  C    0.161604
    52  C    0.063641
    53  C    0.067745
    54  C   -0.050193
    55  C    0.095635
    56  C    0.094057
    57  C    0.106916
    58  C    0.014298
    59  C   -0.044809
    60  C    0.118668
    61  C    0.106424
    62  C    0.099047
    63  C    0.098504
    64  C   -0.090271
    65  C    0.064411
    66  C    0.111026
    67  H   -0.068507
    68  H   -0.048542
    69  H   -0.059811
    70  H    0.012679
    71  H   -0.037742
    72  H    0.017175
    73  H   -0.021325
    74  H   -0.013650
    75  H   -0.015920
    76  H   -0.019138
    77  H   -0.007019
    78  H    0.022773
    79  H   -0.013309
    80  H   -0.010013
    81  H   -0.006602
    82  H   -0.000661
    83  H    0.010519
    84  H   -0.010131
    85  H   -0.011512
    86  H   -0.031700
    87  H    0.010043
    88  H   -0.001713
    89  H    0.007428
    90  H   -0.017949
    91  H   -0.027332
    92  H   -0.003233
    93  H   -0.005583
    94  H   -0.008810
    95  H   -0.030038
    96  H    0.011260
    97  H    0.003347
    98  H    0.005019
    99  H    0.035400
   100  H    0.010293
   101  H    0.006392
   102  H   -0.014367
   103  H    0.000093
   104  H   -0.033398
   105  H   -0.005715
   106  H   -0.009704
   107  H    0.005875
   108  H    0.001170
   109  H   -0.037359
   110  H   -0.033534
   111  H   -0.029489
   112  H   -0.038418
   113  H   -0.041937
   114  H   -0.033836
   115  H   -0.016096
   116  H   -0.013933
   117  H   -0.014913
   118  H   -0.041986
   119  H   -0.022332
   120  H   -0.015177
   121  H   -0.034245
   122  H   -0.041895
   123  H   -0.030432
   124  H   -0.042010
   125  H   -0.012663
   126  H   -0.025587
   127  H   -0.024115
   128  H   -0.032964
   129  H   -0.038631
   130  H   -0.035026
   131  H   -0.042301
   132  H   -0.039851
   133  H   -0.030239
   134  H   -0.027241
   135  H   -0.025893
   136  H   -0.014555
   137  H   -0.017768
   138  H   -0.015583
   139  H   -0.021826
   140  H   -0.017872
 Sum of Mulliken charges =  -0.00000

 Dipole moment (field-independent basis, Debye):
    X=             -4.2286    Y=              1.7152    Z=              0.1900  Tot=              4.5672
 Quadrupole moment (field-independent basis, Debye-Ang):
   XX=           -379.8877   YY=           -424.8438   ZZ=           -406.7267
   XY=             -2.4485   XZ=             17.4696   YZ=              2.3130

 Normal termination of Gaussian 16 at Wed May  4 01:38:32 2022.
