 Gaussian 16, Revision A.03,
 Gaussian 16:  ES64L-G16RevA.03 25-Dec-2016

 -----------------------------------
 #p cam-b3lyp/Def2SVP td=(nstates=5)
 -----------------------------------

 -------------------------------------------------------
 step_1151_chromophore_7 TDDFT with cam-b3lyp functional
 -------------------------------------------------------
 Symbolic Z-matrix:
 Charge =  0 Multiplicity = 1

                         Standard orientation:
 ---------------------------------------------------------------------
 Center     Atomic      Atomic             Coordinates (Angstroms)
 Number     Number       Type             X           Y           Z
 ---------------------------------------------------------------------
      1         12           0        6.040948    0.425050   -0.110832
      2          6           0        3.785844   -2.231875    0.236231
      3          6           0        3.417359    2.237104   -1.532424
      4          6           0        8.084981    3.009441   -0.170901
      5          6           0        8.679564   -1.624278    0.934263
      6          7           0        3.903484    0.005115   -0.625061
      7          6           0        3.131747   -1.169046   -0.387269
      8          6           0        1.633792   -1.000932   -0.631409
      9          6           0        1.695285    0.317830   -1.521640
     10          6           0        3.091437    0.922933   -1.170552
     11          6           0        1.462612    0.026380   -3.038095
     12          6           0        0.731399   -0.819575    0.671198
     13          6           0       -0.556913   -1.730258    0.766346
     14          6           0       -1.507090   -1.789794   -0.495285
     15          8           0       -1.219846   -1.759148   -1.701271
     16          8           0       -2.850599   -1.890162   -0.088776
     17          7           0        5.750695    2.352249   -0.601668
     18          6           0        4.652307    2.893969   -1.235535
     19          6           0        4.881067    4.228373   -1.523974
     20          6           0        6.210860    4.552423   -1.171676
     21          6           0        6.781535    3.321007   -0.592575
     22          6           0        3.800305    5.173006   -2.039018
     23          6           0        6.953763    5.825617   -1.371232
     24          8           0        8.152187    5.951334   -1.061830
     25          6           0        6.277315    7.004823   -1.975969
     26          7           0        8.134944    0.640728    0.370677
     27          6           0        8.686536    1.864819    0.337920
     28          6           0       10.167251    1.846680    0.909958
     29          6           0       10.355537    0.307476    1.247494
     30          6           0        9.029532   -0.292454    0.784738
     31          6           0       11.301494    2.511114   -0.009277
     32          6           0       10.614574   -0.065107    2.740113
     33          6           0       12.070411    0.088618    3.275963
     34          7           0        6.241097   -1.582703    0.434942
     35          6           0        7.365457   -2.259712    0.814464
     36          6           0        6.860406   -3.618418    1.204698
     37          6           0        5.437065   -3.601294    1.039085
     38          6           0        5.129509   -2.336478    0.567268
     39          6           0        7.691439   -4.799445    1.680726
     40          6           0        4.180802   -4.354521    1.230392
     41          8           0        4.030973   -5.416844    1.825683
     42          6           0        3.090854   -3.500301    0.658831
     43          6           0        2.265020   -4.244719   -0.433310
     44          8           0        2.377997   -4.034694   -1.619008
     45          8           0        1.162809   -4.882525    0.083907
     46          6           0        0.377312   -5.573643   -0.906716
     47          6           0       -3.762589   -1.930231   -1.231925
     48          6           0       -5.167332   -1.861135   -0.657648
     49          6           0       -6.260884   -1.091145   -1.075721
     50          6           0       -6.121719    0.092674   -1.993924
     51          6           0       -7.601864   -1.221721   -0.464441
     52          6           0       -8.702256   -1.850464   -1.396922
     53          6           0       -9.738547   -0.892830   -2.003847
     54          6           0      -11.247582   -1.272286   -2.047461
     55          6           0      -11.537522   -2.467816   -3.017747
     56          6           0      -12.158014   -0.023020   -2.355119
     57          6           0      -13.460829   -0.008586   -1.469342
     58          6           0      -13.310394    1.239654   -0.541542
     59          6           0      -13.748333    1.229078    0.954439
     60          6           0      -15.210460    0.795279    1.055572
     61          6           0      -13.516426    2.638171    1.606824
     62          6           0      -13.195307    2.645172    3.126789
     63          6           0      -11.914521    3.446252    3.423484
     64          6           0      -10.717752    2.471298    3.735646
     65          6           0      -10.114565    2.907303    5.110989
     66          6           0       -9.607848    2.487905    2.683466
     67          1           0        2.538037    2.679852   -2.003664
     68          1           0        8.801016    3.829909   -0.087229
     69          1           0        9.413266   -2.391201    1.189095
     70          1           0        1.212040   -1.867997   -1.137881
     71          1           0        0.911885    1.042337   -1.299648
     72          1           0        1.296551   -1.022595   -3.284211
     73          1           0        2.361308    0.324618   -3.578547
     74          1           0        0.640742    0.639704   -3.405720
     75          1           0        0.393070    0.213646    0.749321
     76          1           0        1.250853   -1.020616    1.608041
     77          1           0       -1.089634   -1.254669    1.589750
     78          1           0       -0.391349   -2.705437    1.224068
     79          1           0        2.819699    4.725464   -2.201146
     80          1           0        4.149319    5.746819   -2.898144
     81          1           0        3.638646    5.925925   -1.268336
     82          1           0        5.474790    7.269388   -1.287312
     83          1           0        5.860924    6.788679   -2.959025
     84          1           0        6.996236    7.820738   -2.049398
     85          1           0        9.997509    2.535925    1.736786
     86          1           0       11.223299   -0.054671    0.697369
     87          1           0       10.795539    2.580942   -0.972725
     88          1           0       12.189906    1.884361   -0.080284
     89          1           0       11.556512    3.460376    0.461788
     90          1           0       10.289471   -1.065584    3.028581
     91          1           0        9.919131    0.587073    3.268729
     92          1           0       12.727132    0.505490    2.513339
     93          1           0       12.421319   -0.861705    3.678413
     94          1           0       12.003552    0.753495    4.138092
     95          1           0        8.740008   -4.508269    1.625365
     96          1           0        7.495448   -5.704679    1.106402
     97          1           0        7.524056   -5.059230    2.726142
     98          1           0        2.434373   -3.362787    1.517130
     99          1           0        0.756423   -5.958878   -1.853413
    100          1           0       -0.562079   -5.050464   -1.087429
    101          1           0        0.109500   -6.411270   -0.263414
    102          1           0       -3.648077   -2.940108   -1.625419
    103          1           0       -3.669764   -1.230039   -2.062407
    104          1           0       -5.425400   -2.780662   -0.131544
    105          1           0       -5.099235    0.469620   -2.015579
    106          1           0       -6.797828    0.862437   -1.623909
    107          1           0       -6.341680   -0.167072   -3.029497
    108          1           0       -7.923073   -0.266838   -0.048549
    109          1           0       -7.555071   -2.048115    0.244976
    110          1           0       -9.254550   -2.632009   -0.874494
    111          1           0       -8.253122   -2.408085   -2.218917
    112          1           0       -9.499176   -0.752024   -3.057669
    113          1           0       -9.504982    0.097978   -1.614463
    114          1           0      -11.609379   -1.657926   -1.094075
    115          1           0      -10.652014   -2.872080   -3.507963
    116          1           0      -12.240375   -2.243410   -3.820344
    117          1           0      -11.967979   -3.230122   -2.369579
    118          1           0      -12.649758   -0.108950   -3.324530
    119          1           0      -11.525121    0.863142   -2.416659
    120          1           0      -13.712073   -0.886109   -0.873567
    121          1           0      -14.274215    0.225085   -2.155519
    122          1           0      -13.956770    2.011568   -0.958457
    123          1           0      -12.327845    1.694339   -0.663165
    124          1           0      -13.101645    0.509698    1.457017
    125          1           0      -15.765892    1.197639    1.902125
    126          1           0      -15.297133   -0.289851    1.116223
    127          1           0      -15.715846    1.028349    0.118250
    128          1           0      -14.364371    3.283861    1.376737
    129          1           0      -12.671666    3.083579    1.080886
    130          1           0      -13.103428    1.639288    3.538331
    131          1           0      -13.907979    3.086016    3.824005
    132          1           0      -12.111825    4.085294    4.284341
    133          1           0      -11.618029    4.105783    2.607343
    134          1           0      -10.986036    1.458198    4.034613
    135          1           0       -9.751469    1.990141    5.575171
    136          1           0      -10.786331    3.352828    5.844480
    137          1           0       -9.262457    3.557871    4.915952
    138          1           0       -9.585356    1.539787    2.146926
    139          1           0       -8.600083    2.594464    3.085183
    140          1           0       -9.726274    3.289835    1.954550
 ---------------------------------------------------------------------

 SCF Done:  E(RCAM-B3LYP) =  -3007.16555717     A.U. after   18 cycles

 Excitation energies and oscillator strengths:

 Excited State   1:      Singlet-A      1.7255 eV  718.54 nm  f=0.3793  <S**2>=0.000
     245 -> 248        0.17889
     246 -> 247        0.68516
     245 <- 248        0.10529
 This state for optimization and/or second-order correction.
 Total Energy, E(TD-HF/TD-DFT) =  -3007.10214627
 Copying the excited state density for this state as the 1-particle RhoCI density.

 Excited State   2:      Singlet-A      2.2454 eV  552.18 nm  f=0.1454  <S**2>=0.000
     245 -> 247        0.64739
     246 -> 248       -0.26705

 Excited State   3:      Singlet-A      3.3339 eV  371.89 nm  f=0.0059  <S**2>=0.000
     242 -> 247       -0.26906
     244 -> 247        0.64038

 Excited State   4:      Singlet-A      3.4598 eV  358.36 nm  f=0.0222  <S**2>=0.000
     241 -> 247        0.10470
     242 -> 247        0.57971
     244 -> 247        0.25448
     246 -> 248        0.25470

 Excited State   5:      Singlet-A      3.5458 eV  349.66 nm  f=0.0082  <S**2>=0.000
     240 -> 247        0.55724
     240 -> 248       -0.21880
     240 -> 249        0.20470
     240 -> 250       -0.26460

 The electronic state is 1-A.
 Alpha  occ. eigenvalues --  -46.87784 -19.25700 -19.25341 -19.21401 -19.20309
 Alpha  occ. eigenvalues --  -19.18465 -19.18227 -14.41977 -14.41635 -14.39587
 Alpha  occ. eigenvalues --  -14.38693 -10.41013 -10.40014 -10.34598 -10.34563
 Alpha  occ. eigenvalues --  -10.32051 -10.31316 -10.30938 -10.30865 -10.30531
 Alpha  occ. eigenvalues --  -10.30528 -10.30450 -10.30037 -10.29939 -10.28984
 Alpha  occ. eigenvalues --  -10.28565 -10.28219 -10.28179 -10.28110 -10.28037
 Alpha  occ. eigenvalues --  -10.27998 -10.27874 -10.27848 -10.27817 -10.27589
 Alpha  occ. eigenvalues --  -10.27354 -10.27149 -10.27042 -10.27027 -10.27016
 Alpha  occ. eigenvalues --  -10.26268 -10.26257 -10.26251 -10.26167 -10.26149
 Alpha  occ. eigenvalues --  -10.26121 -10.25917 -10.25876 -10.25799 -10.25626
 Alpha  occ. eigenvalues --  -10.25547 -10.25521 -10.25496 -10.25290 -10.25169
 Alpha  occ. eigenvalues --  -10.25116 -10.24845 -10.24781 -10.24706 -10.24607
 Alpha  occ. eigenvalues --  -10.24594 -10.24573 -10.24355 -10.24299 -10.24227
 Alpha  occ. eigenvalues --  -10.23988  -3.16374  -1.91294  -1.90835  -1.90671
 Alpha  occ. eigenvalues --   -1.17448  -1.16046  -1.09258  -1.08650  -1.08571
 Alpha  occ. eigenvalues --   -1.07676  -1.03939  -1.03044  -1.02598  -1.01666
 Alpha  occ. eigenvalues --   -0.93220  -0.90649  -0.89443  -0.88807  -0.88569
 Alpha  occ. eigenvalues --   -0.88376  -0.87837  -0.87223  -0.87061  -0.86579
 Alpha  occ. eigenvalues --   -0.85133  -0.84668  -0.84100  -0.83314  -0.82902
 Alpha  occ. eigenvalues --   -0.82441  -0.81896  -0.81335  -0.80967  -0.80271
 Alpha  occ. eigenvalues --   -0.79911  -0.78147  -0.77655  -0.77193  -0.76396
 Alpha  occ. eigenvalues --   -0.76272  -0.75402  -0.74977  -0.74572  -0.73860
 Alpha  occ. eigenvalues --   -0.72963  -0.72042  -0.71138  -0.70375  -0.68942
 Alpha  occ. eigenvalues --   -0.68831  -0.68059  -0.67522  -0.66807  -0.65331
 Alpha  occ. eigenvalues --   -0.65122  -0.64969  -0.64558  -0.64086  -0.63767
 Alpha  occ. eigenvalues --   -0.63549  -0.63316  -0.62556  -0.62414  -0.60101
 Alpha  occ. eigenvalues --   -0.59913  -0.59474  -0.58985  -0.58409  -0.58136
 Alpha  occ. eigenvalues --   -0.57350  -0.56751  -0.56555  -0.56051  -0.55993
 Alpha  occ. eigenvalues --   -0.54653  -0.54601  -0.54404  -0.54231  -0.53875
 Alpha  occ. eigenvalues --   -0.53816  -0.53123  -0.52918  -0.52757  -0.52544
 Alpha  occ. eigenvalues --   -0.52394  -0.52314  -0.52166  -0.51858  -0.51787
 Alpha  occ. eigenvalues --   -0.51493  -0.51300  -0.51094  -0.50682  -0.50343
 Alpha  occ. eigenvalues --   -0.50141  -0.49899  -0.49753  -0.49531  -0.49166
 Alpha  occ. eigenvalues --   -0.49113  -0.48944  -0.48818  -0.48597  -0.48348
 Alpha  occ. eigenvalues --   -0.48247  -0.47947  -0.47851  -0.47679  -0.47444
 Alpha  occ. eigenvalues --   -0.47406  -0.47304  -0.46921  -0.46779  -0.46338
 Alpha  occ. eigenvalues --   -0.46101  -0.46023  -0.45773  -0.45658  -0.45622
 Alpha  occ. eigenvalues --   -0.45437  -0.45157  -0.44967  -0.44855  -0.44741
 Alpha  occ. eigenvalues --   -0.44564  -0.44346  -0.44297  -0.44002  -0.43931
 Alpha  occ. eigenvalues --   -0.43595  -0.43496  -0.43421  -0.43065  -0.43018
 Alpha  occ. eigenvalues --   -0.42889  -0.42753  -0.42675  -0.42536  -0.42078
 Alpha  occ. eigenvalues --   -0.41974  -0.41408  -0.41190  -0.41107  -0.40943
 Alpha  occ. eigenvalues --   -0.40772  -0.40611  -0.40455  -0.40315  -0.40260
 Alpha  occ. eigenvalues --   -0.39943  -0.39703  -0.39271  -0.39123  -0.38964
 Alpha  occ. eigenvalues --   -0.38579  -0.38501  -0.38160  -0.37607  -0.37201
 Alpha  occ. eigenvalues --   -0.37060  -0.36810  -0.36781  -0.36545  -0.36493
 Alpha  occ. eigenvalues --   -0.36400  -0.35620  -0.35038  -0.34693  -0.34246
 Alpha  occ. eigenvalues --   -0.33981  -0.33728  -0.32942  -0.31186  -0.30777
 Alpha  occ. eigenvalues --   -0.30556  -0.30080  -0.29809  -0.28849  -0.23785
 Alpha  occ. eigenvalues --   -0.21181
 Alpha virt. eigenvalues --   -0.08603  -0.01497   0.00753   0.02438   0.03299
 Alpha virt. eigenvalues --    0.03712   0.04225   0.04443   0.05260   0.06914
 Alpha virt. eigenvalues --    0.07625   0.07882   0.08713   0.08978   0.09435

 Mulliken charges:
               1
     1  Mg   0.825526
     2  C   -0.016525
     3  C   -0.096653
     4  C   -0.041195
     5  C   -0.059386
     6  N   -0.282851
     7  C   -0.034006
     8  C   -0.013241
     9  C   -0.073947
    10  C    0.019956
    11  C    0.078660
    12  C    0.068341
    13  C   -0.003764
    14  C    0.212610
    15  O   -0.247532
    16  O   -0.344077
    17  N   -0.440760
    18  C    0.219298
    19  C   -0.151885
    20  C    0.004933
    21  C    0.151257
    22  C    0.138605
    23  C   -0.026398
    24  O   -0.224107
    25  C    0.061279
    26  N   -0.274394
    27  C   -0.007646
    28  C   -0.064549
    29  C    0.034416
    30  C    0.058689
    31  C    0.064177
    32  C   -0.013863
    33  C    0.025175
    34  N   -0.345852
    35  C    0.070009
    36  C   -0.197604
    37  C   -0.009327
    38  C    0.147926
    39  C    0.118498
    40  C    0.019374
    41  O   -0.173836
    42  C    0.013712
    43  C    0.212639
    44  O   -0.201879
    45  O   -0.320417
    46  C    0.163528
    47  C    0.264441
    48  C   -0.086644
    49  C   -0.190818
    50  C    0.080161
    51  C    0.091191
    52  C    0.012151
    53  C    0.017051
    54  C   -0.102069
    55  C    0.037399
    56  C    0.040250
    57  C    0.049220
    58  C   -0.029421
    59  C   -0.097571
    60  C    0.056397
    61  C    0.052561
    62  C    0.042405
    63  C    0.042819
    64  C   -0.150632
    65  C    0.009313
    66  C    0.052323
    67  H   -0.032182
    68  H   -0.008352
    69  H   -0.024969
    70  H    0.046629
    71  H   -0.003122
    72  H    0.043049
    73  H    0.004643
    74  H    0.010171
    75  H    0.012919
    76  H    0.011563
    77  H    0.028996
    78  H    0.052703
    79  H    0.017368
    80  H    0.016688
    81  H    0.021705
    82  H    0.026885
    83  H    0.038008
    84  H    0.027885
    85  H    0.022137
    86  H    0.002607
    87  H    0.034532
    88  H    0.021675
    89  H    0.030864
    90  H    0.012053
    91  H   -0.000212
    92  H    0.017203
    93  H    0.018119
    94  H    0.014862
    95  H   -0.008064
    96  H    0.035282
    97  H    0.028347
    98  H    0.045811
    99  H    0.059750
   100  H    0.028483
   101  H    0.030207
   102  H    0.015044
   103  H    0.027937
   104  H   -0.002563
   105  H    0.018644
   106  H    0.013854
   107  H    0.030208
   108  H    0.027506
   109  H   -0.003588
   110  H   -0.004318
   111  H   -0.001210
   112  H   -0.010878
   113  H   -0.015919
   114  H   -0.004033
   115  H    0.007376
   116  H    0.010118
   117  H    0.008282
   118  H   -0.012692
   119  H    0.006173
   120  H    0.010681
   121  H   -0.003559
   122  H   -0.014619
   123  H   -0.004673
   124  H   -0.012661
   125  H    0.012128
   126  H   -0.000747
   127  H   -0.000095
   128  H   -0.004076
   129  H   -0.011102
   130  H   -0.006574
   131  H   -0.011820
   132  H   -0.008939
   133  H   -0.002967
   134  H    0.003741
   135  H   -0.001695
   136  H    0.009157
   137  H    0.005240
   138  H    0.006160
   139  H    0.003897
   140  H    0.004896
 Sum of Mulliken charges =  -0.00000

 Dipole moment (field-independent basis, Debye):
    X=             -4.2796    Y=              2.7098    Z=             -0.0283  Tot=              5.0655
 Quadrupole moment (field-independent basis, Debye-Ang):
   XX=           -380.5055   YY=           -419.9019   ZZ=           -406.2627
   XY=              2.1829   XZ=             16.8101   YZ=              0.6615

 Normal termination of Gaussian 16 at Wed May  4 00:42:27 2022.
