 Gaussian 16, Revision A.03,
 Gaussian 16:  ES64L-G16RevA.03 25-Dec-2016

 ---------------------------------
 #p PBE1PBE/Def2SVP td=(nstates=5)
 ---------------------------------

 -----------------------------------------------------
 step_1151_chromophore_7 TDDFT with PBE1PBE functional
 -----------------------------------------------------
 Symbolic Z-matrix:
 Charge =  0 Multiplicity = 1

                         Standard orientation:
 ---------------------------------------------------------------------
 Center     Atomic      Atomic             Coordinates (Angstroms)
 Number     Number       Type             X           Y           Z
 ---------------------------------------------------------------------
      1         12           0        6.040948    0.425050   -0.110832
      2          6           0        3.785844   -2.231875    0.236231
      3          6           0        3.417359    2.237104   -1.532424
      4          6           0        8.084981    3.009441   -0.170901
      5          6           0        8.679564   -1.624278    0.934263
      6          7           0        3.903484    0.005115   -0.625061
      7          6           0        3.131747   -1.169046   -0.387269
      8          6           0        1.633792   -1.000932   -0.631409
      9          6           0        1.695285    0.317830   -1.521640
     10          6           0        3.091437    0.922933   -1.170552
     11          6           0        1.462612    0.026380   -3.038095
     12          6           0        0.731399   -0.819575    0.671198
     13          6           0       -0.556913   -1.730258    0.766346
     14          6           0       -1.507090   -1.789794   -0.495285
     15          8           0       -1.219846   -1.759148   -1.701271
     16          8           0       -2.850599   -1.890162   -0.088776
     17          7           0        5.750695    2.352249   -0.601668
     18          6           0        4.652307    2.893969   -1.235535
     19          6           0        4.881067    4.228373   -1.523974
     20          6           0        6.210860    4.552423   -1.171676
     21          6           0        6.781535    3.321007   -0.592575
     22          6           0        3.800305    5.173006   -2.039018
     23          6           0        6.953763    5.825617   -1.371232
     24          8           0        8.152187    5.951334   -1.061830
     25          6           0        6.277315    7.004823   -1.975969
     26          7           0        8.134944    0.640728    0.370677
     27          6           0        8.686536    1.864819    0.337920
     28          6           0       10.167251    1.846680    0.909958
     29          6           0       10.355537    0.307476    1.247494
     30          6           0        9.029532   -0.292454    0.784738
     31          6           0       11.301494    2.511114   -0.009277
     32          6           0       10.614574   -0.065107    2.740113
     33          6           0       12.070411    0.088618    3.275963
     34          7           0        6.241097   -1.582703    0.434942
     35          6           0        7.365457   -2.259712    0.814464
     36          6           0        6.860406   -3.618418    1.204698
     37          6           0        5.437065   -3.601294    1.039085
     38          6           0        5.129509   -2.336478    0.567268
     39          6           0        7.691439   -4.799445    1.680726
     40          6           0        4.180802   -4.354521    1.230392
     41          8           0        4.030973   -5.416844    1.825683
     42          6           0        3.090854   -3.500301    0.658831
     43          6           0        2.265020   -4.244719   -0.433310
     44          8           0        2.377997   -4.034694   -1.619008
     45          8           0        1.162809   -4.882525    0.083907
     46          6           0        0.377312   -5.573643   -0.906716
     47          6           0       -3.762589   -1.930231   -1.231925
     48          6           0       -5.167332   -1.861135   -0.657648
     49          6           0       -6.260884   -1.091145   -1.075721
     50          6           0       -6.121719    0.092674   -1.993924
     51          6           0       -7.601864   -1.221721   -0.464441
     52          6           0       -8.702256   -1.850464   -1.396922
     53          6           0       -9.738547   -0.892830   -2.003847
     54          6           0      -11.247582   -1.272286   -2.047461
     55          6           0      -11.537522   -2.467816   -3.017747
     56          6           0      -12.158014   -0.023020   -2.355119
     57          6           0      -13.460829   -0.008586   -1.469342
     58          6           0      -13.310394    1.239654   -0.541542
     59          6           0      -13.748333    1.229078    0.954439
     60          6           0      -15.210460    0.795279    1.055572
     61          6           0      -13.516426    2.638171    1.606824
     62          6           0      -13.195307    2.645172    3.126789
     63          6           0      -11.914521    3.446252    3.423484
     64          6           0      -10.717752    2.471298    3.735646
     65          6           0      -10.114565    2.907303    5.110989
     66          6           0       -9.607848    2.487905    2.683466
     67          1           0        2.538037    2.679852   -2.003664
     68          1           0        8.801016    3.829909   -0.087229
     69          1           0        9.413266   -2.391201    1.189095
     70          1           0        1.212040   -1.867997   -1.137881
     71          1           0        0.911885    1.042337   -1.299648
     72          1           0        1.296551   -1.022595   -3.284211
     73          1           0        2.361308    0.324618   -3.578547
     74          1           0        0.640742    0.639704   -3.405720
     75          1           0        0.393070    0.213646    0.749321
     76          1           0        1.250853   -1.020616    1.608041
     77          1           0       -1.089634   -1.254669    1.589750
     78          1           0       -0.391349   -2.705437    1.224068
     79          1           0        2.819699    4.725464   -2.201146
     80          1           0        4.149319    5.746819   -2.898144
     81          1           0        3.638646    5.925925   -1.268336
     82          1           0        5.474790    7.269388   -1.287312
     83          1           0        5.860924    6.788679   -2.959025
     84          1           0        6.996236    7.820738   -2.049398
     85          1           0        9.997509    2.535925    1.736786
     86          1           0       11.223299   -0.054671    0.697369
     87          1           0       10.795539    2.580942   -0.972725
     88          1           0       12.189906    1.884361   -0.080284
     89          1           0       11.556512    3.460376    0.461788
     90          1           0       10.289471   -1.065584    3.028581
     91          1           0        9.919131    0.587073    3.268729
     92          1           0       12.727132    0.505490    2.513339
     93          1           0       12.421319   -0.861705    3.678413
     94          1           0       12.003552    0.753495    4.138092
     95          1           0        8.740008   -4.508269    1.625365
     96          1           0        7.495448   -5.704679    1.106402
     97          1           0        7.524056   -5.059230    2.726142
     98          1           0        2.434373   -3.362787    1.517130
     99          1           0        0.756423   -5.958878   -1.853413
    100          1           0       -0.562079   -5.050464   -1.087429
    101          1           0        0.109500   -6.411270   -0.263414
    102          1           0       -3.648077   -2.940108   -1.625419
    103          1           0       -3.669764   -1.230039   -2.062407
    104          1           0       -5.425400   -2.780662   -0.131544
    105          1           0       -5.099235    0.469620   -2.015579
    106          1           0       -6.797828    0.862437   -1.623909
    107          1           0       -6.341680   -0.167072   -3.029497
    108          1           0       -7.923073   -0.266838   -0.048549
    109          1           0       -7.555071   -2.048115    0.244976
    110          1           0       -9.254550   -2.632009   -0.874494
    111          1           0       -8.253122   -2.408085   -2.218917
    112          1           0       -9.499176   -0.752024   -3.057669
    113          1           0       -9.504982    0.097978   -1.614463
    114          1           0      -11.609379   -1.657926   -1.094075
    115          1           0      -10.652014   -2.872080   -3.507963
    116          1           0      -12.240375   -2.243410   -3.820344
    117          1           0      -11.967979   -3.230122   -2.369579
    118          1           0      -12.649758   -0.108950   -3.324530
    119          1           0      -11.525121    0.863142   -2.416659
    120          1           0      -13.712073   -0.886109   -0.873567
    121          1           0      -14.274215    0.225085   -2.155519
    122          1           0      -13.956770    2.011568   -0.958457
    123          1           0      -12.327845    1.694339   -0.663165
    124          1           0      -13.101645    0.509698    1.457017
    125          1           0      -15.765892    1.197639    1.902125
    126          1           0      -15.297133   -0.289851    1.116223
    127          1           0      -15.715846    1.028349    0.118250
    128          1           0      -14.364371    3.283861    1.376737
    129          1           0      -12.671666    3.083579    1.080886
    130          1           0      -13.103428    1.639288    3.538331
    131          1           0      -13.907979    3.086016    3.824005
    132          1           0      -12.111825    4.085294    4.284341
    133          1           0      -11.618029    4.105783    2.607343
    134          1           0      -10.986036    1.458198    4.034613
    135          1           0       -9.751469    1.990141    5.575171
    136          1           0      -10.786331    3.352828    5.844480
    137          1           0       -9.262457    3.557871    4.915952
    138          1           0       -9.585356    1.539787    2.146926
    139          1           0       -8.600083    2.594464    3.085183
    140          1           0       -9.726274    3.289835    1.954550
 ---------------------------------------------------------------------

 SCF Done:  E(RPBE1PBE) =  -3005.35362694     A.U. after   15 cycles

 Excitation energies and oscillator strengths:

 Excited State   1:      Singlet-A      1.8754 eV  661.11 nm  f=0.3650  <S**2>=0.000
     245 -> 248        0.17322
     246 -> 247        0.69163
     246 <- 247       -0.10436
 This state for optimization and/or second-order correction.
 Total Energy, E(TD-HF/TD-DFT) =  -3005.28470798
 Copying the excited state density for this state as the 1-particle RhoCI density.

 Excited State   2:      Singlet-A      2.2591 eV  548.82 nm  f=0.1357  <S**2>=0.000
     245 -> 247        0.65489
     246 -> 248       -0.24905

 Excited State   3:      Singlet-A      2.9642 eV  418.28 nm  f=0.0059  <S**2>=0.000
     244 -> 247        0.69374

 Excited State   4:      Singlet-A      2.9952 eV  413.94 nm  f=0.0000  <S**2>=0.000
     242 -> 247        0.67149
     242 -> 248       -0.12625
     242 -> 250       -0.12260

 Excited State   5:      Singlet-A      3.0757 eV  403.10 nm  f=0.0016  <S**2>=0.000
     240 -> 247        0.18832
     241 -> 247        0.64584
     241 -> 249        0.15328

 The electronic state is 1-A.
 Alpha  occ. eigenvalues --  -46.91182 -19.26399 -19.26077 -19.21706 -19.20579
 Alpha  occ. eigenvalues --  -19.18784 -19.18291 -14.41458 -14.41134 -14.39199
 Alpha  occ. eigenvalues --  -14.38450 -10.38108 -10.37089 -10.31837 -10.31514
 Alpha  occ. eigenvalues --  -10.29483 -10.28597 -10.28440 -10.28433 -10.28430
 Alpha  occ. eigenvalues --  -10.28374 -10.28029 -10.28025 -10.27376 -10.26530
 Alpha  occ. eigenvalues --  -10.26227 -10.26034 -10.25868 -10.25865 -10.25786
 Alpha  occ. eigenvalues --  -10.25724 -10.25721 -10.25670 -10.25545 -10.25386
 Alpha  occ. eigenvalues --  -10.25156 -10.24754 -10.24574 -10.24550 -10.24421
 Alpha  occ. eigenvalues --  -10.23984 -10.23892 -10.23839 -10.23826 -10.23631
 Alpha  occ. eigenvalues --  -10.23514 -10.23505 -10.23376 -10.23319 -10.23188
 Alpha  occ. eigenvalues --  -10.23123 -10.23022 -10.22954 -10.22866 -10.22799
 Alpha  occ. eigenvalues --  -10.22687 -10.22400 -10.22226 -10.22209 -10.22157
 Alpha  occ. eigenvalues --  -10.22146 -10.22111 -10.21977 -10.21933 -10.21588
 Alpha  occ. eigenvalues --  -10.21398  -3.13352  -1.86215  -1.85732  -1.85574
 Alpha  occ. eigenvalues --   -1.12276  -1.10871  -1.04084  -1.03528  -1.03121
 Alpha  occ. eigenvalues --   -1.02567  -0.98565  -0.97732  -0.97191  -0.96264
 Alpha  occ. eigenvalues --   -0.87690  -0.84792  -0.83519  -0.83050  -0.82746
 Alpha  occ. eigenvalues --   -0.82521  -0.82078  -0.81331  -0.81229  -0.80876
 Alpha  occ. eigenvalues --   -0.79372  -0.79072  -0.78303  -0.77659  -0.77129
 Alpha  occ. eigenvalues --   -0.76636  -0.76035  -0.75560  -0.75261  -0.74549
 Alpha  occ. eigenvalues --   -0.74103  -0.72339  -0.72016  -0.71489  -0.70642
 Alpha  occ. eigenvalues --   -0.70544  -0.69487  -0.69309  -0.68686  -0.68040
 Alpha  occ. eigenvalues --   -0.67349  -0.66491  -0.65561  -0.64650  -0.63302
 Alpha  occ. eigenvalues --   -0.63112  -0.62472  -0.62014  -0.61064  -0.59733
 Alpha  occ. eigenvalues --   -0.59447  -0.59308  -0.59173  -0.58598  -0.57937
 Alpha  occ. eigenvalues --   -0.57851  -0.57692  -0.57187  -0.56605  -0.54535
 Alpha  occ. eigenvalues --   -0.54352  -0.53977  -0.53486  -0.52939  -0.52780
 Alpha  occ. eigenvalues --   -0.51991  -0.51116  -0.51076  -0.50612  -0.50467
 Alpha  occ. eigenvalues --   -0.49186  -0.49173  -0.48915  -0.48799  -0.48434
 Alpha  occ. eigenvalues --   -0.48297  -0.47717  -0.47467  -0.47030  -0.47022
 Alpha  occ. eigenvalues --   -0.46978  -0.46740  -0.46663  -0.46390  -0.46317
 Alpha  occ. eigenvalues --   -0.46052  -0.45815  -0.45725  -0.45255  -0.45051
 Alpha  occ. eigenvalues --   -0.44702  -0.44360  -0.44293  -0.44170  -0.43763
 Alpha  occ. eigenvalues --   -0.43723  -0.43419  -0.43367  -0.43177  -0.42967
 Alpha  occ. eigenvalues --   -0.42856  -0.42588  -0.42471  -0.42315  -0.42150
 Alpha  occ. eigenvalues --   -0.42043  -0.41899  -0.41507  -0.41416  -0.41006
 Alpha  occ. eigenvalues --   -0.40833  -0.40782  -0.40498  -0.40346  -0.40233
 Alpha  occ. eigenvalues --   -0.40144  -0.39926  -0.39764  -0.39519  -0.39492
 Alpha  occ. eigenvalues --   -0.39363  -0.39171  -0.39098  -0.38742  -0.38708
 Alpha  occ. eigenvalues --   -0.38357  -0.38217  -0.38087  -0.37887  -0.37765
 Alpha  occ. eigenvalues --   -0.37663  -0.37597  -0.37407  -0.37216  -0.37003
 Alpha  occ. eigenvalues --   -0.36904  -0.36122  -0.36091  -0.35993  -0.35743
 Alpha  occ. eigenvalues --   -0.35499  -0.35386  -0.35323  -0.35209  -0.35070
 Alpha  occ. eigenvalues --   -0.34919  -0.34588  -0.34092  -0.33916  -0.33875
 Alpha  occ. eigenvalues --   -0.33539  -0.33340  -0.32958  -0.32443  -0.32203
 Alpha  occ. eigenvalues --   -0.32022  -0.31857  -0.31622  -0.31475  -0.31420
 Alpha  occ. eigenvalues --   -0.31333  -0.30470  -0.29952  -0.29579  -0.29196
 Alpha  occ. eigenvalues --   -0.29145  -0.28695  -0.28559  -0.26808  -0.25616
 Alpha  occ. eigenvalues --   -0.25449  -0.25315  -0.25236  -0.24648  -0.20739
 Alpha  occ. eigenvalues --   -0.18756
 Alpha virt. eigenvalues --   -0.11031  -0.05054  -0.03508  -0.01872  -0.01239
 Alpha virt. eigenvalues --   -0.00751  -0.00287   0.01298   0.01728   0.03075
 Alpha virt. eigenvalues --    0.03440   0.04680   0.04847   0.05412   0.06081

 Mulliken charges:
               1
     1  Mg   0.979473
     2  C   -0.036869
     3  C   -0.081093
     4  C   -0.041795
     5  C   -0.064231
     6  N   -0.384732
     7  C    0.055409
     8  C   -0.086074
     9  C   -0.150612
    10  C    0.058781
    11  C    0.026551
    12  C    0.024266
    13  C   -0.076974
    14  C    0.269060
    15  O   -0.277611
    16  O   -0.371600
    17  N   -0.557606
    18  C    0.237601
    19  C   -0.178557
    20  C   -0.054450
    21  C    0.186785
    22  C    0.076892
    23  C    0.028262
    24  O   -0.262599
    25  C   -0.014446
    26  N   -0.380165
    27  C    0.027272
    28  C   -0.127788
    29  C   -0.043656
    30  C    0.096924
    31  C    0.001178
    32  C   -0.070118
    33  C   -0.047954
    34  N   -0.477660
    35  C    0.109317
    36  C   -0.225683
    37  C   -0.051106
    38  C    0.191012
    39  C    0.065822
    40  C    0.119812
    41  O   -0.220234
    42  C   -0.095148
    43  C    0.295832
    44  O   -0.234921
    45  O   -0.353346
    46  C    0.107653
    47  C    0.218467
    48  C   -0.099251
    49  C   -0.227007
    50  C    0.020787
    51  C    0.013792
    52  C   -0.041429
    53  C   -0.039304
    54  C   -0.187111
    55  C   -0.018282
    56  C   -0.012947
    57  C   -0.016824
    58  C   -0.077946
    59  C   -0.188462
    60  C   -0.001350
    61  C   -0.001355
    62  C   -0.018365
    63  C   -0.013092
    64  C   -0.240859
    65  C   -0.051532
    66  C   -0.006310
    67  H   -0.000405
    68  H    0.024165
    69  H    0.008545
    70  H    0.087816
    71  H    0.032782
    72  H    0.068363
    73  H    0.033208
    74  H    0.036814
    75  H    0.045339
    76  H    0.043983
    77  H    0.061442
    78  H    0.083302
    79  H    0.043748
    80  H    0.044169
    81  H    0.049876
    82  H    0.054511
    83  H    0.064425
    84  H    0.055059
    85  H    0.058894
    86  H    0.040066
    87  H    0.062709
    88  H    0.048140
    89  H    0.057323
    90  H    0.044036
    91  H    0.033421
    92  H    0.044978
    93  H    0.045592
    94  H    0.043026
    95  H    0.021076
    96  H    0.063277
    97  H    0.056827
    98  H    0.083398
    99  H    0.080800
   100  H    0.052061
   101  H    0.052904
   102  H    0.044543
   103  H    0.054111
   104  H    0.027069
   105  H    0.046137
   106  H    0.040379
   107  H    0.057902
   108  H    0.059547
   109  H    0.030084
   110  H    0.028181
   111  H    0.030685
   112  H    0.023446
   113  H    0.016180
   114  H    0.034801
   115  H    0.034266
   116  H    0.036483
   117  H    0.034892
   118  H    0.020345
   119  H    0.035789
   120  H    0.041013
   121  H    0.029964
   122  H    0.019329
   123  H    0.027156
   124  H    0.026163
   125  H    0.039730
   126  H    0.027028
   127  H    0.027329
   128  H    0.027991
   129  H    0.021999
   130  H    0.025314
   131  H    0.020680
   132  H    0.023476
   133  H    0.027794
   134  H    0.039610
   135  H    0.026725
   136  H    0.036222
   137  H    0.033213
   138  H    0.034693
   139  H    0.030546
   140  H    0.031019
 Sum of Mulliken charges =  -0.00000

 Dipole moment (field-independent basis, Debye):
    X=             -4.2883    Y=              2.2544    Z=              0.1349  Tot=              4.8467
 Quadrupole moment (field-independent basis, Debye-Ang):
   XX=           -374.0925   YY=           -417.7312   ZZ=           -403.4252
   XY=             -0.3159   XZ=             18.9204   YZ=              0.6379

 Normal termination of Gaussian 16 at Wed May  4 00:57:41 2022.
