 Gaussian 16, Revision A.03,
 Gaussian 16:  ES64L-G16RevA.03 25-Dec-2016

 --------------------------------
 #p wB97XD/Def2SVP td=(nstates=5)
 --------------------------------

 ----------------------------------------------------
 step_1151_chromophore_7 TDDFT with wB97XD functional
 ----------------------------------------------------
 Symbolic Z-matrix:
 Charge =  0 Multiplicity = 1

                         Standard orientation:
 ---------------------------------------------------------------------
 Center     Atomic      Atomic             Coordinates (Angstroms)
 Number     Number       Type             X           Y           Z
 ---------------------------------------------------------------------
      1         12           0        6.040948    0.425050   -0.110832
      2          6           0        3.785844   -2.231875    0.236231
      3          6           0        3.417359    2.237104   -1.532424
      4          6           0        8.084981    3.009441   -0.170901
      5          6           0        8.679564   -1.624278    0.934263
      6          7           0        3.903484    0.005115   -0.625061
      7          6           0        3.131747   -1.169046   -0.387269
      8          6           0        1.633792   -1.000932   -0.631409
      9          6           0        1.695285    0.317830   -1.521640
     10          6           0        3.091437    0.922933   -1.170552
     11          6           0        1.462612    0.026380   -3.038095
     12          6           0        0.731399   -0.819575    0.671198
     13          6           0       -0.556913   -1.730258    0.766346
     14          6           0       -1.507090   -1.789794   -0.495285
     15          8           0       -1.219846   -1.759148   -1.701271
     16          8           0       -2.850599   -1.890162   -0.088776
     17          7           0        5.750695    2.352249   -0.601668
     18          6           0        4.652307    2.893969   -1.235535
     19          6           0        4.881067    4.228373   -1.523974
     20          6           0        6.210860    4.552423   -1.171676
     21          6           0        6.781535    3.321007   -0.592575
     22          6           0        3.800305    5.173006   -2.039018
     23          6           0        6.953763    5.825617   -1.371232
     24          8           0        8.152187    5.951334   -1.061830
     25          6           0        6.277315    7.004823   -1.975969
     26          7           0        8.134944    0.640728    0.370677
     27          6           0        8.686536    1.864819    0.337920
     28          6           0       10.167251    1.846680    0.909958
     29          6           0       10.355537    0.307476    1.247494
     30          6           0        9.029532   -0.292454    0.784738
     31          6           0       11.301494    2.511114   -0.009277
     32          6           0       10.614574   -0.065107    2.740113
     33          6           0       12.070411    0.088618    3.275963
     34          7           0        6.241097   -1.582703    0.434942
     35          6           0        7.365457   -2.259712    0.814464
     36          6           0        6.860406   -3.618418    1.204698
     37          6           0        5.437065   -3.601294    1.039085
     38          6           0        5.129509   -2.336478    0.567268
     39          6           0        7.691439   -4.799445    1.680726
     40          6           0        4.180802   -4.354521    1.230392
     41          8           0        4.030973   -5.416844    1.825683
     42          6           0        3.090854   -3.500301    0.658831
     43          6           0        2.265020   -4.244719   -0.433310
     44          8           0        2.377997   -4.034694   -1.619008
     45          8           0        1.162809   -4.882525    0.083907
     46          6           0        0.377312   -5.573643   -0.906716
     47          6           0       -3.762589   -1.930231   -1.231925
     48          6           0       -5.167332   -1.861135   -0.657648
     49          6           0       -6.260884   -1.091145   -1.075721
     50          6           0       -6.121719    0.092674   -1.993924
     51          6           0       -7.601864   -1.221721   -0.464441
     52          6           0       -8.702256   -1.850464   -1.396922
     53          6           0       -9.738547   -0.892830   -2.003847
     54          6           0      -11.247582   -1.272286   -2.047461
     55          6           0      -11.537522   -2.467816   -3.017747
     56          6           0      -12.158014   -0.023020   -2.355119
     57          6           0      -13.460829   -0.008586   -1.469342
     58          6           0      -13.310394    1.239654   -0.541542
     59          6           0      -13.748333    1.229078    0.954439
     60          6           0      -15.210460    0.795279    1.055572
     61          6           0      -13.516426    2.638171    1.606824
     62          6           0      -13.195307    2.645172    3.126789
     63          6           0      -11.914521    3.446252    3.423484
     64          6           0      -10.717752    2.471298    3.735646
     65          6           0      -10.114565    2.907303    5.110989
     66          6           0       -9.607848    2.487905    2.683466
     67          1           0        2.538037    2.679852   -2.003664
     68          1           0        8.801016    3.829909   -0.087229
     69          1           0        9.413266   -2.391201    1.189095
     70          1           0        1.212040   -1.867997   -1.137881
     71          1           0        0.911885    1.042337   -1.299648
     72          1           0        1.296551   -1.022595   -3.284211
     73          1           0        2.361308    0.324618   -3.578547
     74          1           0        0.640742    0.639704   -3.405720
     75          1           0        0.393070    0.213646    0.749321
     76          1           0        1.250853   -1.020616    1.608041
     77          1           0       -1.089634   -1.254669    1.589750
     78          1           0       -0.391349   -2.705437    1.224068
     79          1           0        2.819699    4.725464   -2.201146
     80          1           0        4.149319    5.746819   -2.898144
     81          1           0        3.638646    5.925925   -1.268336
     82          1           0        5.474790    7.269388   -1.287312
     83          1           0        5.860924    6.788679   -2.959025
     84          1           0        6.996236    7.820738   -2.049398
     85          1           0        9.997509    2.535925    1.736786
     86          1           0       11.223299   -0.054671    0.697369
     87          1           0       10.795539    2.580942   -0.972725
     88          1           0       12.189906    1.884361   -0.080284
     89          1           0       11.556512    3.460376    0.461788
     90          1           0       10.289471   -1.065584    3.028581
     91          1           0        9.919131    0.587073    3.268729
     92          1           0       12.727132    0.505490    2.513339
     93          1           0       12.421319   -0.861705    3.678413
     94          1           0       12.003552    0.753495    4.138092
     95          1           0        8.740008   -4.508269    1.625365
     96          1           0        7.495448   -5.704679    1.106402
     97          1           0        7.524056   -5.059230    2.726142
     98          1           0        2.434373   -3.362787    1.517130
     99          1           0        0.756423   -5.958878   -1.853413
    100          1           0       -0.562079   -5.050464   -1.087429
    101          1           0        0.109500   -6.411270   -0.263414
    102          1           0       -3.648077   -2.940108   -1.625419
    103          1           0       -3.669764   -1.230039   -2.062407
    104          1           0       -5.425400   -2.780662   -0.131544
    105          1           0       -5.099235    0.469620   -2.015579
    106          1           0       -6.797828    0.862437   -1.623909
    107          1           0       -6.341680   -0.167072   -3.029497
    108          1           0       -7.923073   -0.266838   -0.048549
    109          1           0       -7.555071   -2.048115    0.244976
    110          1           0       -9.254550   -2.632009   -0.874494
    111          1           0       -8.253122   -2.408085   -2.218917
    112          1           0       -9.499176   -0.752024   -3.057669
    113          1           0       -9.504982    0.097978   -1.614463
    114          1           0      -11.609379   -1.657926   -1.094075
    115          1           0      -10.652014   -2.872080   -3.507963
    116          1           0      -12.240375   -2.243410   -3.820344
    117          1           0      -11.967979   -3.230122   -2.369579
    118          1           0      -12.649758   -0.108950   -3.324530
    119          1           0      -11.525121    0.863142   -2.416659
    120          1           0      -13.712073   -0.886109   -0.873567
    121          1           0      -14.274215    0.225085   -2.155519
    122          1           0      -13.956770    2.011568   -0.958457
    123          1           0      -12.327845    1.694339   -0.663165
    124          1           0      -13.101645    0.509698    1.457017
    125          1           0      -15.765892    1.197639    1.902125
    126          1           0      -15.297133   -0.289851    1.116223
    127          1           0      -15.715846    1.028349    0.118250
    128          1           0      -14.364371    3.283861    1.376737
    129          1           0      -12.671666    3.083579    1.080886
    130          1           0      -13.103428    1.639288    3.538331
    131          1           0      -13.907979    3.086016    3.824005
    132          1           0      -12.111825    4.085294    4.284341
    133          1           0      -11.618029    4.105783    2.607343
    134          1           0      -10.986036    1.458198    4.034613
    135          1           0       -9.751469    1.990141    5.575171
    136          1           0      -10.786331    3.352828    5.844480
    137          1           0       -9.262457    3.557871    4.915952
    138          1           0       -9.585356    1.539787    2.146926
    139          1           0       -8.600083    2.594464    3.085183
    140          1           0       -9.726274    3.289835    1.954550
 ---------------------------------------------------------------------

 SCF Done:  E(RwB97XD) =  -3007.86192505     A.U. after   19 cycles

 Excitation energies and oscillator strengths:

 Excited State   1:      Singlet-A      1.6721 eV  741.51 nm  f=0.3783  <S**2>=0.000
     245 -> 248        0.18392
     246 -> 247        0.68305
     245 <- 248        0.11418
 This state for optimization and/or second-order correction.
 Total Energy, E(TD-HF/TD-DFT) =  -3007.80047815
 Copying the excited state density for this state as the 1-particle RhoCI density.

 Excited State   2:      Singlet-A      2.1914 eV  565.78 nm  f=0.1409  <S**2>=0.000
     245 -> 247        0.64494
     246 -> 248       -0.26932

 Excited State   3:      Singlet-A      3.3709 eV  367.81 nm  f=0.0069  <S**2>=0.000
     241 -> 247       -0.10880
     242 -> 247       -0.37199
     244 -> 247        0.57027

 Excited State   4:      Singlet-A      3.4773 eV  356.56 nm  f=0.0339  <S**2>=0.000
     239 -> 247        0.10467
     241 -> 247        0.19652
     242 -> 247        0.46453
     244 -> 247        0.36512
     246 -> 248        0.28652

 Excited State   5:      Singlet-A      3.5592 eV  348.35 nm  f=0.0043  <S**2>=0.000
     240 -> 247        0.54525
     240 -> 248       -0.22256
     240 -> 249        0.22991
     240 -> 250       -0.27421

 The electronic state is 1-A.
 Alpha  occ. eigenvalues --  -46.94130 -19.30903 -19.30605 -19.26320 -19.25220
 Alpha  occ. eigenvalues --  -19.23489 -19.23298 -14.46612 -14.46226 -14.44255
 Alpha  occ. eigenvalues --  -14.43262 -10.44846 -10.43855 -10.38574 -10.38556
 Alpha  occ. eigenvalues --  -10.35962 -10.35069 -10.35039 -10.34918 -10.34556
 Alpha  occ. eigenvalues --  -10.34511 -10.34503 -10.34040 -10.34029 -10.32912
 Alpha  occ. eigenvalues --  -10.32593 -10.32374 -10.32283 -10.32097 -10.32058
 Alpha  occ. eigenvalues --  -10.32040 -10.31978 -10.31949 -10.31760 -10.31660
 Alpha  occ. eigenvalues --  -10.31439 -10.31183 -10.31146 -10.31131 -10.31051
 Alpha  occ. eigenvalues --  -10.30258 -10.30244 -10.30194 -10.30077 -10.30045
 Alpha  occ. eigenvalues --  -10.29988 -10.29955 -10.29773 -10.29738 -10.29571
 Alpha  occ. eigenvalues --  -10.29486 -10.29485 -10.29305 -10.29132 -10.29124
 Alpha  occ. eigenvalues --  -10.29058 -10.28776 -10.28639 -10.28533 -10.28512
 Alpha  occ. eigenvalues --  -10.28491 -10.28390 -10.28310 -10.28295 -10.28040
 Alpha  occ. eigenvalues --  -10.27805  -3.20146  -1.93760  -1.93279  -1.93113
 Alpha  occ. eigenvalues --   -1.19602  -1.18218  -1.11460  -1.10826  -1.10812
 Alpha  occ. eigenvalues --   -1.09880  -1.05937  -1.05050  -1.04656  -1.03718
 Alpha  occ. eigenvalues --   -0.95196  -0.92461  -0.91194  -0.90751  -0.90387
 Alpha  occ. eigenvalues --   -0.90174  -0.89720  -0.89041  -0.88991  -0.88530
 Alpha  occ. eigenvalues --   -0.87015  -0.86578  -0.85942  -0.85239  -0.84784
 Alpha  occ. eigenvalues --   -0.84290  -0.83824  -0.83229  -0.82875  -0.82222
 Alpha  occ. eigenvalues --   -0.81758  -0.80143  -0.79589  -0.79086  -0.78245
 Alpha  occ. eigenvalues --   -0.78176  -0.77177  -0.76950  -0.76374  -0.75702
 Alpha  occ. eigenvalues --   -0.74903  -0.74001  -0.73125  -0.72279  -0.70861
 Alpha  occ. eigenvalues --   -0.70730  -0.70055  -0.69542  -0.68685  -0.67240
 Alpha  occ. eigenvalues --   -0.67014  -0.66903  -0.66568  -0.66097  -0.65585
 Alpha  occ. eigenvalues --   -0.65368  -0.65294  -0.64535  -0.64243  -0.62043
 Alpha  occ. eigenvalues --   -0.61909  -0.61444  -0.60938  -0.60358  -0.60120
 Alpha  occ. eigenvalues --   -0.59340  -0.58597  -0.58506  -0.58029  -0.57939
 Alpha  occ. eigenvalues --   -0.56563  -0.56551  -0.56266  -0.56195  -0.55776
 Alpha  occ. eigenvalues --   -0.55713  -0.55056  -0.54857  -0.54702  -0.54422
 Alpha  occ. eigenvalues --   -0.54337  -0.54211  -0.54074  -0.53727  -0.53677
 Alpha  occ. eigenvalues --   -0.53391  -0.53174  -0.53048  -0.52622  -0.52266
 Alpha  occ. eigenvalues --   -0.52017  -0.51869  -0.51634  -0.51436  -0.51120
 Alpha  occ. eigenvalues --   -0.51060  -0.50912  -0.50761  -0.50474  -0.50290
 Alpha  occ. eigenvalues --   -0.50131  -0.49837  -0.49735  -0.49579  -0.49393
 Alpha  occ. eigenvalues --   -0.49339  -0.49179  -0.48882  -0.48679  -0.48248
 Alpha  occ. eigenvalues --   -0.48002  -0.47931  -0.47684  -0.47610  -0.47449
 Alpha  occ. eigenvalues --   -0.47338  -0.47068  -0.46871  -0.46713  -0.46639
 Alpha  occ. eigenvalues --   -0.46507  -0.46260  -0.46217  -0.45882  -0.45857
 Alpha  occ. eigenvalues --   -0.45537  -0.45421  -0.45336  -0.45003  -0.44919
 Alpha  occ. eigenvalues --   -0.44826  -0.44664  -0.44544  -0.44389  -0.43968
 Alpha  occ. eigenvalues --   -0.43907  -0.43456  -0.43093  -0.43000  -0.42837
 Alpha  occ. eigenvalues --   -0.42619  -0.42479  -0.42391  -0.42176  -0.42154
 Alpha  occ. eigenvalues --   -0.41875  -0.41618  -0.41124  -0.40944  -0.40867
 Alpha  occ. eigenvalues --   -0.40507  -0.40353  -0.39997  -0.39454  -0.39127
 Alpha  occ. eigenvalues --   -0.39075  -0.38858  -0.38621  -0.38491  -0.38412
 Alpha  occ. eigenvalues --   -0.38373  -0.37465  -0.36959  -0.36627  -0.36085
 Alpha  occ. eigenvalues --   -0.35958  -0.35562  -0.35205  -0.33402  -0.32730
 Alpha  occ. eigenvalues --   -0.32518  -0.32284  -0.31864  -0.31000  -0.25715
 Alpha  occ. eigenvalues --   -0.22995
 Alpha virt. eigenvalues --   -0.06957   0.00410   0.02825   0.04537   0.05553
 Alpha virt. eigenvalues --    0.06001   0.06582   0.07350   0.07868   0.09537
 Alpha virt. eigenvalues --    0.10046   0.11433   0.11628   0.12216   0.12862

 Mulliken charges:
               1
     1  Mg   0.968179
     2  C   -0.031851
     3  C   -0.102443
     4  C   -0.057869
     5  C   -0.072870
     6  N   -0.351267
     7  C    0.012691
     8  C   -0.051928
     9  C   -0.123044
    10  C    0.044410
    11  C    0.032829
    12  C    0.030105
    13  C   -0.059039
    14  C    0.259641
    15  O   -0.274943
    16  O   -0.372045
    17  N   -0.528200
    18  C    0.234503
    19  C   -0.167540
    20  C   -0.044856
    21  C    0.179816
    22  C    0.091275
    23  C    0.023563
    24  O   -0.255438
    25  C   -0.001470
    26  N   -0.346529
    27  C    0.017444
    28  C   -0.110512
    29  C   -0.016404
    30  C    0.081138
    31  C    0.015035
    32  C   -0.055142
    33  C   -0.031786
    34  N   -0.436505
    35  C    0.091346
    36  C   -0.221084
    37  C   -0.047841
    38  C    0.175173
    39  C    0.079158
    40  C    0.099455
    41  O   -0.210872
    42  C   -0.056760
    43  C    0.274010
    44  O   -0.229839
    45  O   -0.350797
    46  C    0.121732
    47  C    0.234100
    48  C   -0.106482
    49  C   -0.214786
    50  C    0.030464
    51  C    0.037265
    52  C   -0.031040
    53  C   -0.019573
    54  C   -0.158024
    55  C   -0.009379
    56  C    0.002991
    57  C   -0.002231
    58  C   -0.057995
    59  C   -0.157375
    60  C    0.008265
    61  C    0.014325
    62  C   -0.003437
    63  C    0.003807
    64  C   -0.214467
    65  C   -0.037172
    66  C    0.005308
    67  H   -0.006852
    68  H    0.018430
    69  H    0.001360
    70  H    0.065717
    71  H    0.022605
    72  H    0.065980
    73  H    0.026071
    74  H    0.032205
    75  H    0.037109
    76  H    0.036772
    77  H    0.056245
    78  H    0.077483
    79  H    0.041467
    80  H    0.038437
    81  H    0.044395
    82  H    0.047930
    83  H    0.058991
    84  H    0.054996
    85  H    0.048225
    86  H    0.028891
    87  H    0.055539
    88  H    0.043023
    89  H    0.052765
    90  H    0.035703
    91  H    0.023411
    92  H    0.037824
    93  H    0.040401
    94  H    0.036880
    95  H    0.013070
    96  H    0.057668
    97  H    0.051016
    98  H    0.075008
    99  H    0.077482
   100  H    0.047763
   101  H    0.048815
   102  H    0.039128
   103  H    0.047893
   104  H    0.022815
   105  H    0.040093
   106  H    0.034848
   107  H    0.052864
   108  H    0.051999
   109  H    0.022911
   110  H    0.020486
   111  H    0.022145
   112  H    0.012640
   113  H    0.003954
   114  H    0.020338
   115  H    0.028348
   116  H    0.030861
   117  H    0.029696
   118  H    0.011259
   119  H    0.027578
   120  H    0.032366
   121  H    0.022819
   122  H    0.007255
   123  H    0.014744
   124  H    0.013095
   125  H    0.034601
   126  H    0.021262
   127  H    0.019865
   128  H    0.020602
   129  H    0.008583
   130  H    0.014554
   131  H    0.014517
   132  H    0.015235
   133  H    0.017876
   134  H    0.028698
   135  H    0.020656
   136  H    0.030142
   137  H    0.025582
   138  H    0.028658
   139  H    0.024532
   140  H    0.024480
 Sum of Mulliken charges =  -0.00000

 Dipole moment (field-independent basis, Debye):
    X=             -4.3535    Y=              2.8644    Z=             -0.0684  Tot=              5.2118
 Quadrupole moment (field-independent basis, Debye-Ang):
   XX=           -375.6917   YY=           -415.5538   ZZ=           -403.0341
   XY=              3.2169   XZ=             17.4495   YZ=              0.1095

 Normal termination of Gaussian 16 at Wed May  4 01:25:19 2022.
