 Gaussian 16, Revision A.03,
 Gaussian 16:  ES64L-G16RevA.03 25-Dec-2016

 --------------------
 #p ZINDO=(nstates=5)
 --------------------

 -----------------------------
 step_1151_chromophore_7 ZINDO
 -----------------------------
 Symbolic Z-matrix:
 Charge =  0 Multiplicity = 1

                         Standard orientation:
 ---------------------------------------------------------------------
 Center     Atomic      Atomic             Coordinates (Angstroms)
 Number     Number       Type             X           Y           Z
 ---------------------------------------------------------------------
      1         12           0        6.040948    0.425050   -0.110832
      2          6           0        3.785844   -2.231875    0.236231
      3          6           0        3.417359    2.237104   -1.532424
      4          6           0        8.084981    3.009441   -0.170901
      5          6           0        8.679564   -1.624278    0.934263
      6          7           0        3.903484    0.005115   -0.625061
      7          6           0        3.131747   -1.169046   -0.387269
      8          6           0        1.633792   -1.000932   -0.631409
      9          6           0        1.695285    0.317830   -1.521640
     10          6           0        3.091437    0.922933   -1.170552
     11          6           0        1.462612    0.026380   -3.038095
     12          6           0        0.731399   -0.819575    0.671198
     13          6           0       -0.556913   -1.730258    0.766346
     14          6           0       -1.507090   -1.789794   -0.495285
     15          8           0       -1.219846   -1.759148   -1.701271
     16          8           0       -2.850599   -1.890162   -0.088776
     17          7           0        5.750695    2.352249   -0.601668
     18          6           0        4.652307    2.893969   -1.235535
     19          6           0        4.881067    4.228373   -1.523974
     20          6           0        6.210860    4.552423   -1.171676
     21          6           0        6.781535    3.321007   -0.592575
     22          6           0        3.800305    5.173006   -2.039018
     23          6           0        6.953763    5.825617   -1.371232
     24          8           0        8.152187    5.951334   -1.061830
     25          6           0        6.277315    7.004823   -1.975969
     26          7           0        8.134944    0.640728    0.370677
     27          6           0        8.686536    1.864819    0.337920
     28          6           0       10.167251    1.846680    0.909958
     29          6           0       10.355537    0.307476    1.247494
     30          6           0        9.029532   -0.292454    0.784738
     31          6           0       11.301494    2.511114   -0.009277
     32          6           0       10.614574   -0.065107    2.740113
     33          6           0       12.070411    0.088618    3.275963
     34          7           0        6.241097   -1.582703    0.434942
     35          6           0        7.365457   -2.259712    0.814464
     36          6           0        6.860406   -3.618418    1.204698
     37          6           0        5.437065   -3.601294    1.039085
     38          6           0        5.129509   -2.336478    0.567268
     39          6           0        7.691439   -4.799445    1.680726
     40          6           0        4.180802   -4.354521    1.230392
     41          8           0        4.030973   -5.416844    1.825683
     42          6           0        3.090854   -3.500301    0.658831
     43          6           0        2.265020   -4.244719   -0.433310
     44          8           0        2.377997   -4.034694   -1.619008
     45          8           0        1.162809   -4.882525    0.083907
     46          6           0        0.377312   -5.573643   -0.906716
     47          6           0       -3.762589   -1.930231   -1.231925
     48          6           0       -5.167332   -1.861135   -0.657648
     49          6           0       -6.260884   -1.091145   -1.075721
     50          6           0       -6.121719    0.092674   -1.993924
     51          6           0       -7.601864   -1.221721   -0.464441
     52          6           0       -8.702256   -1.850464   -1.396922
     53          6           0       -9.738547   -0.892830   -2.003847
     54          6           0      -11.247582   -1.272286   -2.047461
     55          6           0      -11.537522   -2.467816   -3.017747
     56          6           0      -12.158014   -0.023020   -2.355119
     57          6           0      -13.460829   -0.008586   -1.469342
     58          6           0      -13.310394    1.239654   -0.541542
     59          6           0      -13.748333    1.229078    0.954439
     60          6           0      -15.210460    0.795279    1.055572
     61          6           0      -13.516426    2.638171    1.606824
     62          6           0      -13.195307    2.645172    3.126789
     63          6           0      -11.914521    3.446252    3.423484
     64          6           0      -10.717752    2.471298    3.735646
     65          6           0      -10.114565    2.907303    5.110989
     66          6           0       -9.607848    2.487905    2.683466
     67          1           0        2.538037    2.679852   -2.003664
     68          1           0        8.801016    3.829909   -0.087229
     69          1           0        9.413266   -2.391201    1.189095
     70          1           0        1.212040   -1.867997   -1.137881
     71          1           0        0.911885    1.042337   -1.299648
     72          1           0        1.296551   -1.022595   -3.284211
     73          1           0        2.361308    0.324618   -3.578547
     74          1           0        0.640742    0.639704   -3.405720
     75          1           0        0.393070    0.213646    0.749321
     76          1           0        1.250853   -1.020616    1.608041
     77          1           0       -1.089634   -1.254669    1.589750
     78          1           0       -0.391349   -2.705437    1.224068
     79          1           0        2.819699    4.725464   -2.201146
     80          1           0        4.149319    5.746819   -2.898144
     81          1           0        3.638646    5.925925   -1.268336
     82          1           0        5.474790    7.269388   -1.287312
     83          1           0        5.860924    6.788679   -2.959025
     84          1           0        6.996236    7.820738   -2.049398
     85          1           0        9.997509    2.535925    1.736786
     86          1           0       11.223299   -0.054671    0.697369
     87          1           0       10.795539    2.580942   -0.972725
     88          1           0       12.189906    1.884361   -0.080284
     89          1           0       11.556512    3.460376    0.461788
     90          1           0       10.289471   -1.065584    3.028581
     91          1           0        9.919131    0.587073    3.268729
     92          1           0       12.727132    0.505490    2.513339
     93          1           0       12.421319   -0.861705    3.678413
     94          1           0       12.003552    0.753495    4.138092
     95          1           0        8.740008   -4.508269    1.625365
     96          1           0        7.495448   -5.704679    1.106402
     97          1           0        7.524056   -5.059230    2.726142
     98          1           0        2.434373   -3.362787    1.517130
     99          1           0        0.756423   -5.958878   -1.853413
    100          1           0       -0.562079   -5.050464   -1.087429
    101          1           0        0.109500   -6.411270   -0.263414
    102          1           0       -3.648077   -2.940108   -1.625419
    103          1           0       -3.669764   -1.230039   -2.062407
    104          1           0       -5.425400   -2.780662   -0.131544
    105          1           0       -5.099235    0.469620   -2.015579
    106          1           0       -6.797828    0.862437   -1.623909
    107          1           0       -6.341680   -0.167072   -3.029497
    108          1           0       -7.923073   -0.266838   -0.048549
    109          1           0       -7.555071   -2.048115    0.244976
    110          1           0       -9.254550   -2.632009   -0.874494
    111          1           0       -8.253122   -2.408085   -2.218917
    112          1           0       -9.499176   -0.752024   -3.057669
    113          1           0       -9.504982    0.097978   -1.614463
    114          1           0      -11.609379   -1.657926   -1.094075
    115          1           0      -10.652014   -2.872080   -3.507963
    116          1           0      -12.240375   -2.243410   -3.820344
    117          1           0      -11.967979   -3.230122   -2.369579
    118          1           0      -12.649758   -0.108950   -3.324530
    119          1           0      -11.525121    0.863142   -2.416659
    120          1           0      -13.712073   -0.886109   -0.873567
    121          1           0      -14.274215    0.225085   -2.155519
    122          1           0      -13.956770    2.011568   -0.958457
    123          1           0      -12.327845    1.694339   -0.663165
    124          1           0      -13.101645    0.509698    1.457017
    125          1           0      -15.765892    1.197639    1.902125
    126          1           0      -15.297133   -0.289851    1.116223
    127          1           0      -15.715846    1.028349    0.118250
    128          1           0      -14.364371    3.283861    1.376737
    129          1           0      -12.671666    3.083579    1.080886
    130          1           0      -13.103428    1.639288    3.538331
    131          1           0      -13.907979    3.086016    3.824005
    132          1           0      -12.111825    4.085294    4.284341
    133          1           0      -11.618029    4.105783    2.607343
    134          1           0      -10.986036    1.458198    4.034613
    135          1           0       -9.751469    1.990141    5.575171
    136          1           0      -10.786331    3.352828    5.844480
    137          1           0       -9.262457    3.557871    4.915952
    138          1           0       -9.585356    1.539787    2.146926
    139          1           0       -8.600083    2.594464    3.085183
    140          1           0       -9.726274    3.289835    1.954550
 ---------------------------------------------------------------------

 SCF Done:  E(RZINDO/S) =  -474.011068521     A.U. after   19 cycles

 Excitation energies and oscillator strengths:

 Excited State   1:      Singlet-A      1.2716 eV  975.02 nm  f=0.5884  <S**2>=0.000
     175 ->178         0.18098
     176 ->177         0.66554
 This state for optimization and/or second-order correction.
 Total Energy, E(CIS/TDA) =  -473.964337920
 Copying the excited state density for this state as the 1-particle RhoCI density.

 Excited State   2:      Singlet-A      1.9404 eV  638.98 nm  f=0.0760  <S**2>=0.000
     175 ->177         0.56480
     176 ->178        -0.39280

 Excited State   3:      Singlet-A      2.9168 eV  425.07 nm  f=0.0025  <S**2>=0.000
     168 ->177         0.34334
     168 ->178        -0.22376
     168 ->179        -0.35611
     168 ->181         0.27397
     168 ->182        -0.15334
     168 ->186        -0.20490
     168 ->187        -0.14547
     168 ->195         0.10055

 Excited State   4:      Singlet-A      3.0674 eV  404.20 nm  f=0.8988  <S**2>=0.000
     170 ->179         0.14349
     171 ->177        -0.14396
     175 ->177         0.31857
     176 ->178         0.50152
     176 ->179         0.14217

 Excited State   5:      Singlet-A      3.0928 eV  400.88 nm  f=0.2580  <S**2>=0.000
     169 ->177         0.13235
     169 ->179         0.19017
     169 ->181         0.12125
     169 ->182        -0.13285
     169 ->186         0.10901
     170 ->177         0.19690
     170 ->179         0.26264
     170 ->181         0.17624
     170 ->182        -0.19536
     170 ->186         0.15235
     175 ->177        -0.16980
     176 ->178        -0.23569
     176 ->179         0.12595

 The electronic state is 1-A.
 Alpha  occ. eigenvalues --   -1.82949  -1.80688  -1.78675  -1.72935  -1.71467
 Alpha  occ. eigenvalues --   -1.69367  -1.63691  -1.60012  -1.59592  -1.58660
 Alpha  occ. eigenvalues --   -1.55504  -1.50732  -1.49027  -1.47552  -1.46051
 Alpha  occ. eigenvalues --   -1.43648  -1.41172  -1.40658  -1.38761  -1.38028
 Alpha  occ. eigenvalues --   -1.35414  -1.33225  -1.32275  -1.30747  -1.27943
 Alpha  occ. eigenvalues --   -1.27002  -1.24404  -1.21892  -1.20309  -1.17821
 Alpha  occ. eigenvalues --   -1.16295  -1.15985  -1.15661  -1.14157  -1.13176
 Alpha  occ. eigenvalues --   -1.12459  -1.10578  -1.09894  -1.04969  -1.03739
 Alpha  occ. eigenvalues --   -1.03062  -1.00636  -0.99734  -0.97578  -0.96184
 Alpha  occ. eigenvalues --   -0.94984  -0.94089  -0.93047  -0.91910  -0.91690
 Alpha  occ. eigenvalues --   -0.91424  -0.90712  -0.88592  -0.87340  -0.86723
 Alpha  occ. eigenvalues --   -0.85746  -0.83541  -0.82926  -0.82086  -0.80331
 Alpha  occ. eigenvalues --   -0.79895  -0.78604  -0.78120  -0.77238  -0.76071
 Alpha  occ. eigenvalues --   -0.75882  -0.75208  -0.74499  -0.74363  -0.73694
 Alpha  occ. eigenvalues --   -0.72346  -0.72185  -0.71450  -0.70720  -0.70481
 Alpha  occ. eigenvalues --   -0.70312  -0.69712  -0.68504  -0.68043  -0.67803
 Alpha  occ. eigenvalues --   -0.67496  -0.66696  -0.66278  -0.65693  -0.65276
 Alpha  occ. eigenvalues --   -0.64972  -0.64534  -0.64208  -0.63465  -0.63232
 Alpha  occ. eigenvalues --   -0.62787  -0.62693  -0.62133  -0.61582  -0.61373
 Alpha  occ. eigenvalues --   -0.61019  -0.60767  -0.60587  -0.59808  -0.59740
 Alpha  occ. eigenvalues --   -0.59629  -0.59148  -0.58941  -0.58517  -0.58447
 Alpha  occ. eigenvalues --   -0.58281  -0.57685  -0.57493  -0.57086  -0.56292
 Alpha  occ. eigenvalues --   -0.56047  -0.55440  -0.55234  -0.54917  -0.54592
 Alpha  occ. eigenvalues --   -0.54451  -0.53824  -0.53367  -0.53047  -0.52950
 Alpha  occ. eigenvalues --   -0.52544  -0.52439  -0.52317  -0.51797  -0.51161
 Alpha  occ. eigenvalues --   -0.51022  -0.50788  -0.50590  -0.50317  -0.50248
 Alpha  occ. eigenvalues --   -0.49704  -0.49380  -0.49234  -0.49051  -0.48776
 Alpha  occ. eigenvalues --   -0.48760  -0.48409  -0.48081  -0.47858  -0.47746
 Alpha  occ. eigenvalues --   -0.47264  -0.47039  -0.46804  -0.46659  -0.46588
 Alpha  occ. eigenvalues --   -0.46476  -0.46275  -0.45887  -0.45764  -0.45597
 Alpha  occ. eigenvalues --   -0.45347  -0.44936  -0.44848  -0.44310  -0.43953
 Alpha  occ. eigenvalues --   -0.43692  -0.43183  -0.43125  -0.42544  -0.41825
 Alpha  occ. eigenvalues --   -0.41386  -0.41356  -0.41001  -0.39435  -0.38776
 Alpha  occ. eigenvalues --   -0.38519  -0.36790  -0.35497  -0.34725  -0.34472
 Alpha  occ. eigenvalues --   -0.33701  -0.32581  -0.31900  -0.31471  -0.26491
 Alpha  occ. eigenvalues --   -0.21906
 Alpha virt. eigenvalues --   -0.08564  -0.01854  -0.00285   0.01089   0.01464
 Alpha virt. eigenvalues --    0.02085   0.03079   0.03607   0.03797   0.04937
 Alpha virt. eigenvalues --    0.06370   0.06695   0.07305   0.07631   0.07828

 Mulliken charges:
               1
     1  Mg   0.421882
     2  C   -0.019295
     3  C   -0.092648
     4  C   -0.060129
     5  C   -0.059144
     6  N   -0.285230
     7  C    0.090612
     8  C    0.007558
     9  C    0.002649
    10  C    0.155254
    11  C   -0.048248
    12  C   -0.024663
    13  C    0.000767
    14  C    0.459064
    15  O   -0.506226
    16  O   -0.265340
    17  N   -0.340538
    18  C    0.136327
    19  C    0.027662
    20  C   -0.040095
    21  C    0.142482
    22  C   -0.048852
    23  C    0.328538
    24  O   -0.538199
    25  C   -0.027890
    26  N   -0.262847
    27  C    0.154374
    28  C   -0.012139
    29  C    0.012899
    30  C    0.111848
    31  C   -0.055098
    32  C   -0.034253
    33  C   -0.061018
    34  N   -0.310304
    35  C    0.072155
    36  C    0.006112
    37  C   -0.063712
    38  C    0.105367
    39  C   -0.040673
    40  C    0.339193
    41  O   -0.533773
    42  C    0.058208
    43  C    0.477242
    44  O   -0.504240
    45  O   -0.257639
    46  C    0.075175
    47  C    0.108068
    48  C   -0.116895
    49  C    0.008153
    50  C   -0.043744
    51  C   -0.015524
    52  C   -0.031822
    53  C   -0.035847
    54  C   -0.010527
    55  C   -0.059505
    56  C   -0.041134
    57  C   -0.035321
    58  C   -0.047031
    59  C   -0.006679
    60  C   -0.054190
    61  C   -0.030761
    62  C   -0.038176
    63  C   -0.032871
    64  C   -0.017668
    65  C   -0.066274
    66  C   -0.052024
    67  H    0.036246
    68  H    0.036788
    69  H    0.026021
    70  H    0.057404
    71  H    0.023805
    72  H    0.038713
    73  H    0.015315
    74  H    0.020392
    75  H    0.024033
    76  H    0.021727
    77  H    0.027053
    78  H    0.056202
    79  H    0.029974
    80  H    0.032435
    81  H    0.025070
    82  H    0.036756
    83  H    0.039322
    84  H    0.037435
    85  H    0.037763
    86  H    0.031330
    87  H    0.033600
    88  H    0.025309
    89  H    0.030860
    90  H    0.024839
    91  H    0.015737
    92  H    0.026254
    93  H    0.023206
    94  H    0.017260
    95  H    0.014199
    96  H    0.036066
    97  H    0.031541
    98  H    0.057819
    99  H    0.062930
   100  H    0.035987
   101  H    0.020276
   102  H    0.040524
   103  H    0.058087
   104  H    0.023163
   105  H    0.022195
   106  H    0.023600
   107  H    0.033334
   108  H    0.037825
   109  H    0.018975
   110  H    0.016218
   111  H    0.018809
   112  H    0.008381
   113  H    0.015289
   114  H    0.019360
   115  H    0.020082
   116  H    0.021429
   117  H    0.015799
   118  H    0.011222
   119  H    0.032459
   120  H    0.035665
   121  H    0.017983
   122  H    0.005630
   123  H    0.016028
   124  H    0.018076
   125  H    0.020615
   126  H    0.010402
   127  H    0.018762
   128  H    0.020487
   129  H    0.016158
   130  H    0.019561
   131  H    0.017371
   132  H    0.016387
   133  H    0.023171
   134  H    0.030655
   135  H    0.006976
   136  H    0.020240
   137  H    0.017481
   138  H    0.011298
   139  H    0.017717
   140  H    0.019516
 Sum of Mulliken charges =  -0.00000

 Dipole moment (field-independent basis, Debye):
    X=             -5.4032    Y=              6.0728    Z=              0.2382  Tot=              8.1321
 N-N= 4.234963721687D+03 E-N= 0.000000000000D+00  KE=-9.144416429173D+03
 Leave Link  601 at Wed May  4 01:38:38 2022, MaxMem=  6710886400 cpu:               0.8 elap:               0.0
 (Enter /sw/apps/gaussian-16.0/g16/l9999.exe)
 1\1\GINC-BP1-COMPUTE058\SP\RZINDO CIS\STO-3G\C55H74Mg1N4O6\OF15641\04-
 May-2022\0\\#p ZINDO=(nstates=5)\\step_1151_chromophore_7 ZINDO\\0,1\M
 g,0,26.039,-0.606,29.876\C,0,28.16,-0.675,32.662\C,0,23.382,-0.333,32.
 124\C,0,24.078,-0.253,27.251\C,0,28.735,-1.304,27.755\N,0,25.828,-0.57
 4,32.104\C,0,26.84,-0.599,33.107\C,0,26.34,-0.293,34.517\C,0,24.79,-0.
 563,34.272\C,0,24.645,-0.44,32.722\C,0,24.318,-1.924,34.875\C,0,26.628
 ,1.181,35.054\C,0,27.261,1.292,36.498\C,0,26.586,0.46,37.66\O,0,26.057

 Normal termination of Gaussian 16 at Wed May  4 01:38:38 2022.
