 Gaussian 16, Revision A.03,
 Gaussian 16:  ES64L-G16RevA.03 25-Dec-2016

 ------------------------------
 #p blyp/Def2SVP td=(nstates=5)
 ------------------------------

 -------------------------------------------------
 step_451_chromophore_2 TDDFT with blyp functional
 -------------------------------------------------
 Symbolic Z-matrix:
 Charge =  0 Multiplicity = 1

                         Standard orientation:
 ---------------------------------------------------------------------
 Center     Atomic      Atomic             Coordinates (Angstroms)
 Number     Number       Type             X           Y           Z
 ---------------------------------------------------------------------
      1         12           0       -4.675552    1.386498    0.402419
      2          6           0       -4.480081   -2.053442   -0.057459
      3          6           0       -2.518632    1.038636    2.944680
      4          6           0       -4.110265    4.656968    0.122913
      5          6           0       -7.220939    1.468382   -1.934646
      6          7           0       -3.411646   -0.297374    1.159422
      7          6           0       -3.494987   -1.620177    0.814709
      8          6           0       -2.546695   -2.577264    1.586622
      9          6           0       -2.327466   -1.577951    2.814621
     10          6           0       -2.900356   -0.193832    2.401743
     11          6           0       -2.865735   -2.122442    4.238129
     12          6           0       -1.254984   -3.172715    0.799909
     13          6           0       -1.100447   -4.705067    1.202579
     14          6           0        0.363097   -5.288439    1.147527
     15          8           0        0.833713   -6.133715    1.949092
     16          8           0        1.160691   -4.725341    0.187440
     17          7           0       -3.433219    2.659611    1.360814
     18          6           0       -2.637901    2.335165    2.409389
     19          6           0       -1.881647    3.509806    2.872596
     20          6           0       -2.207837    4.608468    2.081295
     21          6           0       -3.273531    4.037050    1.114506
     22          6           0       -0.880453    3.405843    3.992191
     23          6           0       -1.699943    6.043162    2.165551
     24          8           0       -0.863486    6.373277    3.000991
     25          6           0       -2.265098    7.006094    1.278756
     26          7           0       -5.459704    2.837258   -0.953058
     27          6           0       -5.119123    4.139481   -0.720269
     28          6           0       -6.029819    5.072904   -1.588596
     29          6           0       -7.001653    4.016781   -2.349617
     30          6           0       -6.586189    2.713540   -1.714711
     31          6           0       -6.993199    5.982144   -0.876373
     32          6           0       -6.844074    3.916994   -3.918922
     33          6           0       -8.138512    3.598706   -4.660669
     34          7           0       -5.739661    0.028802   -0.743326
     35          6           0       -6.816532    0.130289   -1.623593
     36          6           0       -7.382813   -1.165737   -1.856433
     37          6           0       -6.415492   -2.051591   -1.388411
     38          6           0       -5.483476   -1.311259   -0.693158
     39          6           0       -8.716439   -1.450863   -2.593223
     40          6           0       -6.077811   -3.399394   -1.295789
     41          8           0       -6.611003   -4.445380   -1.652730
     42          6           0       -4.750958   -3.454572   -0.490053
     43          6           0       -4.989538   -4.480506    0.568319
     44          8           0       -4.701211   -5.668057    0.434129
     45          8           0       -5.547128   -3.879965    1.689061
     46          6           0       -5.709158   -4.722621    2.873699
     47          6           0        2.586049   -5.175343    0.035310
     48          6           0        3.302495   -4.015554   -0.645523
     49          6           0        3.507242   -3.838807   -1.975999
     50          6           0        2.642953   -4.631196   -2.978188
     51          6           0        4.191976   -2.549345   -2.517846
     52          6           0        5.668816   -2.398605   -2.357402
     53          6           0        6.149787   -0.974538   -2.281347
     54          6           0        6.165632   -0.491682   -0.838189
     55          6           0        5.484463    0.826591   -0.552645
     56          6           0        7.597873   -0.493219   -0.301722
     57          6           0        8.641439    0.570885   -0.847351
     58          6           0        9.236807    1.407931    0.333289
     59          6           0       10.553420    0.761177    0.818441
     60          6           0       10.461797    0.601206    2.380243
     61          6           0       11.813497    1.576419    0.507093
     62          6           0       12.673205    1.194538   -0.712455
     63          6           0       14.203616    0.992010   -0.445005
     64          6           0       15.173629    1.990202   -1.158583
     65          6           0       15.962794    1.206842   -2.175311
     66          6           0       16.003638    2.675930   -0.122951
     67          1           0       -1.984976    0.946139    3.892406
     68          1           0       -3.985905    5.734066   -0.004075
     69          1           0       -7.902998    1.406211   -2.784836
     70          1           0       -3.071669   -3.405190    2.062932
     71          1           0       -1.318043   -1.299415    3.117256
     72          1           0       -3.120672   -3.181137    4.172815
     73          1           0       -3.772051   -1.561324    4.463941
     74          1           0       -2.307026   -1.816883    5.122785
     75          1           0       -0.405530   -2.656486    1.246310
     76          1           0       -1.268625   -2.971457   -0.272174
     77          1           0       -1.663984   -5.275760    0.465015
     78          1           0       -1.412152   -4.837248    2.237860
     79          1           0        0.022203    2.848716    3.742616
     80          1           0       -1.267560    2.852370    4.847580
     81          1           0       -0.585617    4.413231    4.286862
     82          1           0       -1.717704    7.930164    1.465741
     83          1           0       -3.305952    7.277482    1.458944
     84          1           0       -2.092128    6.545076    0.306212
     85          1           0       -5.503177    5.662952   -2.339649
     86          1           0       -8.041655    4.141773   -2.048757
     87          1           0       -7.127712    5.820927    0.192936
     88          1           0       -8.005320    5.936252   -1.278805
     89          1           0       -6.683358    7.017273   -1.021851
     90          1           0       -6.116465    3.146174   -4.174782
     91          1           0       -6.389801    4.823433   -4.318634
     92          1           0       -8.353318    4.467273   -5.283057
     93          1           0       -9.005790    3.528784   -4.003883
     94          1           0       -8.084571    2.627781   -5.153294
     95          1           0       -8.638749   -1.549843   -3.675859
     96          1           0       -9.439243   -0.680959   -2.323906
     97          1           0       -9.118871   -2.349401   -2.125429
     98          1           0       -3.990210   -3.824557   -1.177985
     99          1           0       -5.142837   -4.319808    3.713805
    100          1           0       -5.420942   -5.771215    2.806383
    101          1           0       -6.762344   -4.554792    3.100883
    102          1           0        2.621715   -6.016979   -0.656535
    103          1           0        3.012093   -5.335135    1.025507
    104          1           0        3.807778   -3.261558   -0.042627
    105          1           0        1.657924   -4.956027   -2.642349
    106          1           0        3.328578   -5.471196   -3.092672
    107          1           0        2.601308   -4.003846   -3.867828
    108          1           0        3.787511   -1.729004   -1.924483
    109          1           0        4.075396   -2.337226   -3.580666
    110          1           0        6.093019   -2.883925   -3.236501
    111          1           0        6.094210   -2.931994   -1.506412
    112          1           0        5.450384   -0.364770   -2.853298
    113          1           0        7.089951   -1.079476   -2.821344
    114          1           0        5.559860   -1.213351   -0.289671
    115          1           0        5.222829    0.984961    0.493307
    116          1           0        4.555034    0.807990   -1.121796
    117          1           0        6.051842    1.632165   -1.019462
    118          1           0        8.039580   -1.469474   -0.501346
    119          1           0        7.458299   -0.358195    0.769946
    120          1           0        8.309613    1.240512   -1.640883
    121          1           0        9.449978    0.051859   -1.362739
    122          1           0        8.520532    1.392175    1.153715
    123          1           0        9.311835    2.471590    0.109970
    124          1           0       10.644600   -0.283181    0.519168
    125          1           0        9.522970    0.967228    2.795224
    126          1           0       11.204234    1.230943    2.871032
    127          1           0       10.608311   -0.432296    2.698313
    128          1           0       12.512867    1.523585    1.341189
    129          1           0       11.496058    2.606399    0.344876
    130          1           0       12.567727    1.845779   -1.579454
    131          1           0       12.238965    0.281059   -1.118305
    132          1           0       14.417144   -0.038660   -0.726400
    133          1           0       14.279728    1.082150    0.638506
    134          1           0       14.667724    2.847981   -1.602610
    135          1           0       16.637069    0.505352   -1.682230
    136          1           0       16.579363    1.757442   -2.884769
    137          1           0       15.255291    0.529836   -2.654298
    138          1           0       16.813552    2.001303    0.153187
    139          1           0       15.410528    2.851578    0.775172
    140          1           0       16.298317    3.673281   -0.446619
 ---------------------------------------------------------------------

 SCF Done:  E(RB-LYP) =  -3007.33902606     A.U. after   21 cycles

 Excitation energies and oscillator strengths:

 Excited State   1:      Singlet-A      1.7527 eV  707.38 nm  f=0.1001  <S**2>=0.000
     244 -> 247        0.52881
     245 -> 247       -0.12046
     245 -> 248        0.12046
     246 -> 247        0.44079
 This state for optimization and/or second-order correction.
 Total Energy, E(TD-HF/TD-DFT) =  -3007.27461458
 Copying the excited state density for this state as the 1-particle RhoCI density.

 Excited State   2:      Singlet-A      1.8030 eV  687.64 nm  f=0.1751  <S**2>=0.000
     244 -> 247       -0.44540
     245 -> 248        0.15831
     246 -> 247        0.52194
     246 <- 247       -0.11196

 Excited State   3:      Singlet-A      1.9601 eV  632.52 nm  f=0.0635  <S**2>=0.000
     244 -> 247        0.14151
     245 -> 247        0.62879
     246 -> 248       -0.23156

 Excited State   4:      Singlet-A      2.1095 eV  587.75 nm  f=0.0010  <S**2>=0.000
     242 -> 247       -0.29919
     243 -> 247        0.63917

 Excited State   5:      Singlet-A      2.1189 eV  585.15 nm  f=0.0020  <S**2>=0.000
     242 -> 247        0.63282
     243 -> 247        0.29937

 The electronic state is 1-A.
 Alpha  occ. eigenvalues --  -46.27278 -18.82479 -18.81522 -18.76495 -18.76325
 Alpha  occ. eigenvalues --  -18.75806 -18.75168 -14.03415 -14.03334 -14.02220
 Alpha  occ. eigenvalues --  -14.00609 -10.03926 -10.03777 -10.00461  -9.98864
 Alpha  occ. eigenvalues --   -9.98285  -9.97880  -9.97842  -9.97629  -9.97018
 Alpha  occ. eigenvalues --   -9.96840  -9.96587  -9.96345  -9.95552  -9.95262
 Alpha  occ. eigenvalues --   -9.95007  -9.94711  -9.94465  -9.94389  -9.94289
 Alpha  occ. eigenvalues --   -9.94206  -9.94188  -9.93987  -9.93951  -9.93863
 Alpha  occ. eigenvalues --   -9.93548  -9.93361  -9.93217  -9.93216  -9.93017
 Alpha  occ. eigenvalues --   -9.93005  -9.92852  -9.92754  -9.92502  -9.92481
 Alpha  occ. eigenvalues --   -9.92284  -9.92273  -9.92146  -9.92054  -9.91698
 Alpha  occ. eigenvalues --   -9.91667  -9.91560  -9.91434  -9.91390  -9.91228
 Alpha  occ. eigenvalues --   -9.90963  -9.90913  -9.90869  -9.90820  -9.90810
 Alpha  occ. eigenvalues --   -9.90787  -9.90777  -9.90639  -9.90621  -9.90262
 Alpha  occ. eigenvalues --   -9.90165  -2.92010  -1.72418  -1.71905  -1.71720
 Alpha  occ. eigenvalues --   -0.97095  -0.96122  -0.92297  -0.90956  -0.89435
 Alpha  occ. eigenvalues --   -0.87333  -0.86885  -0.86107  -0.85778  -0.85050
 Alpha  occ. eigenvalues --   -0.76459  -0.74441  -0.72858  -0.72538  -0.72334
 Alpha  occ. eigenvalues --   -0.71995  -0.71741  -0.71364  -0.71056  -0.70690
 Alpha  occ. eigenvalues --   -0.69869  -0.69065  -0.68711  -0.67960  -0.67917
 Alpha  occ. eigenvalues --   -0.67093  -0.66618  -0.65737  -0.65002  -0.64722
 Alpha  occ. eigenvalues --   -0.64042  -0.62458  -0.62282  -0.61948  -0.60900
 Alpha  occ. eigenvalues --   -0.60794  -0.60591  -0.60086  -0.59233  -0.58649
 Alpha  occ. eigenvalues --   -0.58307  -0.57772  -0.57159  -0.56012  -0.54795
 Alpha  occ. eigenvalues --   -0.54276  -0.53891  -0.53363  -0.52395  -0.51987
 Alpha  occ. eigenvalues --   -0.51855  -0.51736  -0.51045  -0.50720  -0.49577
 Alpha  occ. eigenvalues --   -0.49441  -0.49148  -0.49142  -0.48126  -0.46537
 Alpha  occ. eigenvalues --   -0.46367  -0.46026  -0.45465  -0.45413  -0.44496
 Alpha  occ. eigenvalues --   -0.43916  -0.43647  -0.43629  -0.42933  -0.42621
 Alpha  occ. eigenvalues --   -0.42434  -0.42032  -0.41827  -0.41573  -0.41199
 Alpha  occ. eigenvalues --   -0.41017  -0.40895  -0.40493  -0.40386  -0.40272
 Alpha  occ. eigenvalues --   -0.40024  -0.39883  -0.39564  -0.39519  -0.39412
 Alpha  occ. eigenvalues --   -0.38988  -0.38900  -0.38701  -0.38448  -0.38367
 Alpha  occ. eigenvalues --   -0.38255  -0.37995  -0.37823  -0.37576  -0.37324
 Alpha  occ. eigenvalues --   -0.37215  -0.37038  -0.36831  -0.36706  -0.36603
 Alpha  occ. eigenvalues --   -0.36481  -0.36228  -0.35924  -0.35712  -0.35491
 Alpha  occ. eigenvalues --   -0.35301  -0.35196  -0.35080  -0.35012  -0.34787
 Alpha  occ. eigenvalues --   -0.34553  -0.34343  -0.34222  -0.34035  -0.33849
 Alpha  occ. eigenvalues --   -0.33786  -0.33565  -0.33449  -0.33252  -0.33214
 Alpha  occ. eigenvalues --   -0.33171  -0.33033  -0.32894  -0.32699  -0.32627
 Alpha  occ. eigenvalues --   -0.32316  -0.32197  -0.31848  -0.31465  -0.31374
 Alpha  occ. eigenvalues --   -0.31290  -0.31065  -0.31056  -0.30907  -0.30650
 Alpha  occ. eigenvalues --   -0.30503  -0.30273  -0.30112  -0.30024  -0.29729
 Alpha  occ. eigenvalues --   -0.29561  -0.29391  -0.29126  -0.29077  -0.28876
 Alpha  occ. eigenvalues --   -0.28740  -0.28657  -0.28472  -0.28000  -0.27616
 Alpha  occ. eigenvalues --   -0.27598  -0.27565  -0.27106  -0.27029  -0.26680
 Alpha  occ. eigenvalues --   -0.26550  -0.25912  -0.25781  -0.25769  -0.25354
 Alpha  occ. eigenvalues --   -0.24793  -0.24760  -0.24351  -0.24307  -0.24189
 Alpha  occ. eigenvalues --   -0.23919  -0.22764  -0.21863  -0.21463  -0.21265
 Alpha  occ. eigenvalues --   -0.20760  -0.19748  -0.19668  -0.18421  -0.17630
 Alpha  occ. eigenvalues --   -0.16274
 Alpha virt. eigenvalues --   -0.11989  -0.07887  -0.06641  -0.05128  -0.03797
 Alpha virt. eigenvalues --   -0.03031  -0.02561  -0.02409  -0.01960  -0.00177
 Alpha virt. eigenvalues --    0.00984   0.01429   0.02115   0.02759   0.02856

 Mulliken charges:
               1
     1  Mg   0.690012
     2  C    0.094388
     3  C   -0.092932
     4  C   -0.037438
     5  C   -0.047975
     6  N   -0.205122
     7  C   -0.117670
     8  C    0.033362
     9  C   -0.053391
    10  C    0.065451
    11  C    0.092223
    12  C    0.146489
    13  C    0.083926
    14  C    0.081176
    15  O   -0.225940
    16  O   -0.284102
    17  N   -0.316764
    18  C    0.165591
    19  C   -0.135847
    20  C    0.030332
    21  C    0.108057
    22  C    0.166506
    23  C   -0.085842
    24  O   -0.151032
    25  C    0.149763
    26  N   -0.223182
    27  C    0.050087
    28  C    0.009429
    29  C    0.011737
    30  C   -0.000776
    31  C    0.118425
    32  C    0.087212
    33  C    0.070628
    34  N   -0.276615
    35  C    0.060035
    36  C   -0.193329
    37  C    0.191780
    38  C    0.051743
    39  C    0.163684
    40  C   -0.140778
    41  O   -0.126910
    42  C    0.066812
    43  C    0.106846
    44  O   -0.166838
    45  O   -0.293225
    46  C    0.209640
    47  C    0.360169
    48  C   -0.124782
    49  C   -0.139549
    50  C    0.121547
    51  C    0.127215
    52  C    0.026473
    53  C    0.139256
    54  C   -0.044283
    55  C    0.109706
    56  C    0.108790
    57  C    0.056734
    58  C    0.125542
    59  C   -0.074943
    60  C    0.078418
    61  C    0.138398
    62  C    0.053789
    63  C    0.086221
    64  C   -0.054777
    65  C    0.117341
    66  C    0.107060
    67  H   -0.064033
    68  H   -0.076633
    69  H   -0.049335
    70  H   -0.006177
    71  H   -0.019133
    72  H    0.012986
    73  H   -0.021403
    74  H   -0.005422
    75  H   -0.016832
    76  H    0.001454
    77  H    0.038347
    78  H    0.010227
    79  H   -0.002039
    80  H   -0.009386
    81  H    0.007764
    82  H   -0.010287
    83  H    0.029547
    84  H    0.022613
    85  H   -0.019365
    86  H   -0.010039
    87  H   -0.009340
    88  H   -0.011915
    89  H   -0.017490
    90  H   -0.013276
    91  H   -0.025424
    92  H   -0.004653
    93  H   -0.014039
    94  H    0.007354
    95  H    0.020422
    96  H   -0.014756
    97  H    0.004871
    98  H    0.001389
    99  H   -0.001592
   100  H    0.033540
   101  H    0.017691
   102  H   -0.000223
   103  H    0.007244
   104  H   -0.041921
   105  H    0.022234
   106  H    0.007493
   107  H   -0.007257
   108  H   -0.014240
   109  H   -0.026818
   110  H   -0.049557
   111  H   -0.030698
   112  H   -0.056022
   113  H   -0.033485
   114  H   -0.042428
   115  H   -0.009043
   116  H   -0.032009
   117  H   -0.018430
   118  H   -0.038220
   119  H   -0.031976
   120  H   -0.032776
   121  H   -0.029989
   122  H   -0.034617
   123  H   -0.040848
   124  H   -0.033534
   125  H   -0.026868
   126  H   -0.026827
   127  H   -0.012030
   128  H   -0.033030
   129  H   -0.035233
   130  H   -0.040381
   131  H   -0.048490
   132  H   -0.035935
   133  H   -0.040300
   134  H   -0.036553
   135  H   -0.027220
   136  H   -0.015319
   137  H   -0.019574
   138  H   -0.023030
   139  H   -0.024608
   140  H   -0.021067
 Sum of Mulliken charges =  -0.00000

 Dipole moment (field-independent basis, Debye):
    X=             -1.3241    Y=              6.2752    Z=             -1.1637  Tot=              6.5181
 Quadrupole moment (field-independent basis, Debye-Ang):
   XX=           -389.1094   YY=           -448.6148   ZZ=           -395.1807
   XY=            -50.2598   XZ=            -16.0938   YZ=            -20.4932

 Normal termination of Gaussian 16 at Wed May  4 22:43:15 2022.
