 Gaussian 16, Revision A.03,
 Gaussian 16:  ES64L-G16RevA.03 25-Dec-2016

 -----------------------------------
 #p cam-b3lyp/Def2SVP td=(nstates=5)
 -----------------------------------

 ------------------------------------------------------
 step_451_chromophore_2 TDDFT with cam-b3lyp functional
 ------------------------------------------------------
 Symbolic Z-matrix:
 Charge =  0 Multiplicity = 1

                         Standard orientation:
 ---------------------------------------------------------------------
 Center     Atomic      Atomic             Coordinates (Angstroms)
 Number     Number       Type             X           Y           Z
 ---------------------------------------------------------------------
      1         12           0       -4.675552    1.386498    0.402419
      2          6           0       -4.480081   -2.053442   -0.057459
      3          6           0       -2.518632    1.038636    2.944680
      4          6           0       -4.110265    4.656968    0.122913
      5          6           0       -7.220939    1.468382   -1.934646
      6          7           0       -3.411646   -0.297374    1.159422
      7          6           0       -3.494987   -1.620177    0.814709
      8          6           0       -2.546695   -2.577264    1.586622
      9          6           0       -2.327466   -1.577951    2.814621
     10          6           0       -2.900356   -0.193832    2.401743
     11          6           0       -2.865735   -2.122442    4.238129
     12          6           0       -1.254984   -3.172715    0.799909
     13          6           0       -1.100447   -4.705067    1.202579
     14          6           0        0.363097   -5.288439    1.147527
     15          8           0        0.833713   -6.133715    1.949092
     16          8           0        1.160691   -4.725341    0.187440
     17          7           0       -3.433219    2.659611    1.360814
     18          6           0       -2.637901    2.335165    2.409389
     19          6           0       -1.881647    3.509806    2.872596
     20          6           0       -2.207837    4.608468    2.081295
     21          6           0       -3.273531    4.037050    1.114506
     22          6           0       -0.880453    3.405843    3.992191
     23          6           0       -1.699943    6.043162    2.165551
     24          8           0       -0.863486    6.373277    3.000991
     25          6           0       -2.265098    7.006094    1.278756
     26          7           0       -5.459704    2.837258   -0.953058
     27          6           0       -5.119123    4.139481   -0.720269
     28          6           0       -6.029819    5.072904   -1.588596
     29          6           0       -7.001653    4.016781   -2.349617
     30          6           0       -6.586189    2.713540   -1.714711
     31          6           0       -6.993199    5.982144   -0.876373
     32          6           0       -6.844074    3.916994   -3.918922
     33          6           0       -8.138512    3.598706   -4.660669
     34          7           0       -5.739661    0.028802   -0.743326
     35          6           0       -6.816532    0.130289   -1.623593
     36          6           0       -7.382813   -1.165737   -1.856433
     37          6           0       -6.415492   -2.051591   -1.388411
     38          6           0       -5.483476   -1.311259   -0.693158
     39          6           0       -8.716439   -1.450863   -2.593223
     40          6           0       -6.077811   -3.399394   -1.295789
     41          8           0       -6.611003   -4.445380   -1.652730
     42          6           0       -4.750958   -3.454572   -0.490053
     43          6           0       -4.989538   -4.480506    0.568319
     44          8           0       -4.701211   -5.668057    0.434129
     45          8           0       -5.547128   -3.879965    1.689061
     46          6           0       -5.709158   -4.722621    2.873699
     47          6           0        2.586049   -5.175343    0.035310
     48          6           0        3.302495   -4.015554   -0.645523
     49          6           0        3.507242   -3.838807   -1.975999
     50          6           0        2.642953   -4.631196   -2.978188
     51          6           0        4.191976   -2.549345   -2.517846
     52          6           0        5.668816   -2.398605   -2.357402
     53          6           0        6.149787   -0.974538   -2.281347
     54          6           0        6.165632   -0.491682   -0.838189
     55          6           0        5.484463    0.826591   -0.552645
     56          6           0        7.597873   -0.493219   -0.301722
     57          6           0        8.641439    0.570885   -0.847351
     58          6           0        9.236807    1.407931    0.333289
     59          6           0       10.553420    0.761177    0.818441
     60          6           0       10.461797    0.601206    2.380243
     61          6           0       11.813497    1.576419    0.507093
     62          6           0       12.673205    1.194538   -0.712455
     63          6           0       14.203616    0.992010   -0.445005
     64          6           0       15.173629    1.990202   -1.158583
     65          6           0       15.962794    1.206842   -2.175311
     66          6           0       16.003638    2.675930   -0.122951
     67          1           0       -1.984976    0.946139    3.892406
     68          1           0       -3.985905    5.734066   -0.004075
     69          1           0       -7.902998    1.406211   -2.784836
     70          1           0       -3.071669   -3.405190    2.062932
     71          1           0       -1.318043   -1.299415    3.117256
     72          1           0       -3.120672   -3.181137    4.172815
     73          1           0       -3.772051   -1.561324    4.463941
     74          1           0       -2.307026   -1.816883    5.122785
     75          1           0       -0.405530   -2.656486    1.246310
     76          1           0       -1.268625   -2.971457   -0.272174
     77          1           0       -1.663984   -5.275760    0.465015
     78          1           0       -1.412152   -4.837248    2.237860
     79          1           0        0.022203    2.848716    3.742616
     80          1           0       -1.267560    2.852370    4.847580
     81          1           0       -0.585617    4.413231    4.286862
     82          1           0       -1.717704    7.930164    1.465741
     83          1           0       -3.305952    7.277482    1.458944
     84          1           0       -2.092128    6.545076    0.306212
     85          1           0       -5.503177    5.662952   -2.339649
     86          1           0       -8.041655    4.141773   -2.048757
     87          1           0       -7.127712    5.820927    0.192936
     88          1           0       -8.005320    5.936252   -1.278805
     89          1           0       -6.683358    7.017273   -1.021851
     90          1           0       -6.116465    3.146174   -4.174782
     91          1           0       -6.389801    4.823433   -4.318634
     92          1           0       -8.353318    4.467273   -5.283057
     93          1           0       -9.005790    3.528784   -4.003883
     94          1           0       -8.084571    2.627781   -5.153294
     95          1           0       -8.638749   -1.549843   -3.675859
     96          1           0       -9.439243   -0.680959   -2.323906
     97          1           0       -9.118871   -2.349401   -2.125429
     98          1           0       -3.990210   -3.824557   -1.177985
     99          1           0       -5.142837   -4.319808    3.713805
    100          1           0       -5.420942   -5.771215    2.806383
    101          1           0       -6.762344   -4.554792    3.100883
    102          1           0        2.621715   -6.016979   -0.656535
    103          1           0        3.012093   -5.335135    1.025507
    104          1           0        3.807778   -3.261558   -0.042627
    105          1           0        1.657924   -4.956027   -2.642349
    106          1           0        3.328578   -5.471196   -3.092672
    107          1           0        2.601308   -4.003846   -3.867828
    108          1           0        3.787511   -1.729004   -1.924483
    109          1           0        4.075396   -2.337226   -3.580666
    110          1           0        6.093019   -2.883925   -3.236501
    111          1           0        6.094210   -2.931994   -1.506412
    112          1           0        5.450384   -0.364770   -2.853298
    113          1           0        7.089951   -1.079476   -2.821344
    114          1           0        5.559860   -1.213351   -0.289671
    115          1           0        5.222829    0.984961    0.493307
    116          1           0        4.555034    0.807990   -1.121796
    117          1           0        6.051842    1.632165   -1.019462
    118          1           0        8.039580   -1.469474   -0.501346
    119          1           0        7.458299   -0.358195    0.769946
    120          1           0        8.309613    1.240512   -1.640883
    121          1           0        9.449978    0.051859   -1.362739
    122          1           0        8.520532    1.392175    1.153715
    123          1           0        9.311835    2.471590    0.109970
    124          1           0       10.644600   -0.283181    0.519168
    125          1           0        9.522970    0.967228    2.795224
    126          1           0       11.204234    1.230943    2.871032
    127          1           0       10.608311   -0.432296    2.698313
    128          1           0       12.512867    1.523585    1.341189
    129          1           0       11.496058    2.606399    0.344876
    130          1           0       12.567727    1.845779   -1.579454
    131          1           0       12.238965    0.281059   -1.118305
    132          1           0       14.417144   -0.038660   -0.726400
    133          1           0       14.279728    1.082150    0.638506
    134          1           0       14.667724    2.847981   -1.602610
    135          1           0       16.637069    0.505352   -1.682230
    136          1           0       16.579363    1.757442   -2.884769
    137          1           0       15.255291    0.529836   -2.654298
    138          1           0       16.813552    2.001303    0.153187
    139          1           0       15.410528    2.851578    0.775172
    140          1           0       16.298317    3.673281   -0.446619
 ---------------------------------------------------------------------

 SCF Done:  E(RCAM-B3LYP) =  -3007.12806173     A.U. after   17 cycles

 Excitation energies and oscillator strengths:

 Excited State   1:      Singlet-A      1.7403 eV  712.43 nm  f=0.3444  <S**2>=0.000
     245 -> 248        0.17710
     246 -> 247        0.68402
     245 <- 248        0.10159
 This state for optimization and/or second-order correction.
 Total Energy, E(TD-HF/TD-DFT) =  -3007.06410655
 Copying the excited state density for this state as the 1-particle RhoCI density.

 Excited State   2:      Singlet-A      2.2088 eV  561.32 nm  f=0.0800  <S**2>=0.000
     245 -> 247        0.62890
     246 -> 248       -0.30440

 Excited State   3:      Singlet-A      3.3824 eV  366.56 nm  f=0.3164  <S**2>=0.000
     243 -> 247        0.39797
     244 -> 247        0.13544
     245 -> 247        0.22724
     246 -> 248        0.51013

 Excited State   4:      Singlet-A      3.4448 eV  359.92 nm  f=0.1205  <S**2>=0.000
     241 -> 247       -0.13630
     242 -> 247        0.40461
     242 -> 249       -0.22168
     242 -> 250       -0.14903
     242 -> 251        0.13718
     243 -> 247       -0.33903
     244 -> 247       -0.11390
     245 -> 247        0.12261
     246 -> 248        0.23757

 Excited State   5:      Singlet-A      3.4991 eV  354.33 nm  f=0.1815  <S**2>=0.000
     240 -> 247        0.12993
     241 -> 247        0.20368
     242 -> 247        0.40748
     242 -> 249       -0.16554
     242 -> 250       -0.10180
     243 -> 247        0.32935
     244 -> 247        0.11835
     245 -> 247       -0.13474
     246 -> 248       -0.25804

 The electronic state is 1-A.
 Alpha  occ. eigenvalues --  -46.88840 -19.25291 -19.24348 -19.19897 -19.19473
 Alpha  occ. eigenvalues --  -19.18653 -19.17953 -14.42309 -14.42303 -14.41063
 Alpha  occ. eigenvalues --  -14.38792 -10.39243 -10.39158 -10.35963 -10.33799
 Alpha  occ. eigenvalues --  -10.33121 -10.32577 -10.32452 -10.31877 -10.31783
 Alpha  occ. eigenvalues --  -10.31314 -10.30939 -10.30761 -10.29733 -10.29424
 Alpha  occ. eigenvalues --  -10.29248 -10.29222 -10.28979 -10.28817 -10.28410
 Alpha  occ. eigenvalues --  -10.28221 -10.28174 -10.28079 -10.28070 -10.27808
 Alpha  occ. eigenvalues --  -10.27720 -10.27720 -10.27138 -10.27135 -10.27099
 Alpha  occ. eigenvalues --  -10.26826 -10.26746 -10.26707 -10.26278 -10.26272
 Alpha  occ. eigenvalues --  -10.26161 -10.25979 -10.25787 -10.25739 -10.25458
 Alpha  occ. eigenvalues --  -10.25412 -10.25354 -10.25101 -10.25072 -10.24927
 Alpha  occ. eigenvalues --  -10.24600 -10.24564 -10.24518 -10.24496 -10.24442
 Alpha  occ. eigenvalues --  -10.24429 -10.24319 -10.24294 -10.24196 -10.23886
 Alpha  occ. eigenvalues --  -10.23729  -3.17478  -1.92361  -1.91938  -1.91790
 Alpha  occ. eigenvalues --   -1.15464  -1.14438  -1.11056  -1.08988  -1.07280
 Alpha  occ. eigenvalues --   -1.05051  -1.04691  -1.03768  -1.03453  -1.02641
 Alpha  occ. eigenvalues --   -0.93393  -0.91344  -0.89656  -0.89286  -0.89056
 Alpha  occ. eigenvalues --   -0.88784  -0.88452  -0.88006  -0.87861  -0.87613
 Alpha  occ. eigenvalues --   -0.86220  -0.85424  -0.85151  -0.84312  -0.84029
 Alpha  occ. eigenvalues --   -0.83238  -0.82721  -0.81643  -0.80702  -0.80468
 Alpha  occ. eigenvalues --   -0.79849  -0.78223  -0.77775  -0.77606  -0.76276
 Alpha  occ. eigenvalues --   -0.76163  -0.76006  -0.75445  -0.74506  -0.73882
 Alpha  occ. eigenvalues --   -0.73269  -0.72743  -0.72130  -0.70894  -0.69264
 Alpha  occ. eigenvalues --   -0.69071  -0.68502  -0.68006  -0.66495  -0.66339
 Alpha  occ. eigenvalues --   -0.66104  -0.66049  -0.65181  -0.64635  -0.63596
 Alpha  occ. eigenvalues --   -0.63127  -0.63061  -0.62763  -0.61910  -0.60259
 Alpha  occ. eigenvalues --   -0.59962  -0.59701  -0.58955  -0.58801  -0.57780
 Alpha  occ. eigenvalues --   -0.57329  -0.56979  -0.56816  -0.56089  -0.55735
 Alpha  occ. eigenvalues --   -0.55454  -0.54880  -0.54746  -0.54383  -0.54301
 Alpha  occ. eigenvalues --   -0.53901  -0.53779  -0.53443  -0.53197  -0.52932
 Alpha  occ. eigenvalues --   -0.52723  -0.52397  -0.52334  -0.52059  -0.51915
 Alpha  occ. eigenvalues --   -0.51702  -0.51377  -0.51237  -0.51002  -0.50979
 Alpha  occ. eigenvalues --   -0.50806  -0.50490  -0.50291  -0.50134  -0.49941
 Alpha  occ. eigenvalues --   -0.49416  -0.49267  -0.49211  -0.48869  -0.48746
 Alpha  occ. eigenvalues --   -0.48622  -0.48538  -0.48238  -0.47867  -0.47773
 Alpha  occ. eigenvalues --   -0.47531  -0.47258  -0.47161  -0.46821  -0.46799
 Alpha  occ. eigenvalues --   -0.46625  -0.46358  -0.46068  -0.45979  -0.45597
 Alpha  occ. eigenvalues --   -0.45493  -0.45398  -0.45156  -0.45005  -0.44852
 Alpha  occ. eigenvalues --   -0.44804  -0.44651  -0.44555  -0.44411  -0.44210
 Alpha  occ. eigenvalues --   -0.44149  -0.43715  -0.43641  -0.43267  -0.42765
 Alpha  occ. eigenvalues --   -0.42707  -0.42678  -0.42308  -0.42257  -0.42031
 Alpha  occ. eigenvalues --   -0.41900  -0.41654  -0.41479  -0.41375  -0.41245
 Alpha  occ. eigenvalues --   -0.40919  -0.40708  -0.40228  -0.40156  -0.40100
 Alpha  occ. eigenvalues --   -0.39855  -0.39783  -0.39609  -0.38959  -0.38934
 Alpha  occ. eigenvalues --   -0.38541  -0.38457  -0.38106  -0.37821  -0.37444
 Alpha  occ. eigenvalues --   -0.37273  -0.36653  -0.36586  -0.36406  -0.36189
 Alpha  occ. eigenvalues --   -0.36008  -0.35574  -0.35303  -0.35007  -0.34805
 Alpha  occ. eigenvalues --   -0.34165  -0.33194  -0.33145  -0.32416  -0.32164
 Alpha  occ. eigenvalues --   -0.31163  -0.30256  -0.29736  -0.29681  -0.24548
 Alpha  occ. eigenvalues --   -0.21659
 Alpha virt. eigenvalues --   -0.08992  -0.02768  -0.00302   0.01793   0.01928
 Alpha virt. eigenvalues --    0.03555   0.04644   0.05463   0.05855   0.06438
 Alpha virt. eigenvalues --    0.07540   0.08375   0.08575   0.09073   0.09120

 Mulliken charges:
               1
     1  Mg   0.823944
     2  C    0.067940
     3  C   -0.109958
     4  C   -0.068926
     5  C   -0.049591
     6  N   -0.272257
     7  C   -0.074057
     8  C   -0.010144
     9  C   -0.107019
    10  C    0.089279
    11  C    0.040937
    12  C    0.099580
    13  C    0.014673
    14  C    0.166644
    15  O   -0.270773
    16  O   -0.348943
    17  N   -0.406866
    18  C    0.177652
    19  C   -0.136503
    20  C   -0.037436
    21  C    0.143955
    22  C    0.108626
    23  C    0.003374
    24  O   -0.191684
    25  C    0.053248
    26  N   -0.294434
    27  C    0.076904
    28  C   -0.045760
    29  C   -0.044151
    30  C    0.020383
    31  C    0.057980
    32  C    0.033157
    33  C    0.005231
    34  N   -0.361976
    35  C    0.057124
    36  C   -0.187359
    37  C    0.102063
    38  C    0.084262
    39  C    0.116782
    40  C   -0.040871
    41  O   -0.169151
    42  C   -0.008594
    43  C    0.189369
    44  O   -0.205994
    45  O   -0.353954
    46  C    0.172707
    47  C    0.324570
    48  C   -0.140826
    49  C   -0.154952
    50  C    0.054625
    51  C    0.067541
    52  C   -0.021762
    53  C    0.074445
    54  C   -0.104120
    55  C    0.055464
    56  C    0.061495
    57  C   -0.001315
    58  C    0.073981
    59  C   -0.136996
    60  C    0.024463
    61  C    0.085168
    62  C    0.003271
    63  C    0.027946
    64  C   -0.117564
    65  C    0.056464
    66  C    0.049077
    67  H   -0.027824
    68  H   -0.040114
    69  H   -0.020631
    70  H    0.021880
    71  H    0.015470
    72  H    0.031820
    73  H    0.004741
    74  H    0.019914
    75  H    0.013341
    76  H    0.032430
    77  H    0.066635
    78  H    0.039924
    79  H    0.028326
    80  H    0.017551
    81  H    0.041573
    82  H    0.028588
    83  H    0.059163
    84  H    0.048469
    85  H    0.015832
    86  H    0.023315
    87  H    0.017246
    88  H    0.014566
    89  H    0.007157
    90  H    0.017427
    91  H    0.001597
    92  H    0.019386
    93  H    0.008473
    94  H    0.030147
    95  H    0.042853
    96  H    0.008894
    97  H    0.030111
    98  H    0.041829
    99  H    0.015261
   100  H    0.059706
   101  H    0.041343
   102  H    0.027906
   103  H    0.039837
   104  H   -0.011967
   105  H    0.047020
   106  H    0.030448
   107  H    0.017610
   108  H    0.012843
   109  H    0.003583
   110  H   -0.018320
   111  H   -0.003395
   112  H   -0.024180
   113  H   -0.002271
   114  H   -0.011677
   115  H    0.015449
   116  H   -0.008167
   117  H    0.004520
   118  H   -0.010133
   119  H   -0.005421
   120  H   -0.004075
   121  H   -0.002962
   122  H   -0.007695
   123  H   -0.010466
   124  H   -0.001319
   125  H   -0.002827
   126  H   -0.002138
   127  H    0.011915
   128  H   -0.006118
   129  H   -0.006603
   130  H   -0.011588
   131  H   -0.020014
   132  H   -0.005320
   133  H   -0.011657
   134  H   -0.005249
   135  H   -0.003391
   136  H    0.010649
   137  H    0.004252
   138  H    0.000376
   139  H   -0.000524
   140  H    0.004281
 Sum of Mulliken charges =  -0.00000

 Dipole moment (field-independent basis, Debye):
    X=             -0.8064    Y=              7.4284    Z=             -0.4807  Tot=              7.4875
 Quadrupole moment (field-independent basis, Debye-Ang):
   XX=           -393.4383   YY=           -445.4627   ZZ=           -393.1175
   XY=            -54.4398   XZ=            -18.4380   YZ=            -20.2027

 Normal termination of Gaussian 16 at Wed May  4 21:14:23 2022.
