 Gaussian 16, Revision A.03,
 Gaussian 16:  ES64L-G16RevA.03 25-Dec-2016

 ---------------------------------
 #p PBE1PBE/Def2SVP td=(nstates=5)
 ---------------------------------

 ----------------------------------------------------
 step_451_chromophore_2 TDDFT with PBE1PBE functional
 ----------------------------------------------------
 Symbolic Z-matrix:
 Charge =  0 Multiplicity = 1

                         Standard orientation:
 ---------------------------------------------------------------------
 Center     Atomic      Atomic             Coordinates (Angstroms)
 Number     Number       Type             X           Y           Z
 ---------------------------------------------------------------------
      1         12           0       -4.675552    1.386498    0.402419
      2          6           0       -4.480081   -2.053442   -0.057459
      3          6           0       -2.518632    1.038636    2.944680
      4          6           0       -4.110265    4.656968    0.122913
      5          6           0       -7.220939    1.468382   -1.934646
      6          7           0       -3.411646   -0.297374    1.159422
      7          6           0       -3.494987   -1.620177    0.814709
      8          6           0       -2.546695   -2.577264    1.586622
      9          6           0       -2.327466   -1.577951    2.814621
     10          6           0       -2.900356   -0.193832    2.401743
     11          6           0       -2.865735   -2.122442    4.238129
     12          6           0       -1.254984   -3.172715    0.799909
     13          6           0       -1.100447   -4.705067    1.202579
     14          6           0        0.363097   -5.288439    1.147527
     15          8           0        0.833713   -6.133715    1.949092
     16          8           0        1.160691   -4.725341    0.187440
     17          7           0       -3.433219    2.659611    1.360814
     18          6           0       -2.637901    2.335165    2.409389
     19          6           0       -1.881647    3.509806    2.872596
     20          6           0       -2.207837    4.608468    2.081295
     21          6           0       -3.273531    4.037050    1.114506
     22          6           0       -0.880453    3.405843    3.992191
     23          6           0       -1.699943    6.043162    2.165551
     24          8           0       -0.863486    6.373277    3.000991
     25          6           0       -2.265098    7.006094    1.278756
     26          7           0       -5.459704    2.837258   -0.953058
     27          6           0       -5.119123    4.139481   -0.720269
     28          6           0       -6.029819    5.072904   -1.588596
     29          6           0       -7.001653    4.016781   -2.349617
     30          6           0       -6.586189    2.713540   -1.714711
     31          6           0       -6.993199    5.982144   -0.876373
     32          6           0       -6.844074    3.916994   -3.918922
     33          6           0       -8.138512    3.598706   -4.660669
     34          7           0       -5.739661    0.028802   -0.743326
     35          6           0       -6.816532    0.130289   -1.623593
     36          6           0       -7.382813   -1.165737   -1.856433
     37          6           0       -6.415492   -2.051591   -1.388411
     38          6           0       -5.483476   -1.311259   -0.693158
     39          6           0       -8.716439   -1.450863   -2.593223
     40          6           0       -6.077811   -3.399394   -1.295789
     41          8           0       -6.611003   -4.445380   -1.652730
     42          6           0       -4.750958   -3.454572   -0.490053
     43          6           0       -4.989538   -4.480506    0.568319
     44          8           0       -4.701211   -5.668057    0.434129
     45          8           0       -5.547128   -3.879965    1.689061
     46          6           0       -5.709158   -4.722621    2.873699
     47          6           0        2.586049   -5.175343    0.035310
     48          6           0        3.302495   -4.015554   -0.645523
     49          6           0        3.507242   -3.838807   -1.975999
     50          6           0        2.642953   -4.631196   -2.978188
     51          6           0        4.191976   -2.549345   -2.517846
     52          6           0        5.668816   -2.398605   -2.357402
     53          6           0        6.149787   -0.974538   -2.281347
     54          6           0        6.165632   -0.491682   -0.838189
     55          6           0        5.484463    0.826591   -0.552645
     56          6           0        7.597873   -0.493219   -0.301722
     57          6           0        8.641439    0.570885   -0.847351
     58          6           0        9.236807    1.407931    0.333289
     59          6           0       10.553420    0.761177    0.818441
     60          6           0       10.461797    0.601206    2.380243
     61          6           0       11.813497    1.576419    0.507093
     62          6           0       12.673205    1.194538   -0.712455
     63          6           0       14.203616    0.992010   -0.445005
     64          6           0       15.173629    1.990202   -1.158583
     65          6           0       15.962794    1.206842   -2.175311
     66          6           0       16.003638    2.675930   -0.122951
     67          1           0       -1.984976    0.946139    3.892406
     68          1           0       -3.985905    5.734066   -0.004075
     69          1           0       -7.902998    1.406211   -2.784836
     70          1           0       -3.071669   -3.405190    2.062932
     71          1           0       -1.318043   -1.299415    3.117256
     72          1           0       -3.120672   -3.181137    4.172815
     73          1           0       -3.772051   -1.561324    4.463941
     74          1           0       -2.307026   -1.816883    5.122785
     75          1           0       -0.405530   -2.656486    1.246310
     76          1           0       -1.268625   -2.971457   -0.272174
     77          1           0       -1.663984   -5.275760    0.465015
     78          1           0       -1.412152   -4.837248    2.237860
     79          1           0        0.022203    2.848716    3.742616
     80          1           0       -1.267560    2.852370    4.847580
     81          1           0       -0.585617    4.413231    4.286862
     82          1           0       -1.717704    7.930164    1.465741
     83          1           0       -3.305952    7.277482    1.458944
     84          1           0       -2.092128    6.545076    0.306212
     85          1           0       -5.503177    5.662952   -2.339649
     86          1           0       -8.041655    4.141773   -2.048757
     87          1           0       -7.127712    5.820927    0.192936
     88          1           0       -8.005320    5.936252   -1.278805
     89          1           0       -6.683358    7.017273   -1.021851
     90          1           0       -6.116465    3.146174   -4.174782
     91          1           0       -6.389801    4.823433   -4.318634
     92          1           0       -8.353318    4.467273   -5.283057
     93          1           0       -9.005790    3.528784   -4.003883
     94          1           0       -8.084571    2.627781   -5.153294
     95          1           0       -8.638749   -1.549843   -3.675859
     96          1           0       -9.439243   -0.680959   -2.323906
     97          1           0       -9.118871   -2.349401   -2.125429
     98          1           0       -3.990210   -3.824557   -1.177985
     99          1           0       -5.142837   -4.319808    3.713805
    100          1           0       -5.420942   -5.771215    2.806383
    101          1           0       -6.762344   -4.554792    3.100883
    102          1           0        2.621715   -6.016979   -0.656535
    103          1           0        3.012093   -5.335135    1.025507
    104          1           0        3.807778   -3.261558   -0.042627
    105          1           0        1.657924   -4.956027   -2.642349
    106          1           0        3.328578   -5.471196   -3.092672
    107          1           0        2.601308   -4.003846   -3.867828
    108          1           0        3.787511   -1.729004   -1.924483
    109          1           0        4.075396   -2.337226   -3.580666
    110          1           0        6.093019   -2.883925   -3.236501
    111          1           0        6.094210   -2.931994   -1.506412
    112          1           0        5.450384   -0.364770   -2.853298
    113          1           0        7.089951   -1.079476   -2.821344
    114          1           0        5.559860   -1.213351   -0.289671
    115          1           0        5.222829    0.984961    0.493307
    116          1           0        4.555034    0.807990   -1.121796
    117          1           0        6.051842    1.632165   -1.019462
    118          1           0        8.039580   -1.469474   -0.501346
    119          1           0        7.458299   -0.358195    0.769946
    120          1           0        8.309613    1.240512   -1.640883
    121          1           0        9.449978    0.051859   -1.362739
    122          1           0        8.520532    1.392175    1.153715
    123          1           0        9.311835    2.471590    0.109970
    124          1           0       10.644600   -0.283181    0.519168
    125          1           0        9.522970    0.967228    2.795224
    126          1           0       11.204234    1.230943    2.871032
    127          1           0       10.608311   -0.432296    2.698313
    128          1           0       12.512867    1.523585    1.341189
    129          1           0       11.496058    2.606399    0.344876
    130          1           0       12.567727    1.845779   -1.579454
    131          1           0       12.238965    0.281059   -1.118305
    132          1           0       14.417144   -0.038660   -0.726400
    133          1           0       14.279728    1.082150    0.638506
    134          1           0       14.667724    2.847981   -1.602610
    135          1           0       16.637069    0.505352   -1.682230
    136          1           0       16.579363    1.757442   -2.884769
    137          1           0       15.255291    0.529836   -2.654298
    138          1           0       16.813552    2.001303    0.153187
    139          1           0       15.410528    2.851578    0.775172
    140          1           0       16.298317    3.673281   -0.446619
 ---------------------------------------------------------------------

 SCF Done:  E(RPBE1PBE) =  -3005.31661970     A.U. after   16 cycles

 Excitation energies and oscillator strengths:

 Excited State   1:      Singlet-A      1.8510 eV  669.81 nm  f=0.3318  <S**2>=0.000
     245 -> 248       -0.17634
     246 -> 247        0.68949
     246 <- 247       -0.10111
 This state for optimization and/or second-order correction.
 Total Energy, E(TD-HF/TD-DFT) =  -3005.24859577
 Copying the excited state density for this state as the 1-particle RhoCI density.

 Excited State   2:      Singlet-A      2.1967 eV  564.41 nm  f=0.0817  <S**2>=0.000
     245 -> 247        0.64469
     246 -> 248        0.27177

 Excited State   3:      Singlet-A      2.8630 eV  433.05 nm  f=0.0003  <S**2>=0.000
     243 -> 247        0.67051
     243 -> 249       -0.15112
     243 -> 250        0.10217

 Excited State   4:      Singlet-A      3.0597 eV  405.22 nm  f=0.0292  <S**2>=0.000
     242 -> 247        0.61559
     246 -> 248        0.30508

 Excited State   5:      Singlet-A      3.2117 eV  386.04 nm  f=0.3180  <S**2>=0.000
     239 -> 247        0.14545
     241 -> 247        0.12683
     242 -> 247       -0.28219
     245 -> 247       -0.22201
     246 -> 248        0.53463
     246 -> 249        0.14602

 The electronic state is 1-A.
 Alpha  occ. eigenvalues --  -46.92220 -19.26018 -19.25055 -19.19884 -19.19811
 Alpha  occ. eigenvalues --  -19.19026 -19.18469 -14.41813 -14.41755 -14.40545
 Alpha  occ. eigenvalues --  -14.38634 -10.36359 -10.36278 -10.32833 -10.31150
 Alpha  occ. eigenvalues --  -10.30452 -10.30037 -10.29837 -10.29337 -10.29058
 Alpha  occ. eigenvalues --  -10.28898 -10.28718 -10.28598 -10.27363 -10.27311
 Alpha  occ. eigenvalues --  -10.26989 -10.26963 -10.26580 -10.26373 -10.26022
 Alpha  occ. eigenvalues --  -10.26021 -10.25957 -10.25907 -10.25890 -10.25754
 Alpha  occ. eigenvalues --  -10.25436 -10.25212 -10.24974 -10.24842 -10.24570
 Alpha  occ. eigenvalues --  -10.24541 -10.24532 -10.23842 -10.23829 -10.23687
 Alpha  occ. eigenvalues --  -10.23537 -10.23463 -10.23293 -10.23162 -10.23115
 Alpha  occ. eigenvalues --  -10.23037 -10.23018 -10.22696 -10.22665 -10.22483
 Alpha  occ. eigenvalues --  -10.22327 -10.22176 -10.22106 -10.22096 -10.22045
 Alpha  occ. eigenvalues --  -10.21992 -10.21825 -10.21780 -10.21554 -10.21312
 Alpha  occ. eigenvalues --  -10.21078  -3.14435  -1.87260  -1.86814  -1.86671
 Alpha  occ. eigenvalues --   -1.10290  -1.09274  -1.05553  -1.03960  -1.02192
 Alpha  occ. eigenvalues --   -0.99950  -0.99265  -0.98374  -0.98078  -0.97296
 Alpha  occ. eigenvalues --   -0.87952  -0.85452  -0.83750  -0.83526  -0.83200
 Alpha  occ. eigenvalues --   -0.83005  -0.82646  -0.82132  -0.81985  -0.81834
 Alpha  occ. eigenvalues --   -0.80637  -0.79638  -0.79299  -0.78442  -0.78369
 Alpha  occ. eigenvalues --   -0.77542  -0.76870  -0.75996  -0.75051  -0.74747
 Alpha  occ. eigenvalues --   -0.73997  -0.72445  -0.72117  -0.71862  -0.70638
 Alpha  occ. eigenvalues --   -0.70314  -0.70078  -0.69755  -0.68639  -0.68048
 Alpha  occ. eigenvalues --   -0.67760  -0.67092  -0.66536  -0.65187  -0.63738
 Alpha  occ. eigenvalues --   -0.63392  -0.62686  -0.62387  -0.60920  -0.60555
 Alpha  occ. eigenvalues --   -0.60510  -0.60232  -0.59700  -0.59247  -0.57725
 Alpha  occ. eigenvalues --   -0.57669  -0.57348  -0.57268  -0.56116  -0.54717
 Alpha  occ. eigenvalues --   -0.54536  -0.54215  -0.53496  -0.53169  -0.52497
 Alpha  occ. eigenvalues --   -0.51769  -0.51496  -0.51193  -0.50610  -0.50301
 Alpha  occ. eigenvalues --   -0.49947  -0.49374  -0.49201  -0.48703  -0.48640
 Alpha  occ. eigenvalues --   -0.48444  -0.48343  -0.48040  -0.47798  -0.47409
 Alpha  occ. eigenvalues --   -0.47279  -0.46947  -0.46900  -0.46710  -0.46483
 Alpha  occ. eigenvalues --   -0.46294  -0.45897  -0.45823  -0.45614  -0.45478
 Alpha  occ. eigenvalues --   -0.45407  -0.45056  -0.44817  -0.44705  -0.44422
 Alpha  occ. eigenvalues --   -0.43968  -0.43892  -0.43772  -0.43612  -0.43348
 Alpha  occ. eigenvalues --   -0.43245  -0.43184  -0.42961  -0.42482  -0.42369
 Alpha  occ. eigenvalues --   -0.42096  -0.41849  -0.41732  -0.41572  -0.41517
 Alpha  occ. eigenvalues --   -0.41292  -0.40974  -0.40758  -0.40610  -0.40330
 Alpha  occ. eigenvalues --   -0.40163  -0.40010  -0.39996  -0.39774  -0.39595
 Alpha  occ. eigenvalues --   -0.39424  -0.39402  -0.39309  -0.39205  -0.38990
 Alpha  occ. eigenvalues --   -0.38894  -0.38490  -0.38416  -0.38110  -0.37651
 Alpha  occ. eigenvalues --   -0.37397  -0.37360  -0.37220  -0.37131  -0.36929
 Alpha  occ. eigenvalues --   -0.36796  -0.36493  -0.36353  -0.36272  -0.36004
 Alpha  occ. eigenvalues --   -0.35767  -0.35437  -0.35120  -0.34975  -0.34884
 Alpha  occ. eigenvalues --   -0.34681  -0.34597  -0.34504  -0.33915  -0.33707
 Alpha  occ. eigenvalues --   -0.33306  -0.33267  -0.33106  -0.32629  -0.32334
 Alpha  occ. eigenvalues --   -0.32230  -0.31726  -0.31415  -0.31280  -0.31191
 Alpha  occ. eigenvalues --   -0.30822  -0.30582  -0.30204  -0.30196  -0.29721
 Alpha  occ. eigenvalues --   -0.29333  -0.28627  -0.28027  -0.27537  -0.26910
 Alpha  occ. eigenvalues --   -0.26714  -0.25668  -0.25247  -0.24988  -0.21389
 Alpha  occ. eigenvalues --   -0.19241
 Alpha virt. eigenvalues --   -0.11545  -0.06260  -0.04451  -0.02583  -0.00879
 Alpha virt. eigenvalues --   -0.00802   0.00286   0.00847   0.01182   0.02783
 Alpha virt. eigenvalues --    0.03774   0.04347   0.04938   0.05700   0.05748

 Mulliken charges:
               1
     1  Mg   0.977910
     2  C    0.052819
     3  C   -0.102173
     4  C   -0.071575
     5  C   -0.050564
     6  N   -0.371241
     7  C    0.008634
     8  C   -0.076890
     9  C   -0.180985
    10  C    0.125785
    11  C   -0.016860
    12  C    0.050439
    13  C   -0.067243
    14  C    0.234865
    15  O   -0.302646
    16  O   -0.376830
    17  N   -0.520200
    18  C    0.193776
    19  C   -0.163594
    20  C   -0.080535
    21  C    0.170120
    22  C    0.052649
    23  C    0.055378
    24  O   -0.231862
    25  C   -0.022389
    26  N   -0.394870
    27  C    0.108387
    28  C   -0.122343
    29  C   -0.125397
    30  C    0.060856
    31  C    0.004114
    32  C   -0.024230
    33  C   -0.066610
    34  N   -0.479661
    35  C    0.079380
    36  C   -0.187688
    37  C    0.044906
    38  C    0.128641
    39  C    0.064231
    40  C    0.052071
    41  O   -0.213465
    42  C   -0.118079
    43  C    0.275042
    44  O   -0.242494
    45  O   -0.382273
    46  C    0.115375
    47  C    0.275548
    48  C   -0.151029
    49  C   -0.189574
    50  C   -0.013311
    51  C    0.000204
    52  C   -0.084415
    53  C    0.020840
    54  C   -0.202482
    55  C   -0.002452
    56  C    0.009770
    57  C   -0.064550
    58  C    0.023309
    59  C   -0.227007
    60  C   -0.031157
    61  C    0.030451
    62  C   -0.052142
    63  C   -0.031175
    64  C   -0.210592
    65  C   -0.006650
    66  C   -0.010982
    67  H    0.003534
    68  H   -0.007081
    69  H    0.014020
    70  H    0.066475
    71  H    0.052947
    72  H    0.057444
    73  H    0.032936
    74  H    0.046339
    75  H    0.048270
    76  H    0.062137
    77  H    0.098908
    78  H    0.071434
    79  H    0.054925
    80  H    0.043378
    81  H    0.068684
    82  H    0.055934
    83  H    0.084296
    84  H    0.074588
    85  H    0.050676
    86  H    0.059825
    87  H    0.044860
    88  H    0.040886
    89  H    0.034733
    90  H    0.050210
    91  H    0.034865
    92  H    0.047886
    93  H    0.035141
    94  H    0.056193
    95  H    0.070545
    96  H    0.037289
    97  H    0.059045
    98  H    0.079685
    99  H    0.039862
   100  H    0.079717
   101  H    0.063826
   102  H    0.054540
   103  H    0.065858
   104  H    0.020692
   105  H    0.073338
   106  H    0.059597
   107  H    0.045568
   108  H    0.048535
   109  H    0.034568
   110  H    0.016211
   111  H    0.029809
   112  H    0.009353
   113  H    0.030215
   114  H    0.030574
   115  H    0.042544
   116  H    0.020505
   117  H    0.032947
   118  H    0.022834
   119  H    0.027068
   120  H    0.026596
   121  H    0.030727
   122  H    0.024189
   123  H    0.020589
   124  H    0.035658
   125  H    0.024171
   126  H    0.024847
   127  H    0.039010
   128  H    0.025444
   129  H    0.026389
   130  H    0.020495
   131  H    0.013360
   132  H    0.026940
   133  H    0.020534
   134  H    0.031595
   135  H    0.024559
   136  H    0.038413
   137  H    0.033716
   138  H    0.027903
   139  H    0.028079
   140  H    0.032336
 Sum of Mulliken charges =  -0.00000

 Dipole moment (field-independent basis, Debye):
    X=             -1.2136    Y=              7.0313    Z=             -0.8764  Tot=              7.1889
 Quadrupole moment (field-independent basis, Debye-Ang):
   XX=           -385.8924   YY=           -443.4907   ZZ=           -389.7437
   XY=            -53.7353   XZ=            -15.9937   YZ=            -21.4858

 Normal termination of Gaussian 16 at Wed May  4 21:43:12 2022.
