 Gaussian 16, Revision A.03,
 Gaussian 16:  ES64L-G16RevA.03 25-Dec-2016

 --------------------------------
 #p wB97XD/Def2SVP td=(nstates=5)
 --------------------------------

 ---------------------------------------------------
 step_451_chromophore_2 TDDFT with wB97XD functional
 ---------------------------------------------------
 Symbolic Z-matrix:
 Charge =  0 Multiplicity = 1

                         Standard orientation:
 ---------------------------------------------------------------------
 Center     Atomic      Atomic             Coordinates (Angstroms)
 Number     Number       Type             X           Y           Z
 ---------------------------------------------------------------------
      1         12           0       -4.675552    1.386498    0.402419
      2          6           0       -4.480081   -2.053442   -0.057459
      3          6           0       -2.518632    1.038636    2.944680
      4          6           0       -4.110265    4.656968    0.122913
      5          6           0       -7.220939    1.468382   -1.934646
      6          7           0       -3.411646   -0.297374    1.159422
      7          6           0       -3.494987   -1.620177    0.814709
      8          6           0       -2.546695   -2.577264    1.586622
      9          6           0       -2.327466   -1.577951    2.814621
     10          6           0       -2.900356   -0.193832    2.401743
     11          6           0       -2.865735   -2.122442    4.238129
     12          6           0       -1.254984   -3.172715    0.799909
     13          6           0       -1.100447   -4.705067    1.202579
     14          6           0        0.363097   -5.288439    1.147527
     15          8           0        0.833713   -6.133715    1.949092
     16          8           0        1.160691   -4.725341    0.187440
     17          7           0       -3.433219    2.659611    1.360814
     18          6           0       -2.637901    2.335165    2.409389
     19          6           0       -1.881647    3.509806    2.872596
     20          6           0       -2.207837    4.608468    2.081295
     21          6           0       -3.273531    4.037050    1.114506
     22          6           0       -0.880453    3.405843    3.992191
     23          6           0       -1.699943    6.043162    2.165551
     24          8           0       -0.863486    6.373277    3.000991
     25          6           0       -2.265098    7.006094    1.278756
     26          7           0       -5.459704    2.837258   -0.953058
     27          6           0       -5.119123    4.139481   -0.720269
     28          6           0       -6.029819    5.072904   -1.588596
     29          6           0       -7.001653    4.016781   -2.349617
     30          6           0       -6.586189    2.713540   -1.714711
     31          6           0       -6.993199    5.982144   -0.876373
     32          6           0       -6.844074    3.916994   -3.918922
     33          6           0       -8.138512    3.598706   -4.660669
     34          7           0       -5.739661    0.028802   -0.743326
     35          6           0       -6.816532    0.130289   -1.623593
     36          6           0       -7.382813   -1.165737   -1.856433
     37          6           0       -6.415492   -2.051591   -1.388411
     38          6           0       -5.483476   -1.311259   -0.693158
     39          6           0       -8.716439   -1.450863   -2.593223
     40          6           0       -6.077811   -3.399394   -1.295789
     41          8           0       -6.611003   -4.445380   -1.652730
     42          6           0       -4.750958   -3.454572   -0.490053
     43          6           0       -4.989538   -4.480506    0.568319
     44          8           0       -4.701211   -5.668057    0.434129
     45          8           0       -5.547128   -3.879965    1.689061
     46          6           0       -5.709158   -4.722621    2.873699
     47          6           0        2.586049   -5.175343    0.035310
     48          6           0        3.302495   -4.015554   -0.645523
     49          6           0        3.507242   -3.838807   -1.975999
     50          6           0        2.642953   -4.631196   -2.978188
     51          6           0        4.191976   -2.549345   -2.517846
     52          6           0        5.668816   -2.398605   -2.357402
     53          6           0        6.149787   -0.974538   -2.281347
     54          6           0        6.165632   -0.491682   -0.838189
     55          6           0        5.484463    0.826591   -0.552645
     56          6           0        7.597873   -0.493219   -0.301722
     57          6           0        8.641439    0.570885   -0.847351
     58          6           0        9.236807    1.407931    0.333289
     59          6           0       10.553420    0.761177    0.818441
     60          6           0       10.461797    0.601206    2.380243
     61          6           0       11.813497    1.576419    0.507093
     62          6           0       12.673205    1.194538   -0.712455
     63          6           0       14.203616    0.992010   -0.445005
     64          6           0       15.173629    1.990202   -1.158583
     65          6           0       15.962794    1.206842   -2.175311
     66          6           0       16.003638    2.675930   -0.122951
     67          1           0       -1.984976    0.946139    3.892406
     68          1           0       -3.985905    5.734066   -0.004075
     69          1           0       -7.902998    1.406211   -2.784836
     70          1           0       -3.071669   -3.405190    2.062932
     71          1           0       -1.318043   -1.299415    3.117256
     72          1           0       -3.120672   -3.181137    4.172815
     73          1           0       -3.772051   -1.561324    4.463941
     74          1           0       -2.307026   -1.816883    5.122785
     75          1           0       -0.405530   -2.656486    1.246310
     76          1           0       -1.268625   -2.971457   -0.272174
     77          1           0       -1.663984   -5.275760    0.465015
     78          1           0       -1.412152   -4.837248    2.237860
     79          1           0        0.022203    2.848716    3.742616
     80          1           0       -1.267560    2.852370    4.847580
     81          1           0       -0.585617    4.413231    4.286862
     82          1           0       -1.717704    7.930164    1.465741
     83          1           0       -3.305952    7.277482    1.458944
     84          1           0       -2.092128    6.545076    0.306212
     85          1           0       -5.503177    5.662952   -2.339649
     86          1           0       -8.041655    4.141773   -2.048757
     87          1           0       -7.127712    5.820927    0.192936
     88          1           0       -8.005320    5.936252   -1.278805
     89          1           0       -6.683358    7.017273   -1.021851
     90          1           0       -6.116465    3.146174   -4.174782
     91          1           0       -6.389801    4.823433   -4.318634
     92          1           0       -8.353318    4.467273   -5.283057
     93          1           0       -9.005790    3.528784   -4.003883
     94          1           0       -8.084571    2.627781   -5.153294
     95          1           0       -8.638749   -1.549843   -3.675859
     96          1           0       -9.439243   -0.680959   -2.323906
     97          1           0       -9.118871   -2.349401   -2.125429
     98          1           0       -3.990210   -3.824557   -1.177985
     99          1           0       -5.142837   -4.319808    3.713805
    100          1           0       -5.420942   -5.771215    2.806383
    101          1           0       -6.762344   -4.554792    3.100883
    102          1           0        2.621715   -6.016979   -0.656535
    103          1           0        3.012093   -5.335135    1.025507
    104          1           0        3.807778   -3.261558   -0.042627
    105          1           0        1.657924   -4.956027   -2.642349
    106          1           0        3.328578   -5.471196   -3.092672
    107          1           0        2.601308   -4.003846   -3.867828
    108          1           0        3.787511   -1.729004   -1.924483
    109          1           0        4.075396   -2.337226   -3.580666
    110          1           0        6.093019   -2.883925   -3.236501
    111          1           0        6.094210   -2.931994   -1.506412
    112          1           0        5.450384   -0.364770   -2.853298
    113          1           0        7.089951   -1.079476   -2.821344
    114          1           0        5.559860   -1.213351   -0.289671
    115          1           0        5.222829    0.984961    0.493307
    116          1           0        4.555034    0.807990   -1.121796
    117          1           0        6.051842    1.632165   -1.019462
    118          1           0        8.039580   -1.469474   -0.501346
    119          1           0        7.458299   -0.358195    0.769946
    120          1           0        8.309613    1.240512   -1.640883
    121          1           0        9.449978    0.051859   -1.362739
    122          1           0        8.520532    1.392175    1.153715
    123          1           0        9.311835    2.471590    0.109970
    124          1           0       10.644600   -0.283181    0.519168
    125          1           0        9.522970    0.967228    2.795224
    126          1           0       11.204234    1.230943    2.871032
    127          1           0       10.608311   -0.432296    2.698313
    128          1           0       12.512867    1.523585    1.341189
    129          1           0       11.496058    2.606399    0.344876
    130          1           0       12.567727    1.845779   -1.579454
    131          1           0       12.238965    0.281059   -1.118305
    132          1           0       14.417144   -0.038660   -0.726400
    133          1           0       14.279728    1.082150    0.638506
    134          1           0       14.667724    2.847981   -1.602610
    135          1           0       16.637069    0.505352   -1.682230
    136          1           0       16.579363    1.757442   -2.884769
    137          1           0       15.255291    0.529836   -2.654298
    138          1           0       16.813552    2.001303    0.153187
    139          1           0       15.410528    2.851578    0.775172
    140          1           0       16.298317    3.673281   -0.446619
 ---------------------------------------------------------------------

 SCF Done:  E(RwB97XD) =  -3007.82576017     A.U. after   17 cycles

 Excitation energies and oscillator strengths:

 Excited State   1:      Singlet-A      1.7067 eV  726.45 nm  f=0.3442  <S**2>=0.000
     245 -> 248       -0.17959
     246 -> 247        0.68209
     245 <- 248       -0.10865
 This state for optimization and/or second-order correction.
 Total Energy, E(TD-HF/TD-DFT) =  -3007.76303971
 Copying the excited state density for this state as the 1-particle RhoCI density.

 Excited State   2:      Singlet-A      2.1612 eV  573.70 nm  f=0.0780  <S**2>=0.000
     245 -> 247        0.62686
     246 -> 248        0.30526

 Excited State   3:      Singlet-A      3.4145 eV  363.11 nm  f=0.3784  <S**2>=0.000
     242 -> 247        0.11662
     243 -> 247        0.35440
     245 -> 247       -0.24226
     246 -> 248        0.53487

 Excited State   4:      Singlet-A      3.4902 eV  355.24 nm  f=0.1473  <S**2>=0.000
     241 -> 247        0.22736
     242 -> 247       -0.19792
     242 -> 249        0.16876
     242 -> 250       -0.16632
     243 -> 247        0.48136
     243 -> 249       -0.10332
     245 -> 247        0.12304
     246 -> 248       -0.23487

 Excited State   5:      Singlet-A      3.5404 eV  350.20 nm  f=0.0970  <S**2>=0.000
     241 -> 247        0.18306
     242 -> 247        0.50428
     242 -> 249       -0.23453
     242 -> 250        0.19731
     243 -> 247        0.15683
     246 -> 248       -0.17534

 The electronic state is 1-A.
 Alpha  occ. eigenvalues --  -46.95199 -19.30476 -19.29577 -19.24984 -19.24403
 Alpha  occ. eigenvalues --  -19.23635 -19.22938 -14.46924 -14.46889 -14.45724
 Alpha  occ. eigenvalues --  -14.43374 -10.43084 -10.43003 -10.39962 -10.37733
 Alpha  occ. eigenvalues --  -10.37344 -10.36697 -10.36354 -10.35971 -10.35506
 Alpha  occ. eigenvalues --  -10.35465 -10.34899 -10.34740 -10.33983 -10.33541
 Alpha  occ. eigenvalues --  -10.33322 -10.33186 -10.33174 -10.32883 -10.32331
 Alpha  occ. eigenvalues --  -10.32275 -10.32192 -10.32136 -10.31979 -10.31828
 Alpha  occ. eigenvalues --  -10.31827 -10.31737 -10.31211 -10.31091 -10.31048
 Alpha  occ. eigenvalues --  -10.30750 -10.30737 -10.30616 -10.30279 -10.30146
 Alpha  occ. eigenvalues --  -10.29974 -10.29916 -10.29597 -10.29573 -10.29401
 Alpha  occ. eigenvalues --  -10.29389 -10.29321 -10.29046 -10.28992 -10.28866
 Alpha  occ. eigenvalues --  -10.28543 -10.28463 -10.28453 -10.28415 -10.28370
 Alpha  occ. eigenvalues --  -10.28257 -10.28244 -10.28196 -10.28003 -10.27729
 Alpha  occ. eigenvalues --  -10.27525  -3.21263  -1.94838  -1.94395  -1.94246
 Alpha  occ. eigenvalues --   -1.17597  -1.16626  -1.13326  -1.11149  -1.09454
 Alpha  occ. eigenvalues --   -1.07260  -1.06718  -1.05783  -1.05512  -1.04675
 Alpha  occ. eigenvalues --   -0.95349  -0.93114  -0.91420  -0.91211  -0.90858
 Alpha  occ. eigenvalues --   -0.90690  -0.90316  -0.89921  -0.89770  -0.89549
 Alpha  occ. eigenvalues --   -0.88134  -0.87315  -0.87039  -0.86199  -0.85888
 Alpha  occ. eigenvalues --   -0.85187  -0.84539  -0.83575  -0.82637  -0.82368
 Alpha  occ. eigenvalues --   -0.81671  -0.80220  -0.79684  -0.79518  -0.78194
 Alpha  occ. eigenvalues --   -0.77993  -0.77782  -0.77405  -0.76333  -0.75719
 Alpha  occ. eigenvalues --   -0.75218  -0.74686  -0.74115  -0.72840  -0.71187
 Alpha  occ. eigenvalues --   -0.71055  -0.70353  -0.70035  -0.68405  -0.68197
 Alpha  occ. eigenvalues --   -0.68051  -0.67898  -0.67202  -0.66637  -0.65408
 Alpha  occ. eigenvalues --   -0.65016  -0.64934  -0.64772  -0.63753  -0.62291
 Alpha  occ. eigenvalues --   -0.61922  -0.61745  -0.60937  -0.60692  -0.59779
 Alpha  occ. eigenvalues --   -0.59294  -0.58889  -0.58691  -0.58010  -0.57691
 Alpha  occ. eigenvalues --   -0.57345  -0.56786  -0.56644  -0.56368  -0.56150
 Alpha  occ. eigenvalues --   -0.55842  -0.55701  -0.55422  -0.55158  -0.54819
 Alpha  occ. eigenvalues --   -0.54634  -0.54292  -0.54232  -0.53977  -0.53809
 Alpha  occ. eigenvalues --   -0.53637  -0.53254  -0.53189  -0.52971  -0.52877
 Alpha  occ. eigenvalues --   -0.52703  -0.52435  -0.52231  -0.52025  -0.51909
 Alpha  occ. eigenvalues --   -0.51294  -0.51216  -0.51105  -0.50801  -0.50636
 Alpha  occ. eigenvalues --   -0.50488  -0.50415  -0.50141  -0.49778  -0.49708
 Alpha  occ. eigenvalues --   -0.49488  -0.49177  -0.49035  -0.48745  -0.48715
 Alpha  occ. eigenvalues --   -0.48543  -0.48344  -0.48009  -0.47854  -0.47502
 Alpha  occ. eigenvalues --   -0.47371  -0.47354  -0.47109  -0.46919  -0.46704
 Alpha  occ. eigenvalues --   -0.46678  -0.46530  -0.46429  -0.46311  -0.46139
 Alpha  occ. eigenvalues --   -0.46080  -0.45594  -0.45571  -0.45207  -0.44785
 Alpha  occ. eigenvalues --   -0.44643  -0.44545  -0.44220  -0.44167  -0.43971
 Alpha  occ. eigenvalues --   -0.43840  -0.43558  -0.43364  -0.43290  -0.43113
 Alpha  occ. eigenvalues --   -0.42849  -0.42559  -0.42121  -0.42032  -0.41962
 Alpha  occ. eigenvalues --   -0.41709  -0.41684  -0.41532  -0.40869  -0.40800
 Alpha  occ. eigenvalues --   -0.40395  -0.40310  -0.40032  -0.39660  -0.39349
 Alpha  occ. eigenvalues --   -0.39266  -0.38658  -0.38425  -0.38259  -0.38163
 Alpha  occ. eigenvalues --   -0.37853  -0.37593  -0.37135  -0.36997  -0.36636
 Alpha  occ. eigenvalues --   -0.36181  -0.35366  -0.35089  -0.34415  -0.34379
 Alpha  occ. eigenvalues --   -0.33384  -0.32179  -0.31829  -0.31715  -0.26507
 Alpha  occ. eigenvalues --   -0.23493
 Alpha virt. eigenvalues --   -0.07311  -0.00847   0.01745   0.03950   0.04986
 Alpha virt. eigenvalues --    0.05826   0.07006   0.07783   0.08101   0.09234
 Alpha virt. eigenvalues --    0.10190   0.11205   0.11530   0.12370   0.12480

 Mulliken charges:
               1
     1  Mg   0.966277
     2  C    0.058970
     3  C   -0.119931
     4  C   -0.086435
     5  C   -0.057314
     6  N   -0.338125
     7  C   -0.033707
     8  C   -0.036944
     9  C   -0.157959
    10  C    0.112748
    11  C   -0.002394
    12  C    0.057445
    13  C   -0.047384
    14  C    0.224540
    15  O   -0.301185
    16  O   -0.376493
    17  N   -0.492168
    18  C    0.192658
    19  C   -0.152767
    20  C   -0.078061
    21  C    0.170629
    22  C    0.063673
    23  C    0.054468
    24  O   -0.224699
    25  C   -0.011825
    26  N   -0.364041
    27  C    0.099846
    28  C   -0.099587
    29  C   -0.092106
    30  C    0.045752
    31  C    0.011860
    32  C   -0.010648
    33  C   -0.052986
    34  N   -0.447228
    35  C    0.067010
    36  C   -0.194380
    37  C    0.051423
    38  C    0.110923
    39  C    0.076257
    40  C    0.034508
    41  O   -0.206544
    42  C   -0.080509
    43  C    0.254162
    44  O   -0.236599
    45  O   -0.381629
    46  C    0.133343
    47  C    0.289683
    48  C   -0.158499
    49  C   -0.179140
    50  C    0.000963
    51  C    0.021331
    52  C   -0.064111
    53  C    0.030861
    54  C   -0.165286
    55  C    0.010102
    56  C    0.026058
    57  C   -0.049796
    58  C    0.040503
    59  C   -0.200508
    60  C   -0.017657
    61  C    0.050067
    62  C   -0.039545
    63  C   -0.011432
    64  C   -0.183832
    65  C    0.007462
    66  C    0.001818
    67  H   -0.002064
    68  H   -0.015897
    69  H    0.002937
    70  H    0.035034
    71  H    0.042131
    72  H    0.050009
    73  H    0.025959
    74  H    0.042214
    75  H    0.038956
    76  H    0.058041
    77  H    0.093282
    78  H    0.064966
    79  H    0.052548
    80  H    0.039419
    81  H    0.065895
    82  H    0.055800
    83  H    0.081183
    84  H    0.067708
    85  H    0.043228
    86  H    0.045477
    87  H    0.039424
    88  H    0.035660
    89  H    0.029552
    90  H    0.041835
    91  H    0.026077
    92  H    0.042658
    93  H    0.028276
    94  H    0.051824
    95  H    0.064852
    96  H    0.029976
    97  H    0.053266
    98  H    0.072913
    99  H    0.031877
   100  H    0.076731
   101  H    0.060327
   102  H    0.049987
   103  H    0.062991
   104  H    0.014635
   105  H    0.069390
   106  H    0.052263
   107  H    0.040255
   108  H    0.035369
   109  H    0.027729
   110  H    0.008954
   111  H    0.017359
   112  H   -0.000537
   113  H    0.023143
   114  H    0.013626
   115  H    0.038163
   116  H    0.012767
   117  H    0.024707
   118  H    0.014072
   119  H    0.015619
   120  H    0.019087
   121  H    0.020023
   122  H    0.010360
   123  H    0.014160
   124  H    0.023058
   125  H    0.017553
   126  H    0.018216
   127  H    0.034201
   128  H    0.012009
   129  H    0.017516
   130  H    0.012107
   131  H    0.003411
   132  H    0.019060
   133  H    0.008608
   134  H    0.021247
   135  H    0.016568
   136  H    0.034374
   137  H    0.025291
   138  H    0.020889
   139  H    0.020201
   140  H    0.027616
 Sum of Mulliken charges =  -0.00000

 Dipole moment (field-independent basis, Debye):
    X=             -0.7254    Y=              7.6840    Z=             -0.3621  Tot=              7.7267
 Quadrupole moment (field-independent basis, Debye-Ang):
   XX=           -390.0675   YY=           -441.6057   ZZ=           -389.0857
   XY=            -55.2252   XZ=            -18.4786   YZ=            -20.1956

 Normal termination of Gaussian 16 at Wed May  4 22:23:55 2022.
