 Gaussian 16, Revision A.03,
 Gaussian 16:  ES64L-G16RevA.03 25-Dec-2016

 --------------------
 #p ZINDO=(nstates=5)
 --------------------

 ----------------------------
 step_451_chromophore_2 ZINDO
 ----------------------------
 Symbolic Z-matrix:
 Charge =  0 Multiplicity = 1

                         Standard orientation:
 ---------------------------------------------------------------------
 Center     Atomic      Atomic             Coordinates (Angstroms)
 Number     Number       Type             X           Y           Z
 ---------------------------------------------------------------------
      1         12           0       -4.675552    1.386498    0.402419
      2          6           0       -4.480081   -2.053442   -0.057459
      3          6           0       -2.518632    1.038636    2.944680
      4          6           0       -4.110265    4.656968    0.122913
      5          6           0       -7.220939    1.468382   -1.934646
      6          7           0       -3.411646   -0.297374    1.159422
      7          6           0       -3.494987   -1.620177    0.814709
      8          6           0       -2.546695   -2.577264    1.586622
      9          6           0       -2.327466   -1.577951    2.814621
     10          6           0       -2.900356   -0.193832    2.401743
     11          6           0       -2.865735   -2.122442    4.238129
     12          6           0       -1.254984   -3.172715    0.799909
     13          6           0       -1.100447   -4.705067    1.202579
     14          6           0        0.363097   -5.288439    1.147527
     15          8           0        0.833713   -6.133715    1.949092
     16          8           0        1.160691   -4.725341    0.187440
     17          7           0       -3.433219    2.659611    1.360814
     18          6           0       -2.637901    2.335165    2.409389
     19          6           0       -1.881647    3.509806    2.872596
     20          6           0       -2.207837    4.608468    2.081295
     21          6           0       -3.273531    4.037050    1.114506
     22          6           0       -0.880453    3.405843    3.992191
     23          6           0       -1.699943    6.043162    2.165551
     24          8           0       -0.863486    6.373277    3.000991
     25          6           0       -2.265098    7.006094    1.278756
     26          7           0       -5.459704    2.837258   -0.953058
     27          6           0       -5.119123    4.139481   -0.720269
     28          6           0       -6.029819    5.072904   -1.588596
     29          6           0       -7.001653    4.016781   -2.349617
     30          6           0       -6.586189    2.713540   -1.714711
     31          6           0       -6.993199    5.982144   -0.876373
     32          6           0       -6.844074    3.916994   -3.918922
     33          6           0       -8.138512    3.598706   -4.660669
     34          7           0       -5.739661    0.028802   -0.743326
     35          6           0       -6.816532    0.130289   -1.623593
     36          6           0       -7.382813   -1.165737   -1.856433
     37          6           0       -6.415492   -2.051591   -1.388411
     38          6           0       -5.483476   -1.311259   -0.693158
     39          6           0       -8.716439   -1.450863   -2.593223
     40          6           0       -6.077811   -3.399394   -1.295789
     41          8           0       -6.611003   -4.445380   -1.652730
     42          6           0       -4.750958   -3.454572   -0.490053
     43          6           0       -4.989538   -4.480506    0.568319
     44          8           0       -4.701211   -5.668057    0.434129
     45          8           0       -5.547128   -3.879965    1.689061
     46          6           0       -5.709158   -4.722621    2.873699
     47          6           0        2.586049   -5.175343    0.035310
     48          6           0        3.302495   -4.015554   -0.645523
     49          6           0        3.507242   -3.838807   -1.975999
     50          6           0        2.642953   -4.631196   -2.978188
     51          6           0        4.191976   -2.549345   -2.517846
     52          6           0        5.668816   -2.398605   -2.357402
     53          6           0        6.149787   -0.974538   -2.281347
     54          6           0        6.165632   -0.491682   -0.838189
     55          6           0        5.484463    0.826591   -0.552645
     56          6           0        7.597873   -0.493219   -0.301722
     57          6           0        8.641439    0.570885   -0.847351
     58          6           0        9.236807    1.407931    0.333289
     59          6           0       10.553420    0.761177    0.818441
     60          6           0       10.461797    0.601206    2.380243
     61          6           0       11.813497    1.576419    0.507093
     62          6           0       12.673205    1.194538   -0.712455
     63          6           0       14.203616    0.992010   -0.445005
     64          6           0       15.173629    1.990202   -1.158583
     65          6           0       15.962794    1.206842   -2.175311
     66          6           0       16.003638    2.675930   -0.122951
     67          1           0       -1.984976    0.946139    3.892406
     68          1           0       -3.985905    5.734066   -0.004075
     69          1           0       -7.902998    1.406211   -2.784836
     70          1           0       -3.071669   -3.405190    2.062932
     71          1           0       -1.318043   -1.299415    3.117256
     72          1           0       -3.120672   -3.181137    4.172815
     73          1           0       -3.772051   -1.561324    4.463941
     74          1           0       -2.307026   -1.816883    5.122785
     75          1           0       -0.405530   -2.656486    1.246310
     76          1           0       -1.268625   -2.971457   -0.272174
     77          1           0       -1.663984   -5.275760    0.465015
     78          1           0       -1.412152   -4.837248    2.237860
     79          1           0        0.022203    2.848716    3.742616
     80          1           0       -1.267560    2.852370    4.847580
     81          1           0       -0.585617    4.413231    4.286862
     82          1           0       -1.717704    7.930164    1.465741
     83          1           0       -3.305952    7.277482    1.458944
     84          1           0       -2.092128    6.545076    0.306212
     85          1           0       -5.503177    5.662952   -2.339649
     86          1           0       -8.041655    4.141773   -2.048757
     87          1           0       -7.127712    5.820927    0.192936
     88          1           0       -8.005320    5.936252   -1.278805
     89          1           0       -6.683358    7.017273   -1.021851
     90          1           0       -6.116465    3.146174   -4.174782
     91          1           0       -6.389801    4.823433   -4.318634
     92          1           0       -8.353318    4.467273   -5.283057
     93          1           0       -9.005790    3.528784   -4.003883
     94          1           0       -8.084571    2.627781   -5.153294
     95          1           0       -8.638749   -1.549843   -3.675859
     96          1           0       -9.439243   -0.680959   -2.323906
     97          1           0       -9.118871   -2.349401   -2.125429
     98          1           0       -3.990210   -3.824557   -1.177985
     99          1           0       -5.142837   -4.319808    3.713805
    100          1           0       -5.420942   -5.771215    2.806383
    101          1           0       -6.762344   -4.554792    3.100883
    102          1           0        2.621715   -6.016979   -0.656535
    103          1           0        3.012093   -5.335135    1.025507
    104          1           0        3.807778   -3.261558   -0.042627
    105          1           0        1.657924   -4.956027   -2.642349
    106          1           0        3.328578   -5.471196   -3.092672
    107          1           0        2.601308   -4.003846   -3.867828
    108          1           0        3.787511   -1.729004   -1.924483
    109          1           0        4.075396   -2.337226   -3.580666
    110          1           0        6.093019   -2.883925   -3.236501
    111          1           0        6.094210   -2.931994   -1.506412
    112          1           0        5.450384   -0.364770   -2.853298
    113          1           0        7.089951   -1.079476   -2.821344
    114          1           0        5.559860   -1.213351   -0.289671
    115          1           0        5.222829    0.984961    0.493307
    116          1           0        4.555034    0.807990   -1.121796
    117          1           0        6.051842    1.632165   -1.019462
    118          1           0        8.039580   -1.469474   -0.501346
    119          1           0        7.458299   -0.358195    0.769946
    120          1           0        8.309613    1.240512   -1.640883
    121          1           0        9.449978    0.051859   -1.362739
    122          1           0        8.520532    1.392175    1.153715
    123          1           0        9.311835    2.471590    0.109970
    124          1           0       10.644600   -0.283181    0.519168
    125          1           0        9.522970    0.967228    2.795224
    126          1           0       11.204234    1.230943    2.871032
    127          1           0       10.608311   -0.432296    2.698313
    128          1           0       12.512867    1.523585    1.341189
    129          1           0       11.496058    2.606399    0.344876
    130          1           0       12.567727    1.845779   -1.579454
    131          1           0       12.238965    0.281059   -1.118305
    132          1           0       14.417144   -0.038660   -0.726400
    133          1           0       14.279728    1.082150    0.638506
    134          1           0       14.667724    2.847981   -1.602610
    135          1           0       16.637069    0.505352   -1.682230
    136          1           0       16.579363    1.757442   -2.884769
    137          1           0       15.255291    0.529836   -2.654298
    138          1           0       16.813552    2.001303    0.153187
    139          1           0       15.410528    2.851578    0.775172
    140          1           0       16.298317    3.673281   -0.446619
 ---------------------------------------------------------------------

 SCF Done:  E(RZINDO/S) =  -474.195398477     A.U. after   20 cycles

 Excitation energies and oscillator strengths:

 Excited State   1:      Singlet-A      1.3142 eV  943.41 nm  f=0.5176  <S**2>=0.000
     175 ->178         0.17096
     176 ->177         0.66817
 This state for optimization and/or second-order correction.
 Total Energy, E(CIS/TDA) =  -474.147102266
 Copying the excited state density for this state as the 1-particle RhoCI density.

 Excited State   2:      Singlet-A      1.8723 eV  662.20 nm  f=0.0111  <S**2>=0.000
     175 ->177         0.51097
     176 ->178        -0.45391

 Excited State   3:      Singlet-A      2.9092 eV  426.18 nm  f=0.7732  <S**2>=0.000
     171 ->177        -0.15226
     171 ->179        -0.16381
     171 ->180         0.19773
     175 ->177         0.37418
     176 ->178         0.43918

 Excited State   4:      Singlet-A      2.9194 eV  424.69 nm  f=0.2818  <S**2>=0.000
     171 ->177         0.24778
     171 ->179         0.27278
     171 ->180        -0.33330
     171 ->185        -0.14700
     171 ->188        -0.15044
     171 ->204         0.10151
     175 ->177         0.21163
     176 ->178         0.26931
     176 ->179        -0.11120

 Excited State   5:      Singlet-A      2.9897 eV  414.70 nm  f=0.0429  <S**2>=0.000
     168 ->177        -0.23772
     168 ->178        -0.18181
     168 ->179         0.35382
     168 ->180         0.23471
     168 ->184         0.11769
     168 ->185        -0.16450
     176 ->179        -0.31051
     176 ->180         0.12704

 The electronic state is 1-A.
 Alpha  occ. eigenvalues --   -1.85523  -1.80767  -1.79769  -1.71629  -1.70780
 Alpha  occ. eigenvalues --   -1.69430  -1.67246  -1.62733  -1.62060  -1.58771
 Alpha  occ. eigenvalues --   -1.56984  -1.50719  -1.47885  -1.47499  -1.45303
 Alpha  occ. eigenvalues --   -1.44860  -1.43064  -1.40570  -1.39260  -1.38646
 Alpha  occ. eigenvalues --   -1.35726  -1.34005  -1.32872  -1.31030  -1.29716
 Alpha  occ. eigenvalues --   -1.28273  -1.27162  -1.24020  -1.19940  -1.18290
 Alpha  occ. eigenvalues --   -1.17514  -1.16067  -1.15627  -1.13630  -1.12025
 Alpha  occ. eigenvalues --   -1.11788  -1.09998  -1.09394  -1.05694  -1.04659
 Alpha  occ. eigenvalues --   -1.01756  -1.01438  -0.99239  -0.98166  -0.98070
 Alpha  occ. eigenvalues --   -0.96972  -0.95700  -0.93918  -0.92845  -0.92363
 Alpha  occ. eigenvalues --   -0.91755  -0.91077  -0.89360  -0.88279  -0.87029
 Alpha  occ. eigenvalues --   -0.86038  -0.84339  -0.83316  -0.82863  -0.81418
 Alpha  occ. eigenvalues --   -0.80261  -0.80223  -0.77580  -0.77005  -0.76681
 Alpha  occ. eigenvalues --   -0.76542  -0.76029  -0.74772  -0.73943  -0.73490
 Alpha  occ. eigenvalues --   -0.73120  -0.72016  -0.71592  -0.71534  -0.71449
 Alpha  occ. eigenvalues --   -0.70465  -0.69651  -0.68938  -0.68670  -0.68496
 Alpha  occ. eigenvalues --   -0.68298  -0.67276  -0.66421  -0.66251  -0.65880
 Alpha  occ. eigenvalues --   -0.65567  -0.64889  -0.64637  -0.64279  -0.63425
 Alpha  occ. eigenvalues --   -0.63129  -0.63019  -0.62638  -0.62370  -0.62258
 Alpha  occ. eigenvalues --   -0.62003  -0.61644  -0.61319  -0.61213  -0.59884
 Alpha  occ. eigenvalues --   -0.59565  -0.59428  -0.59114  -0.58156  -0.57913
 Alpha  occ. eigenvalues --   -0.57852  -0.57488  -0.57148  -0.56927  -0.56463
 Alpha  occ. eigenvalues --   -0.55826  -0.55658  -0.55464  -0.55355  -0.54700
 Alpha  occ. eigenvalues --   -0.54504  -0.54374  -0.53718  -0.53253  -0.52978
 Alpha  occ. eigenvalues --   -0.52645  -0.52101  -0.52049  -0.51572  -0.51255
 Alpha  occ. eigenvalues --   -0.51165  -0.51081  -0.50701  -0.50454  -0.50175
 Alpha  occ. eigenvalues --   -0.50008  -0.49830  -0.49558  -0.49198  -0.48950
 Alpha  occ. eigenvalues --   -0.48857  -0.48563  -0.48030  -0.47785  -0.47672
 Alpha  occ. eigenvalues --   -0.47429  -0.47064  -0.46711  -0.46579  -0.46429
 Alpha  occ. eigenvalues --   -0.46276  -0.46176  -0.45975  -0.45638  -0.45616
 Alpha  occ. eigenvalues --   -0.44943  -0.44836  -0.44580  -0.44523  -0.43849
 Alpha  occ. eigenvalues --   -0.43821  -0.43398  -0.43086  -0.42751  -0.42185
 Alpha  occ. eigenvalues --   -0.41975  -0.41333  -0.41217  -0.39448  -0.38648
 Alpha  occ. eigenvalues --   -0.38072  -0.37482  -0.36864  -0.35508  -0.34877
 Alpha  occ. eigenvalues --   -0.34062  -0.33174  -0.32243  -0.32115  -0.27403
 Alpha  occ. eigenvalues --   -0.22334
 Alpha virt. eigenvalues --   -0.08683  -0.03233  -0.01268   0.00773   0.01505
 Alpha virt. eigenvalues --    0.01778   0.02206   0.02960   0.04007   0.04032
 Alpha virt. eigenvalues --    0.05186   0.06031   0.06309   0.06939   0.07401

 Mulliken charges:
               1
     1  Mg   0.435931
     2  C   -0.028234
     3  C   -0.075115
     4  C   -0.097039
     5  C   -0.084835
     6  N   -0.281747
     7  C    0.090864
     8  C   -0.006627
     9  C   -0.001540
    10  C    0.160014
    11  C   -0.063989
    12  C   -0.023036
    13  C    0.008505
    14  C    0.453228
    15  O   -0.530844
    16  O   -0.274079
    17  N   -0.326714
    18  C    0.145803
    19  C    0.064280
    20  C   -0.045672
    21  C    0.129393
    22  C   -0.039039
    23  C    0.349207
    24  O   -0.520510
    25  C   -0.026189
    26  N   -0.271894
    27  C    0.165607
    28  C    0.002616
    29  C   -0.006659
    30  C    0.108813
    31  C   -0.045879
    32  C   -0.025145
    33  C   -0.056587
    34  N   -0.339814
    35  C    0.073218
    36  C    0.006803
    37  C   -0.041457
    38  C    0.100322
    39  C   -0.043397
    40  C    0.331922
    41  O   -0.529535
    42  C    0.050096
    43  C    0.490142
    44  O   -0.523180
    45  O   -0.274939
    46  C    0.072401
    47  C    0.113827
    48  C   -0.089900
    49  C   -0.017229
    50  C   -0.052268
    51  C   -0.020437
    52  C   -0.027180
    53  C   -0.031479
    54  C   -0.001437
    55  C   -0.055410
    56  C   -0.030334
    57  C   -0.039082
    58  C   -0.033088
    59  C   -0.007536
    60  C   -0.069237
    61  C   -0.029618
    62  C   -0.046589
    63  C   -0.038697
    64  C   -0.001854
    65  C   -0.052069
    66  C   -0.055092
    67  H    0.023834
    68  H    0.021550
    69  H    0.014020
    70  H    0.041989
    71  H    0.030362
    72  H    0.034266
    73  H    0.012434
    74  H    0.029480
    75  H    0.025165
    76  H    0.043285
    77  H    0.059353
    78  H    0.050952
    79  H    0.035688
    80  H    0.028181
    81  H    0.041876
    82  H    0.036145
    83  H    0.047968
    84  H    0.046145
    85  H    0.038139
    86  H    0.039707
    87  H    0.022781
    88  H    0.020948
    89  H    0.009282
    90  H    0.023172
    91  H    0.014735
    92  H    0.020711
    93  H    0.015455
    94  H    0.029215
    95  H    0.039314
    96  H    0.018414
    97  H    0.029797
    98  H    0.057943
    99  H    0.026397
   100  H    0.060481
   101  H    0.036526
   102  H    0.053948
   103  H    0.059243
   104  H    0.024644
   105  H    0.038089
   106  H    0.032293
   107  H    0.024455
   108  H    0.021943
   109  H    0.025126
   110  H    0.002417
   111  H    0.016474
   112  H    0.013987
   113  H    0.023201
   114  H    0.015977
   115  H    0.025651
   116  H    0.005227
   117  H    0.020586
   118  H    0.013826
   119  H    0.016025
   120  H    0.018844
   121  H    0.015064
   122  H    0.017666
   123  H    0.020782
   124  H    0.028020
   125  H    0.015894
   126  H    0.013646
   127  H    0.017696
   128  H    0.022686
   129  H    0.018109
   130  H    0.015738
   131  H    0.008717
   132  H    0.020362
   133  H    0.020475
   134  H    0.022196
   135  H    0.013211
   136  H    0.019919
   137  H    0.014087
   138  H    0.020402
   139  H    0.010554
   140  H    0.016340
 Sum of Mulliken charges =  -0.00000

 Dipole moment (field-independent basis, Debye):
    X=             -0.2464    Y=             10.7740    Z=              1.2083  Tot=             10.8443
 N-N= 4.344128883404D+03 E-N= 0.000000000000D+00  KE=-9.361810871689D+03
 Leave Link  601 at Wed May  4 22:43:24 2022, MaxMem=  6710886400 cpu:               0.7 elap:               0.0
 (Enter /sw/apps/gaussian-16.0/g16/l9999.exe)
 1\1\GINC-BP1-COMPUTE135\SP\RZINDO CIS\STO-3G\C55H74Mg1N4O6\OF15641\04-
 May-2022\0\\#p ZINDO=(nstates=5)\\step_451_chromophore_2 ZINDO\\0,1\Mg
 ,0,2.691,-0.599,43.961\C,0,5.777,0.664,42.979\C,0,1.308,2.216,42.778\C
 ,0,-0.204,-2.246,43.958\C,0,4.348,-3.2,45.522\N,0,3.444,1.118,42.74\C,
 0,4.747,1.425,42.451\C,0,4.968,2.744,41.662\C,0,3.556,3.374,42.067\C,0
 ,2.706,2.245,42.713\C,0,3.643,4.727,42.947\C,0,5.375,2.637,40.092\C,0,
 6.491,3.734,39.8\C,0,6.547,4.285,38.324\O,0,6.813,5.471,38.006\O,0,6.1

 Normal termination of Gaussian 16 at Wed May  4 22:43:24 2022.
