 Gaussian 16, Revision A.03,
 Gaussian 16:  ES64L-G16RevA.03 25-Dec-2016

 ------------------------------
 #p blyp/Def2SVP td=(nstates=5)
 ------------------------------

 ---------------------------------------------------
 step_1451_chromophore_10 TDDFT with blyp functional
 ---------------------------------------------------
 Symbolic Z-matrix:
 Charge =  0 Multiplicity = 1

                         Standard orientation:
 ---------------------------------------------------------------------
 Center     Atomic      Atomic             Coordinates (Angstroms)
 Number     Number       Type             X           Y           Z
 ---------------------------------------------------------------------
      1         12           0        5.704520    0.430188   -0.008995
      2          6           0        3.346590   -2.168968    0.314956
      3          6           0        3.468153    2.214663   -2.014571
      4          6           0        8.102870    2.903729   -0.418083
      5          6           0        7.933219   -1.443488    1.924155
      6          7           0        3.670404    0.117610   -0.674914
      7          6           0        2.914788   -1.003268   -0.361822
      8          6           0        1.440842   -0.831563   -0.825331
      9          6           0        1.521350    0.412554   -1.794739
     10          6           0        2.990361    0.982895   -1.493154
     11          6           0        1.204595   -0.001115   -3.272916
     12          6           0        0.505623   -0.482433    0.337777
     13          6           0       -0.968064   -0.391499   -0.047560
     14          6           0       -1.931891   -1.420855    0.551503
     15          8           0       -2.221660   -1.663455    1.756753
     16          8           0       -2.497172   -2.200550   -0.454054
     17          7           0        5.744548    2.282270   -1.009484
     18          6           0        4.725335    2.863711   -1.743865
     19          6           0        5.049953    4.192785   -2.138549
     20          6           0        6.346303    4.454739   -1.670436
     21          6           0        6.829886    3.197403   -1.024588
     22          6           0        4.154177    5.018667   -3.038555
     23          6           0        7.053259    5.871212   -1.688015
     24          8           0        8.200463    6.038836   -1.299143
     25          6           0        6.283055    6.980203   -2.012970
     26          7           0        7.741533    0.645470    0.622483
     27          6           0        8.452316    1.790547    0.316697
     28          6           0        9.845656    1.674585    0.937080
     29          6           0        9.731522    0.449248    1.920580
     30          6           0        8.367814   -0.167280    1.492777
     31          6           0       10.916763    1.588615   -0.206999
     32          6           0        9.761789    0.862756    3.429383
     33          6           0        8.553638    1.725382    3.940821
     34          7           0        5.749125   -1.483035    0.812605
     35          6           0        6.722837   -2.120764    1.558914
     36          6           0        6.334880   -3.475872    1.778328
     37          6           0        4.961778   -3.509932    1.432994
     38          6           0        4.661123   -2.301916    0.783412
     39          6           0        7.162092   -4.576136    2.458381
     40          6           0        3.775199   -4.343052    1.337567
     41          8           0        3.603793   -5.545914    1.611233
     42          6           0        2.654149   -3.495386    0.607005
     43          6           0        2.053865   -4.239502   -0.548722
     44          8           0        2.637375   -5.029208   -1.199653
     45          8           0        0.702979   -4.014775   -0.661588
     46          6           0        0.029926   -4.590270   -1.819637
     47          6           0       -3.481730   -3.198164    0.007111
     48          6           0       -4.805308   -3.139009   -0.839596
     49          6           0       -5.823943   -4.104097   -0.844423
     50          6           0       -5.962547   -5.388224    0.000932
     51          6           0       -7.066246   -3.911997   -1.798340
     52          6           0       -8.279660   -3.163649   -1.285468
     53          6           0       -8.032691   -1.650355   -1.301905
     54          6           0       -9.245208   -0.870611   -1.963639
     55          6           0       -9.261882   -0.997617   -3.477872
     56          6           0       -9.230393    0.607430   -1.582781
     57          6           0       -9.829813    0.943570   -0.287430
     58          6           0      -10.998082    1.919356   -0.421334
     59          6           0      -12.407650    1.290128   -0.035875
     60          6           0      -12.826524    0.599205   -1.247727
     61          6           0      -13.409655    2.324037    0.579888
     62          6           0      -13.145689    2.405681    2.070802
     63          6           0      -13.189977    3.804935    2.640224
     64          6           0      -11.819409    4.184504    3.272457
     65          6           0      -11.824386    4.061718    4.867315
     66          6           0      -11.457668    5.681879    2.997880
     67          1           0        2.734052    2.785685   -2.585321
     68          1           0        8.858596    3.685442   -0.312189
     69          1           0        8.749952   -1.907401    2.480218
     70          1           0        1.048961   -1.648138   -1.432690
     71          1           0        0.752653    1.137716   -1.529701
     72          1           0        0.195962    0.360565   -3.474583
     73          1           0        1.165770   -1.074586   -3.454463
     74          1           0        1.936449    0.411711   -3.966763
     75          1           0        0.882534    0.447959    0.763051
     76          1           0        0.600388   -1.187897    1.164310
     77          1           0       -1.046294   -0.346896   -1.132950
     78          1           0       -1.335652    0.588151    0.259301
     79          1           0        3.418027    4.447838   -3.604516
     80          1           0        4.589902    5.619788   -3.836001
     81          1           0        3.624656    5.695587   -2.368496
     82          1           0        5.974122    6.963639   -3.057973
     83          1           0        6.918783    7.856956   -1.885143
     84          1           0        5.356362    6.893548   -1.446308
     85          1           0       10.056018    2.562078    1.533324
     86          1           0       10.560145   -0.214213    1.672454
     87          1           0       10.998174    0.554901   -0.544776
     88          1           0       11.875830    2.026428    0.071273
     89          1           0       10.731086    2.178555   -1.104739
     90          1           0       10.673590    1.426734    3.626063
     91          1           0        9.980788   -0.057482    3.970721
     92          1           0        8.594979    2.710073    3.475182
     93          1           0        8.453806    1.811082    5.022473
     94          1           0        7.652025    1.148230    3.738606
     95          1           0        7.457332   -5.288395    1.687677
     96          1           0        6.501502   -5.103806    3.146631
     97          1           0        8.000906   -4.182913    3.033335
     98          1           0        1.791784   -3.179692    1.195085
     99          1           0        0.527929   -5.377926   -2.385324
    100          1           0       -0.298954   -3.892579   -2.589927
    101          1           0       -0.837983   -5.100785   -1.402359
    102          1           0       -3.815320   -3.055710    1.035452
    103          1           0       -2.999709   -4.172619   -0.069735
    104          1           0       -4.963796   -2.358193   -1.583380
    105          1           0       -6.516348   -5.070239    0.884412
    106          1           0       -4.979281   -5.793462    0.240070
    107          1           0       -6.575592   -6.116419   -0.531186
    108          1           0       -7.329709   -4.902360   -2.170173
    109          1           0       -6.734991   -3.315523   -2.647278
    110          1           0       -8.387977   -3.408772   -0.229102
    111          1           0       -9.146785   -3.473607   -1.869342
    112          1           0       -7.219638   -1.303665   -1.939657
    113          1           0       -7.740306   -1.354172   -0.295274
    114          1           0      -10.152507   -1.358180   -1.607704
    115          1           0       -8.655742   -0.201510   -3.909116
    116          1           0      -10.227648   -0.845143   -3.960452
    117          1           0       -8.986890   -2.017885   -3.746470
    118          1           0       -9.601337    1.232115   -2.395105
    119          1           0       -8.220250    0.986639   -1.423293
    120          1           0       -9.072664    1.394028    0.355080
    121          1           0      -10.222047    0.021493    0.142509
    122          1           0      -10.971926    2.415673   -1.391783
    123          1           0      -10.828416    2.723512    0.295096
    124          1           0      -12.341574    0.483351    0.694645
    125          1           0      -13.010512   -0.451266   -1.023170
    126          1           0      -12.125340    0.608719   -2.082287
    127          1           0      -13.674968    1.130460   -1.678472
    128          1           0      -14.387365    1.858842    0.453499
    129          1           0      -13.340296    3.306175    0.111914
    130          1           0      -12.237980    1.827227    2.244966
    131          1           0      -13.965584    1.789886    2.441863
    132          1           0      -13.904855    3.647130    3.447357
    133          1           0      -13.436703    4.575747    1.910687
    134          1           0      -11.066461    3.546893    2.808738
    135          1           0      -12.320392    4.861727    5.417758
    136          1           0      -10.806311    3.907192    5.225603
    137          1           0      -12.450277    3.226709    5.180295
    138          1           0      -11.736615    6.351683    3.811817
    139          1           0      -11.938778    6.010301    2.076237
    140          1           0      -10.394740    5.650640    2.761990
 ---------------------------------------------------------------------

 SCF Done:  E(RB-LYP) =  -3007.37784024     A.U. after   21 cycles

 Excitation energies and oscillator strengths:

 Excited State   1:      Singlet-A      1.7916 eV  692.05 nm  f=0.0034  <S**2>=0.000
     244 -> 247        0.67374
     245 -> 247       -0.20715
 This state for optimization and/or second-order correction.
 Total Energy, E(TD-HF/TD-DFT) =  -3007.31200196
 Copying the excited state density for this state as the 1-particle RhoCI density.

 Excited State   2:      Singlet-A      1.8201 eV  681.18 nm  f=0.3009  <S**2>=0.000
     245 -> 248        0.20510
     246 -> 247        0.68917
     246 <- 247       -0.15216

 Excited State   3:      Singlet-A      1.9649 eV  630.98 nm  f=0.0051  <S**2>=0.000
     243 -> 247        0.68228
     245 -> 247       -0.16109

 Excited State   4:      Singlet-A      2.0027 eV  619.08 nm  f=0.0803  <S**2>=0.000
     243 -> 247        0.18294
     244 -> 247        0.19712
     245 -> 247        0.59653
     246 -> 248       -0.23513

 Excited State   5:      Singlet-A      2.0753 eV  597.42 nm  f=0.0001  <S**2>=0.000
     242 -> 247        0.70705

 The electronic state is 1-A.
 Alpha  occ. eigenvalues --  -46.26860 -18.82547 -18.82383 -18.77068 -18.76538
 Alpha  occ. eigenvalues --  -18.75806 -18.75297 -14.04261 -14.03188 -14.01639
 Alpha  occ. eigenvalues --  -14.00838 -10.04993 -10.03681  -9.99863  -9.99598
 Alpha  occ. eigenvalues --   -9.98257  -9.97663  -9.97576  -9.97389  -9.96880
 Alpha  occ. eigenvalues --   -9.96753  -9.96325  -9.95997  -9.95916  -9.94610
 Alpha  occ. eigenvalues --   -9.94598  -9.94469  -9.94319  -9.94238  -9.94056
 Alpha  occ. eigenvalues --   -9.93964  -9.93902  -9.93804  -9.93751  -9.93734
 Alpha  occ. eigenvalues --   -9.93690  -9.93617  -9.93614  -9.93330  -9.93300
 Alpha  occ. eigenvalues --   -9.93216  -9.92877  -9.92788  -9.92747  -9.92658
 Alpha  occ. eigenvalues --   -9.92405  -9.92259  -9.92253  -9.92099  -9.92038
 Alpha  occ. eigenvalues --   -9.91856  -9.91800  -9.91696  -9.91234  -9.91209
 Alpha  occ. eigenvalues --   -9.91078  -9.90943  -9.90942  -9.90680  -9.90564
 Alpha  occ. eigenvalues --   -9.90533  -9.90477  -9.90288  -9.90187  -9.90075
 Alpha  occ. eigenvalues --   -9.89805  -2.91459  -1.71909  -1.71308  -1.71187
 Alpha  occ. eigenvalues --   -0.98828  -0.96907  -0.92052  -0.91188  -0.89571
 Alpha  occ. eigenvalues --   -0.88147  -0.86286  -0.85511  -0.85147  -0.84104
 Alpha  occ. eigenvalues --   -0.75605  -0.74020  -0.73607  -0.72958  -0.71992
 Alpha  occ. eigenvalues --   -0.71780  -0.71460  -0.70983  -0.70585  -0.70319
 Alpha  occ. eigenvalues --   -0.69440  -0.69181  -0.68300  -0.67729  -0.67540
 Alpha  occ. eigenvalues --   -0.66692  -0.66391  -0.65655  -0.65351  -0.64914
 Alpha  occ. eigenvalues --   -0.64387  -0.62666  -0.62460  -0.61864  -0.60970
 Alpha  occ. eigenvalues --   -0.60125  -0.59989  -0.59472  -0.59410  -0.59157
 Alpha  occ. eigenvalues --   -0.58381  -0.57776  -0.56791  -0.55747  -0.55366
 Alpha  occ. eigenvalues --   -0.54030  -0.52990  -0.52517  -0.51728  -0.51379
 Alpha  occ. eigenvalues --   -0.51048  -0.50759  -0.50598  -0.50347  -0.50003
 Alpha  occ. eigenvalues --   -0.49400  -0.49236  -0.49032  -0.48571  -0.46553
 Alpha  occ. eigenvalues --   -0.46488  -0.46046  -0.45586  -0.45262  -0.44324
 Alpha  occ. eigenvalues --   -0.44264  -0.44067  -0.43177  -0.42616  -0.42400
 Alpha  occ. eigenvalues --   -0.42274  -0.42003  -0.41764  -0.41593  -0.41496
 Alpha  occ. eigenvalues --   -0.41294  -0.41035  -0.40751  -0.40356  -0.40072
 Alpha  occ. eigenvalues --   -0.39863  -0.39825  -0.39674  -0.39555  -0.39170
 Alpha  occ. eigenvalues --   -0.39059  -0.38940  -0.38727  -0.38464  -0.38427
 Alpha  occ. eigenvalues --   -0.38057  -0.37779  -0.37633  -0.37561  -0.37312
 Alpha  occ. eigenvalues --   -0.37093  -0.37005  -0.36968  -0.36749  -0.36614
 Alpha  occ. eigenvalues --   -0.36435  -0.36122  -0.35893  -0.35553  -0.35410
 Alpha  occ. eigenvalues --   -0.35371  -0.35205  -0.35060  -0.34757  -0.34660
 Alpha  occ. eigenvalues --   -0.34632  -0.34520  -0.34425  -0.34217  -0.34028
 Alpha  occ. eigenvalues --   -0.33829  -0.33691  -0.33648  -0.33410  -0.33340
 Alpha  occ. eigenvalues --   -0.33114  -0.32966  -0.32904  -0.32581  -0.32351
 Alpha  occ. eigenvalues --   -0.32230  -0.31875  -0.31818  -0.31723  -0.31535
 Alpha  occ. eigenvalues --   -0.31278  -0.31141  -0.30870  -0.30714  -0.30552
 Alpha  occ. eigenvalues --   -0.30310  -0.30256  -0.30082  -0.29891  -0.29727
 Alpha  occ. eigenvalues --   -0.29638  -0.29609  -0.29348  -0.29172  -0.29104
 Alpha  occ. eigenvalues --   -0.28885  -0.28665  -0.28038  -0.28002  -0.27820
 Alpha  occ. eigenvalues --   -0.27753  -0.27453  -0.26984  -0.26827  -0.26612
 Alpha  occ. eigenvalues --   -0.26465  -0.26364  -0.25660  -0.25308  -0.25078
 Alpha  occ. eigenvalues --   -0.24951  -0.24829  -0.24125  -0.23810  -0.23424
 Alpha  occ. eigenvalues --   -0.22986  -0.22768  -0.22125  -0.21875  -0.20992
 Alpha  occ. eigenvalues --   -0.20351  -0.19604  -0.19137  -0.18473  -0.17586
 Alpha  occ. eigenvalues --   -0.16247
 Alpha virt. eigenvalues --   -0.11978  -0.07173  -0.06220  -0.04673  -0.04139
 Alpha virt. eigenvalues --   -0.02356  -0.02153  -0.01990  -0.00996  -0.00396
 Alpha virt. eigenvalues --    0.00692   0.01170   0.02003   0.02409   0.02594

 Mulliken charges:
               1
     1  Mg   0.688021
     2  C   -0.022417
     3  C   -0.060236
     4  C   -0.029591
     5  C   -0.047902
     6  N   -0.225863
     7  C   -0.039984
     8  C   -0.004215
     9  C   -0.040396
    10  C    0.050709
    11  C    0.111516
    12  C    0.124362
    13  C    0.158635
    14  C    0.102914
    15  O   -0.219693
    16  O   -0.279565
    17  N   -0.308504
    18  C    0.141280
    19  C   -0.131592
    20  C    0.002854
    21  C    0.101956
    22  C    0.152047
    23  C   -0.082194
    24  O   -0.160184
    25  C    0.190759
    26  N   -0.214551
    27  C    0.028043
    28  C    0.000308
    29  C    0.052887
    30  C   -0.030786
    31  C    0.113946
    32  C    0.077775
    33  C    0.064047
    34  N   -0.270287
    35  C    0.152082
    36  C   -0.182057
    37  C    0.085041
    38  C    0.050576
    39  C    0.177179
    40  C   -0.014221
    41  O   -0.145953
    42  C    0.122487
    43  C    0.064308
    44  O   -0.109500
    45  O   -0.276971
    46  C    0.203935
    47  C    0.287513
    48  C   -0.069865
    49  C   -0.205493
    50  C    0.148076
    51  C    0.083191
    52  C    0.144877
    53  C    0.059854
    54  C   -0.070251
    55  C    0.098770
    56  C    0.125902
    57  C    0.103669
    58  C    0.095500
    59  C   -0.131932
    60  C    0.140209
    61  C    0.132772
    62  C    0.037098
    63  C    0.161452
    64  C   -0.116154
    65  C    0.085343
    66  C    0.106358
    67  H   -0.065418
    68  H   -0.033250
    69  H   -0.062433
    70  H   -0.018116
    71  H   -0.023104
    72  H   -0.006529
    73  H   -0.004874
    74  H   -0.005932
    75  H   -0.031022
    76  H   -0.010126
    77  H   -0.019463
    78  H   -0.000829
    79  H   -0.004121
    80  H    0.001592
    81  H   -0.004614
    82  H   -0.002735
    83  H   -0.000751
    84  H    0.008197
    85  H   -0.025185
    86  H   -0.033978
    87  H   -0.007378
    88  H   -0.011207
    89  H   -0.007246
    90  H   -0.025212
    91  H   -0.028760
    92  H    0.010936
    93  H   -0.009314
    94  H    0.003739
    95  H    0.013258
    96  H    0.007836
    97  H   -0.008695
    98  H   -0.006172
    99  H    0.015963
   100  H    0.016056
   101  H    0.010949
   102  H    0.026726
   103  H    0.014190
   104  H   -0.029902
   105  H    0.011987
   106  H   -0.000145
   107  H   -0.008676
   108  H   -0.035701
   109  H   -0.031749
   110  H   -0.037357
   111  H   -0.017856
   112  H   -0.033369
   113  H   -0.027829
   114  H   -0.038923
   115  H   -0.014257
   116  H   -0.019027
   117  H   -0.022597
   118  H   -0.044989
   119  H   -0.054097
   120  H   -0.035901
   121  H   -0.031768
   122  H   -0.033284
   123  H   -0.061748
   124  H   -0.039799
   125  H   -0.021230
   126  H   -0.023799
   127  H   -0.032738
   128  H   -0.046421
   129  H   -0.033233
   130  H   -0.014625
   131  H   -0.042876
   132  H   -0.037837
   133  H   -0.027092
   134  H   -0.020467
   135  H   -0.012815
   136  H   -0.008063
   137  H   -0.028767
   138  H   -0.003740
   139  H   -0.030763
   140  H   -0.019413
 Sum of Mulliken charges =  -0.00000

 Dipole moment (field-independent basis, Debye):
    X=             -2.0167    Y=              3.9983    Z=             -2.1947  Tot=              4.9870
 Quadrupole moment (field-independent basis, Debye-Ang):
   XX=           -389.1218   YY=           -431.0007   ZZ=           -401.3914
   XY=             13.0555   XZ=             17.7458   YZ=              0.5931

 Normal termination of Gaussian 16 at Wed May  4 07:10:29 2022.
