 Gaussian 16, Revision A.03,
 Gaussian 16:  ES64L-G16RevA.03 25-Dec-2016

 -----------------------------------
 #p cam-b3lyp/Def2SVP td=(nstates=5)
 -----------------------------------

 --------------------------------------------------------
 step_1451_chromophore_10 TDDFT with cam-b3lyp functional
 --------------------------------------------------------
 Symbolic Z-matrix:
 Charge =  0 Multiplicity = 1

                         Standard orientation:
 ---------------------------------------------------------------------
 Center     Atomic      Atomic             Coordinates (Angstroms)
 Number     Number       Type             X           Y           Z
 ---------------------------------------------------------------------
      1         12           0        5.704520    0.430188   -0.008995
      2          6           0        3.346590   -2.168968    0.314956
      3          6           0        3.468153    2.214663   -2.014571
      4          6           0        8.102870    2.903729   -0.418083
      5          6           0        7.933219   -1.443488    1.924155
      6          7           0        3.670404    0.117610   -0.674914
      7          6           0        2.914788   -1.003268   -0.361822
      8          6           0        1.440842   -0.831563   -0.825331
      9          6           0        1.521350    0.412554   -1.794739
     10          6           0        2.990361    0.982895   -1.493154
     11          6           0        1.204595   -0.001115   -3.272916
     12          6           0        0.505623   -0.482433    0.337777
     13          6           0       -0.968064   -0.391499   -0.047560
     14          6           0       -1.931891   -1.420855    0.551503
     15          8           0       -2.221660   -1.663455    1.756753
     16          8           0       -2.497172   -2.200550   -0.454054
     17          7           0        5.744548    2.282270   -1.009484
     18          6           0        4.725335    2.863711   -1.743865
     19          6           0        5.049953    4.192785   -2.138549
     20          6           0        6.346303    4.454739   -1.670436
     21          6           0        6.829886    3.197403   -1.024588
     22          6           0        4.154177    5.018667   -3.038555
     23          6           0        7.053259    5.871212   -1.688015
     24          8           0        8.200463    6.038836   -1.299143
     25          6           0        6.283055    6.980203   -2.012970
     26          7           0        7.741533    0.645470    0.622483
     27          6           0        8.452316    1.790547    0.316697
     28          6           0        9.845656    1.674585    0.937080
     29          6           0        9.731522    0.449248    1.920580
     30          6           0        8.367814   -0.167280    1.492777
     31          6           0       10.916763    1.588615   -0.206999
     32          6           0        9.761789    0.862756    3.429383
     33          6           0        8.553638    1.725382    3.940821
     34          7           0        5.749125   -1.483035    0.812605
     35          6           0        6.722837   -2.120764    1.558914
     36          6           0        6.334880   -3.475872    1.778328
     37          6           0        4.961778   -3.509932    1.432994
     38          6           0        4.661123   -2.301916    0.783412
     39          6           0        7.162092   -4.576136    2.458381
     40          6           0        3.775199   -4.343052    1.337567
     41          8           0        3.603793   -5.545914    1.611233
     42          6           0        2.654149   -3.495386    0.607005
     43          6           0        2.053865   -4.239502   -0.548722
     44          8           0        2.637375   -5.029208   -1.199653
     45          8           0        0.702979   -4.014775   -0.661588
     46          6           0        0.029926   -4.590270   -1.819637
     47          6           0       -3.481730   -3.198164    0.007111
     48          6           0       -4.805308   -3.139009   -0.839596
     49          6           0       -5.823943   -4.104097   -0.844423
     50          6           0       -5.962547   -5.388224    0.000932
     51          6           0       -7.066246   -3.911997   -1.798340
     52          6           0       -8.279660   -3.163649   -1.285468
     53          6           0       -8.032691   -1.650355   -1.301905
     54          6           0       -9.245208   -0.870611   -1.963639
     55          6           0       -9.261882   -0.997617   -3.477872
     56          6           0       -9.230393    0.607430   -1.582781
     57          6           0       -9.829813    0.943570   -0.287430
     58          6           0      -10.998082    1.919356   -0.421334
     59          6           0      -12.407650    1.290128   -0.035875
     60          6           0      -12.826524    0.599205   -1.247727
     61          6           0      -13.409655    2.324037    0.579888
     62          6           0      -13.145689    2.405681    2.070802
     63          6           0      -13.189977    3.804935    2.640224
     64          6           0      -11.819409    4.184504    3.272457
     65          6           0      -11.824386    4.061718    4.867315
     66          6           0      -11.457668    5.681879    2.997880
     67          1           0        2.734052    2.785685   -2.585321
     68          1           0        8.858596    3.685442   -0.312189
     69          1           0        8.749952   -1.907401    2.480218
     70          1           0        1.048961   -1.648138   -1.432690
     71          1           0        0.752653    1.137716   -1.529701
     72          1           0        0.195962    0.360565   -3.474583
     73          1           0        1.165770   -1.074586   -3.454463
     74          1           0        1.936449    0.411711   -3.966763
     75          1           0        0.882534    0.447959    0.763051
     76          1           0        0.600388   -1.187897    1.164310
     77          1           0       -1.046294   -0.346896   -1.132950
     78          1           0       -1.335652    0.588151    0.259301
     79          1           0        3.418027    4.447838   -3.604516
     80          1           0        4.589902    5.619788   -3.836001
     81          1           0        3.624656    5.695587   -2.368496
     82          1           0        5.974122    6.963639   -3.057973
     83          1           0        6.918783    7.856956   -1.885143
     84          1           0        5.356362    6.893548   -1.446308
     85          1           0       10.056018    2.562078    1.533324
     86          1           0       10.560145   -0.214213    1.672454
     87          1           0       10.998174    0.554901   -0.544776
     88          1           0       11.875830    2.026428    0.071273
     89          1           0       10.731086    2.178555   -1.104739
     90          1           0       10.673590    1.426734    3.626063
     91          1           0        9.980788   -0.057482    3.970721
     92          1           0        8.594979    2.710073    3.475182
     93          1           0        8.453806    1.811082    5.022473
     94          1           0        7.652025    1.148230    3.738606
     95          1           0        7.457332   -5.288395    1.687677
     96          1           0        6.501502   -5.103806    3.146631
     97          1           0        8.000906   -4.182913    3.033335
     98          1           0        1.791784   -3.179692    1.195085
     99          1           0        0.527929   -5.377926   -2.385324
    100          1           0       -0.298954   -3.892579   -2.589927
    101          1           0       -0.837983   -5.100785   -1.402359
    102          1           0       -3.815320   -3.055710    1.035452
    103          1           0       -2.999709   -4.172619   -0.069735
    104          1           0       -4.963796   -2.358193   -1.583380
    105          1           0       -6.516348   -5.070239    0.884412
    106          1           0       -4.979281   -5.793462    0.240070
    107          1           0       -6.575592   -6.116419   -0.531186
    108          1           0       -7.329709   -4.902360   -2.170173
    109          1           0       -6.734991   -3.315523   -2.647278
    110          1           0       -8.387977   -3.408772   -0.229102
    111          1           0       -9.146785   -3.473607   -1.869342
    112          1           0       -7.219638   -1.303665   -1.939657
    113          1           0       -7.740306   -1.354172   -0.295274
    114          1           0      -10.152507   -1.358180   -1.607704
    115          1           0       -8.655742   -0.201510   -3.909116
    116          1           0      -10.227648   -0.845143   -3.960452
    117          1           0       -8.986890   -2.017885   -3.746470
    118          1           0       -9.601337    1.232115   -2.395105
    119          1           0       -8.220250    0.986639   -1.423293
    120          1           0       -9.072664    1.394028    0.355080
    121          1           0      -10.222047    0.021493    0.142509
    122          1           0      -10.971926    2.415673   -1.391783
    123          1           0      -10.828416    2.723512    0.295096
    124          1           0      -12.341574    0.483351    0.694645
    125          1           0      -13.010512   -0.451266   -1.023170
    126          1           0      -12.125340    0.608719   -2.082287
    127          1           0      -13.674968    1.130460   -1.678472
    128          1           0      -14.387365    1.858842    0.453499
    129          1           0      -13.340296    3.306175    0.111914
    130          1           0      -12.237980    1.827227    2.244966
    131          1           0      -13.965584    1.789886    2.441863
    132          1           0      -13.904855    3.647130    3.447357
    133          1           0      -13.436703    4.575747    1.910687
    134          1           0      -11.066461    3.546893    2.808738
    135          1           0      -12.320392    4.861727    5.417758
    136          1           0      -10.806311    3.907192    5.225603
    137          1           0      -12.450277    3.226709    5.180295
    138          1           0      -11.736615    6.351683    3.811817
    139          1           0      -11.938778    6.010301    2.076237
    140          1           0      -10.394740    5.650640    2.761990
 ---------------------------------------------------------------------

 SCF Done:  E(RCAM-B3LYP) =  -3007.16559754     A.U. after   16 cycles

 Excitation energies and oscillator strengths:

 Excited State   1:      Singlet-A      1.6884 eV  734.35 nm  f=0.3822  <S**2>=0.000
     245 -> 248       -0.18489
     246 -> 247        0.68552
     245 <- 248       -0.11142
 This state for optimization and/or second-order correction.
 Total Energy, E(TD-HF/TD-DFT) =  -3007.10355143
 Copying the excited state density for this state as the 1-particle RhoCI density.

 Excited State   2:      Singlet-A      2.2053 eV  562.20 nm  f=0.1247  <S**2>=0.000
     245 -> 247        0.64091
     246 -> 248        0.28807

 Excited State   3:      Singlet-A      3.2543 eV  380.98 nm  f=0.0006  <S**2>=0.000
     242 -> 247       -0.15095
     243 -> 247        0.66614

 Excited State   4:      Singlet-A      3.3752 eV  367.34 nm  f=0.0047  <S**2>=0.000
     241 -> 247        0.40268
     241 -> 249       -0.27771
     241 -> 250        0.16047
     242 -> 247        0.43911

 Excited State   5:      Singlet-A      3.4466 eV  359.72 nm  f=0.0678  <S**2>=0.000
     241 -> 247       -0.37297
     242 -> 247        0.44203
     243 -> 247        0.13501
     246 -> 248       -0.33031

 The electronic state is 1-A.
 Alpha  occ. eigenvalues --  -46.88377 -19.25375 -19.25274 -19.20038 -19.19605
 Alpha  occ. eigenvalues --  -19.19082 -19.18472 -14.43223 -14.42035 -14.40250
 Alpha  occ. eigenvalues --  -14.39189 -10.40457 -10.38946 -10.35090 -10.34949
 Alpha  occ. eigenvalues --  -10.32303 -10.32257 -10.31964 -10.31611 -10.31548
 Alpha  occ. eigenvalues --  -10.31130 -10.30836 -10.30485 -10.30076 -10.28775
 Alpha  occ. eigenvalues --  -10.28727 -10.28643 -10.28630 -10.28604 -10.28558
 Alpha  occ. eigenvalues --  -10.28172 -10.28056 -10.28002 -10.27979 -10.27961
 Alpha  occ. eigenvalues --  -10.27950 -10.27780 -10.27546 -10.27539 -10.27425
 Alpha  occ. eigenvalues --  -10.27009 -10.26930 -10.26835 -10.26598 -10.26328
 Alpha  occ. eigenvalues --  -10.26076 -10.26008 -10.25902 -10.25864 -10.25834
 Alpha  occ. eigenvalues --  -10.25592 -10.25561 -10.25348 -10.25290 -10.24916
 Alpha  occ. eigenvalues --  -10.24785 -10.24564 -10.24564 -10.24367 -10.24217
 Alpha  occ. eigenvalues --  -10.24165 -10.24081 -10.23876 -10.23794 -10.23688
 Alpha  occ. eigenvalues --  -10.23349  -3.16882  -1.91809  -1.91313  -1.91201
 Alpha  occ. eigenvalues --   -1.17407  -1.15262  -1.10552  -1.09142  -1.07848
 Alpha  occ. eigenvalues --   -1.05921  -1.03956  -1.03148  -1.02757  -1.01688
 Alpha  occ. eigenvalues --   -0.92724  -0.90924  -0.90483  -0.89772  -0.88810
 Alpha  occ. eigenvalues --   -0.88488  -0.88026  -0.87719  -0.87163  -0.86900
 Alpha  occ. eigenvalues --   -0.85884  -0.85553  -0.84611  -0.84114  -0.83666
 Alpha  occ. eigenvalues --   -0.82798  -0.82453  -0.81541  -0.81214  -0.80765
 Alpha  occ. eigenvalues --   -0.80144  -0.78461  -0.78100  -0.77328  -0.76366
 Alpha  occ. eigenvalues --   -0.75424  -0.75302  -0.74800  -0.74706  -0.74417
 Alpha  occ. eigenvalues --   -0.73472  -0.72795  -0.71686  -0.70576  -0.69969
 Alpha  occ. eigenvalues --   -0.68636  -0.67466  -0.67001  -0.66042  -0.65469
 Alpha  occ. eigenvalues --   -0.65018  -0.64887  -0.64773  -0.64373  -0.64047
 Alpha  occ. eigenvalues --   -0.63386  -0.63008  -0.62726  -0.62496  -0.60274
 Alpha  occ. eigenvalues --   -0.60129  -0.59535  -0.59003  -0.58685  -0.57870
 Alpha  occ. eigenvalues --   -0.57768  -0.57542  -0.56410  -0.55813  -0.55404
 Alpha  occ. eigenvalues --   -0.55245  -0.55134  -0.54799  -0.54598  -0.54280
 Alpha  occ. eigenvalues --   -0.54158  -0.53946  -0.53737  -0.53239  -0.52825
 Alpha  occ. eigenvalues --   -0.52665  -0.52559  -0.52124  -0.52088  -0.51838
 Alpha  occ. eigenvalues --   -0.51720  -0.51494  -0.51220  -0.51049  -0.50861
 Alpha  occ. eigenvalues --   -0.50560  -0.50153  -0.49984  -0.49854  -0.49761
 Alpha  occ. eigenvalues --   -0.49465  -0.49299  -0.49149  -0.49058  -0.48854
 Alpha  occ. eigenvalues --   -0.48623  -0.48351  -0.48228  -0.47970  -0.47867
 Alpha  occ. eigenvalues --   -0.47359  -0.47197  -0.46975  -0.46740  -0.46626
 Alpha  occ. eigenvalues --   -0.46512  -0.46411  -0.46298  -0.46056  -0.45872
 Alpha  occ. eigenvalues --   -0.45527  -0.45455  -0.45309  -0.45209  -0.45089
 Alpha  occ. eigenvalues --   -0.44958  -0.44602  -0.44552  -0.44258  -0.43895
 Alpha  occ. eigenvalues --   -0.43824  -0.43690  -0.43383  -0.43201  -0.43079
 Alpha  occ. eigenvalues --   -0.42708  -0.42549  -0.42498  -0.42313  -0.42160
 Alpha  occ. eigenvalues --   -0.41681  -0.41640  -0.41421  -0.41344  -0.41160
 Alpha  occ. eigenvalues --   -0.40964  -0.40811  -0.40587  -0.40329  -0.40213
 Alpha  occ. eigenvalues --   -0.39926  -0.39691  -0.39149  -0.38948  -0.38711
 Alpha  occ. eigenvalues --   -0.38707  -0.38280  -0.38189  -0.37789  -0.37426
 Alpha  occ. eigenvalues --   -0.37285  -0.37130  -0.36748  -0.36602  -0.36077
 Alpha  occ. eigenvalues --   -0.35695  -0.35521  -0.34875  -0.34466  -0.34309
 Alpha  occ. eigenvalues --   -0.34297  -0.33358  -0.32902  -0.31830  -0.31577
 Alpha  occ. eigenvalues --   -0.30741  -0.30396  -0.29557  -0.29199  -0.24403
 Alpha  occ. eigenvalues --   -0.21567
 Alpha virt. eigenvalues --   -0.09229  -0.02090   0.00356   0.02397   0.03442
 Alpha virt. eigenvalues --    0.03727   0.05060   0.05236   0.05675   0.06264
 Alpha virt. eigenvalues --    0.07393   0.08069   0.08594   0.08711   0.08936

 Mulliken charges:
               1
     1  Mg   0.821480
     2  C   -0.045902
     3  C   -0.073677
     4  C   -0.043031
     5  C   -0.053393
     6  N   -0.298024
     7  C   -0.000729
     8  C   -0.050191
     9  C   -0.089688
    10  C    0.067859
    11  C    0.056625
    12  C    0.070818
    13  C    0.084615
    14  C    0.187688
    15  O   -0.263370
    16  O   -0.343880
    17  N   -0.393150
    18  C    0.151006
    19  C   -0.141419
    20  C   -0.057465
    21  C    0.122593
    22  C    0.089898
    23  C    0.009164
    24  O   -0.200528
    25  C    0.089616
    26  N   -0.286175
    27  C    0.045334
    28  C   -0.056804
    29  C   -0.002584
    30  C   -0.015329
    31  C    0.056260
    32  C    0.024476
    33  C    0.003679
    34  N   -0.359376
    35  C    0.152667
    36  C   -0.173826
    37  C    0.007184
    38  C    0.085446
    39  C    0.126489
    40  C    0.082757
    41  O   -0.183683
    42  C    0.042477
    43  C    0.155414
    44  O   -0.147785
    45  O   -0.341770
    46  C    0.168898
    47  C    0.262811
    48  C   -0.097419
    49  C   -0.223971
    50  C    0.088322
    51  C    0.029973
    52  C    0.081694
    53  C    0.013446
    54  C   -0.124504
    55  C    0.043002
    56  C    0.062177
    57  C    0.052010
    58  C    0.041046
    59  C   -0.184929
    60  C    0.079632
    61  C    0.078863
    62  C   -0.015775
    63  C    0.098749
    64  C   -0.172409
    65  C    0.028286
    66  C    0.048393
    67  H   -0.030095
    68  H    0.005922
    69  H   -0.027212
    70  H    0.013758
    71  H    0.010325
    72  H    0.016259
    73  H    0.019115
    74  H    0.020083
    75  H    0.002411
    76  H    0.020266
    77  H    0.014450
    78  H    0.032657
    79  H    0.024426
    80  H    0.028636
    81  H    0.023323
    82  H    0.026771
    83  H    0.036330
    84  H    0.036003
    85  H    0.008875
    86  H    0.003232
    87  H    0.016554
    88  H    0.013934
    89  H    0.019128
    90  H    0.003415
    91  H   -0.000254
    92  H    0.031091
    93  H    0.016506
    94  H    0.025029
    95  H    0.039378
    96  H    0.033599
    97  H    0.014941
    98  H    0.036921
    99  H    0.043473
   100  H    0.033774
   101  H    0.030806
   102  H    0.058624
   103  H    0.035541
   104  H    0.002962
   105  H    0.034987
   106  H    0.023315
   107  H    0.016135
   108  H   -0.005255
   109  H   -0.003476
   110  H   -0.008309
   111  H    0.010527
   112  H   -0.008508
   113  H    0.001695
   114  H   -0.009542
   115  H    0.008937
   116  H    0.006196
   117  H    0.000329
   118  H   -0.014978
   119  H   -0.022026
   120  H   -0.004990
   121  H   -0.004593
   122  H   -0.004427
   123  H   -0.033883
   124  H   -0.007416
   125  H    0.003115
   126  H   -0.001885
   127  H   -0.005747
   128  H   -0.014693
   129  H   -0.005960
   130  H    0.011521
   131  H   -0.012284
   132  H   -0.007081
   133  H    0.000937
   134  H    0.007809
   135  H    0.010468
   136  H    0.016226
   137  H   -0.005500
   138  H    0.019154
   139  H   -0.006833
   140  H    0.005011
 Sum of Mulliken charges =  -0.00000

 Dipole moment (field-independent basis, Debye):
    X=             -2.1519    Y=              4.6476    Z=             -2.5693  Tot=              5.7299
 Quadrupole moment (field-independent basis, Debye-Ang):
   XX=           -388.3705   YY=           -428.5005   ZZ=           -400.3010
   XY=             16.0698   XZ=             18.3835   YZ=             -0.9334

 Normal termination of Gaussian 16 at Wed May  4 06:12:59 2022.
