 Gaussian 16, Revision A.03,
 Gaussian 16:  ES64L-G16RevA.03 25-Dec-2016

 ---------------------------------
 #p PBE1PBE/Def2SVP td=(nstates=5)
 ---------------------------------

 ------------------------------------------------------
 step_1451_chromophore_10 TDDFT with PBE1PBE functional
 ------------------------------------------------------
 Symbolic Z-matrix:
 Charge =  0 Multiplicity = 1

                         Standard orientation:
 ---------------------------------------------------------------------
 Center     Atomic      Atomic             Coordinates (Angstroms)
 Number     Number       Type             X           Y           Z
 ---------------------------------------------------------------------
      1         12           0        5.704520    0.430188   -0.008995
      2          6           0        3.346590   -2.168968    0.314956
      3          6           0        3.468153    2.214663   -2.014571
      4          6           0        8.102870    2.903729   -0.418083
      5          6           0        7.933219   -1.443488    1.924155
      6          7           0        3.670404    0.117610   -0.674914
      7          6           0        2.914788   -1.003268   -0.361822
      8          6           0        1.440842   -0.831563   -0.825331
      9          6           0        1.521350    0.412554   -1.794739
     10          6           0        2.990361    0.982895   -1.493154
     11          6           0        1.204595   -0.001115   -3.272916
     12          6           0        0.505623   -0.482433    0.337777
     13          6           0       -0.968064   -0.391499   -0.047560
     14          6           0       -1.931891   -1.420855    0.551503
     15          8           0       -2.221660   -1.663455    1.756753
     16          8           0       -2.497172   -2.200550   -0.454054
     17          7           0        5.744548    2.282270   -1.009484
     18          6           0        4.725335    2.863711   -1.743865
     19          6           0        5.049953    4.192785   -2.138549
     20          6           0        6.346303    4.454739   -1.670436
     21          6           0        6.829886    3.197403   -1.024588
     22          6           0        4.154177    5.018667   -3.038555
     23          6           0        7.053259    5.871212   -1.688015
     24          8           0        8.200463    6.038836   -1.299143
     25          6           0        6.283055    6.980203   -2.012970
     26          7           0        7.741533    0.645470    0.622483
     27          6           0        8.452316    1.790547    0.316697
     28          6           0        9.845656    1.674585    0.937080
     29          6           0        9.731522    0.449248    1.920580
     30          6           0        8.367814   -0.167280    1.492777
     31          6           0       10.916763    1.588615   -0.206999
     32          6           0        9.761789    0.862756    3.429383
     33          6           0        8.553638    1.725382    3.940821
     34          7           0        5.749125   -1.483035    0.812605
     35          6           0        6.722837   -2.120764    1.558914
     36          6           0        6.334880   -3.475872    1.778328
     37          6           0        4.961778   -3.509932    1.432994
     38          6           0        4.661123   -2.301916    0.783412
     39          6           0        7.162092   -4.576136    2.458381
     40          6           0        3.775199   -4.343052    1.337567
     41          8           0        3.603793   -5.545914    1.611233
     42          6           0        2.654149   -3.495386    0.607005
     43          6           0        2.053865   -4.239502   -0.548722
     44          8           0        2.637375   -5.029208   -1.199653
     45          8           0        0.702979   -4.014775   -0.661588
     46          6           0        0.029926   -4.590270   -1.819637
     47          6           0       -3.481730   -3.198164    0.007111
     48          6           0       -4.805308   -3.139009   -0.839596
     49          6           0       -5.823943   -4.104097   -0.844423
     50          6           0       -5.962547   -5.388224    0.000932
     51          6           0       -7.066246   -3.911997   -1.798340
     52          6           0       -8.279660   -3.163649   -1.285468
     53          6           0       -8.032691   -1.650355   -1.301905
     54          6           0       -9.245208   -0.870611   -1.963639
     55          6           0       -9.261882   -0.997617   -3.477872
     56          6           0       -9.230393    0.607430   -1.582781
     57          6           0       -9.829813    0.943570   -0.287430
     58          6           0      -10.998082    1.919356   -0.421334
     59          6           0      -12.407650    1.290128   -0.035875
     60          6           0      -12.826524    0.599205   -1.247727
     61          6           0      -13.409655    2.324037    0.579888
     62          6           0      -13.145689    2.405681    2.070802
     63          6           0      -13.189977    3.804935    2.640224
     64          6           0      -11.819409    4.184504    3.272457
     65          6           0      -11.824386    4.061718    4.867315
     66          6           0      -11.457668    5.681879    2.997880
     67          1           0        2.734052    2.785685   -2.585321
     68          1           0        8.858596    3.685442   -0.312189
     69          1           0        8.749952   -1.907401    2.480218
     70          1           0        1.048961   -1.648138   -1.432690
     71          1           0        0.752653    1.137716   -1.529701
     72          1           0        0.195962    0.360565   -3.474583
     73          1           0        1.165770   -1.074586   -3.454463
     74          1           0        1.936449    0.411711   -3.966763
     75          1           0        0.882534    0.447959    0.763051
     76          1           0        0.600388   -1.187897    1.164310
     77          1           0       -1.046294   -0.346896   -1.132950
     78          1           0       -1.335652    0.588151    0.259301
     79          1           0        3.418027    4.447838   -3.604516
     80          1           0        4.589902    5.619788   -3.836001
     81          1           0        3.624656    5.695587   -2.368496
     82          1           0        5.974122    6.963639   -3.057973
     83          1           0        6.918783    7.856956   -1.885143
     84          1           0        5.356362    6.893548   -1.446308
     85          1           0       10.056018    2.562078    1.533324
     86          1           0       10.560145   -0.214213    1.672454
     87          1           0       10.998174    0.554901   -0.544776
     88          1           0       11.875830    2.026428    0.071273
     89          1           0       10.731086    2.178555   -1.104739
     90          1           0       10.673590    1.426734    3.626063
     91          1           0        9.980788   -0.057482    3.970721
     92          1           0        8.594979    2.710073    3.475182
     93          1           0        8.453806    1.811082    5.022473
     94          1           0        7.652025    1.148230    3.738606
     95          1           0        7.457332   -5.288395    1.687677
     96          1           0        6.501502   -5.103806    3.146631
     97          1           0        8.000906   -4.182913    3.033335
     98          1           0        1.791784   -3.179692    1.195085
     99          1           0        0.527929   -5.377926   -2.385324
    100          1           0       -0.298954   -3.892579   -2.589927
    101          1           0       -0.837983   -5.100785   -1.402359
    102          1           0       -3.815320   -3.055710    1.035452
    103          1           0       -2.999709   -4.172619   -0.069735
    104          1           0       -4.963796   -2.358193   -1.583380
    105          1           0       -6.516348   -5.070239    0.884412
    106          1           0       -4.979281   -5.793462    0.240070
    107          1           0       -6.575592   -6.116419   -0.531186
    108          1           0       -7.329709   -4.902360   -2.170173
    109          1           0       -6.734991   -3.315523   -2.647278
    110          1           0       -8.387977   -3.408772   -0.229102
    111          1           0       -9.146785   -3.473607   -1.869342
    112          1           0       -7.219638   -1.303665   -1.939657
    113          1           0       -7.740306   -1.354172   -0.295274
    114          1           0      -10.152507   -1.358180   -1.607704
    115          1           0       -8.655742   -0.201510   -3.909116
    116          1           0      -10.227648   -0.845143   -3.960452
    117          1           0       -8.986890   -2.017885   -3.746470
    118          1           0       -9.601337    1.232115   -2.395105
    119          1           0       -8.220250    0.986639   -1.423293
    120          1           0       -9.072664    1.394028    0.355080
    121          1           0      -10.222047    0.021493    0.142509
    122          1           0      -10.971926    2.415673   -1.391783
    123          1           0      -10.828416    2.723512    0.295096
    124          1           0      -12.341574    0.483351    0.694645
    125          1           0      -13.010512   -0.451266   -1.023170
    126          1           0      -12.125340    0.608719   -2.082287
    127          1           0      -13.674968    1.130460   -1.678472
    128          1           0      -14.387365    1.858842    0.453499
    129          1           0      -13.340296    3.306175    0.111914
    130          1           0      -12.237980    1.827227    2.244966
    131          1           0      -13.965584    1.789886    2.441863
    132          1           0      -13.904855    3.647130    3.447357
    133          1           0      -13.436703    4.575747    1.910687
    134          1           0      -11.066461    3.546893    2.808738
    135          1           0      -12.320392    4.861727    5.417758
    136          1           0      -10.806311    3.907192    5.225603
    137          1           0      -12.450277    3.226709    5.180295
    138          1           0      -11.736615    6.351683    3.811817
    139          1           0      -11.938778    6.010301    2.076237
    140          1           0      -10.394740    5.650640    2.761990
 ---------------------------------------------------------------------

 SCF Done:  E(RPBE1PBE) =  -3005.35406788     A.U. after   15 cycles

 Excitation energies and oscillator strengths:

 Excited State   1:      Singlet-A      1.8566 eV  667.82 nm  f=0.3689  <S**2>=0.000
     245 -> 248        0.18021
     246 -> 247        0.69244
     246 <- 247       -0.10963
 This state for optimization and/or second-order correction.
 Total Energy, E(TD-HF/TD-DFT) =  -3005.28584071
 Copying the excited state density for this state as the 1-particle RhoCI density.

 Excited State   2:      Singlet-A      2.2153 eV  559.67 nm  f=0.1208  <S**2>=0.000
     245 -> 247        0.65175
     246 -> 248       -0.26280

 Excited State   3:      Singlet-A      2.8442 eV  435.91 nm  f=0.0014  <S**2>=0.000
     241 -> 247        0.12262
     242 -> 247        0.36150
     242 -> 249       -0.12817
     243 -> 247        0.56335

 Excited State   4:      Singlet-A      2.9546 eV  419.63 nm  f=0.0006  <S**2>=0.000
     242 -> 247        0.57705
     243 -> 247       -0.38402

 Excited State   5:      Singlet-A      3.1031 eV  399.55 nm  f=0.0035  <S**2>=0.000
     241 -> 247        0.66859
     243 -> 247       -0.12214
     246 -> 248       -0.11704

 The electronic state is 1-A.
 Alpha  occ. eigenvalues --  -46.91774 -19.26113 -19.25933 -19.20392 -19.19800
 Alpha  occ. eigenvalues --  -19.19239 -19.18757 -14.42746 -14.41543 -14.39891
 Alpha  occ. eigenvalues --  -14.38904 -10.37542 -10.35945 -10.32139 -10.32138
 Alpha  occ. eigenvalues --  -10.29954 -10.29768 -10.29754 -10.29200 -10.28917
 Alpha  occ. eigenvalues --  -10.28856 -10.28517 -10.28096 -10.27865 -10.26587
 Alpha  occ. eigenvalues --  -10.26470 -10.26422 -10.26235 -10.26151 -10.26147
 Alpha  occ. eigenvalues --  -10.25930 -10.25887 -10.25851 -10.25687 -10.25607
 Alpha  occ. eigenvalues --  -10.25594 -10.25375 -10.25183 -10.25152 -10.25090
 Alpha  occ. eigenvalues --  -10.24628 -10.24588 -10.24452 -10.24055 -10.23727
 Alpha  occ. eigenvalues --  -10.23563 -10.23539 -10.23408 -10.23294 -10.23259
 Alpha  occ. eigenvalues --  -10.23257 -10.23141 -10.23071 -10.22890 -10.22494
 Alpha  occ. eigenvalues --  -10.22485 -10.21973 -10.21954 -10.21947 -10.21772
 Alpha  occ. eigenvalues --  -10.21723 -10.21485 -10.21372 -10.21331 -10.21229
 Alpha  occ. eigenvalues --  -10.20692  -3.13861  -1.86731  -1.86211  -1.86103
 Alpha  occ. eigenvalues --   -1.12185  -1.10106  -1.05231  -1.03978  -1.02630
 Alpha  occ. eigenvalues --   -1.00808  -0.98607  -0.97740  -0.97383  -0.96288
 Alpha  occ. eigenvalues --   -0.87100  -0.85008  -0.84689  -0.83872  -0.83056
 Alpha  occ. eigenvalues --   -0.82611  -0.82299  -0.81947  -0.81284  -0.81220
 Alpha  occ. eigenvalues --   -0.80246  -0.79789  -0.78781  -0.78309  -0.77985
 Alpha  occ. eigenvalues --   -0.76996  -0.76680  -0.75791  -0.75459  -0.75072
 Alpha  occ. eigenvalues --   -0.74402  -0.72730  -0.72357  -0.71647  -0.70680
 Alpha  occ. eigenvalues --   -0.69730  -0.69497  -0.68934  -0.68796  -0.68600
 Alpha  occ. eigenvalues --   -0.67836  -0.67176  -0.66111  -0.64880  -0.64323
 Alpha  occ. eigenvalues --   -0.63138  -0.61747  -0.61392  -0.60328  -0.59914
 Alpha  occ. eigenvalues --   -0.59518  -0.59285  -0.59086  -0.58894  -0.58145
 Alpha  occ. eigenvalues --   -0.57591  -0.57458  -0.57307  -0.56687  -0.54751
 Alpha  occ. eigenvalues --   -0.54628  -0.54170  -0.53454  -0.53226  -0.52446
 Alpha  occ. eigenvalues --   -0.52213  -0.52005  -0.50982  -0.50352  -0.49862
 Alpha  occ. eigenvalues --   -0.49788  -0.49615  -0.49318  -0.49066  -0.48783
 Alpha  occ. eigenvalues --   -0.48635  -0.48352  -0.48161  -0.47903  -0.47466
 Alpha  occ. eigenvalues --   -0.47164  -0.47053  -0.46643  -0.46620  -0.46427
 Alpha  occ. eigenvalues --   -0.46255  -0.46059  -0.45718  -0.45600  -0.45403
 Alpha  occ. eigenvalues --   -0.45164  -0.44692  -0.44553  -0.44445  -0.44350
 Alpha  occ. eigenvalues --   -0.44041  -0.43914  -0.43745  -0.43636  -0.43478
 Alpha  occ. eigenvalues --   -0.43245  -0.42954  -0.42829  -0.42622  -0.42522
 Alpha  occ. eigenvalues --   -0.41984  -0.41849  -0.41602  -0.41425  -0.41342
 Alpha  occ. eigenvalues --   -0.41208  -0.41073  -0.41009  -0.40788  -0.40576
 Alpha  occ. eigenvalues --   -0.40193  -0.40105  -0.40049  -0.39943  -0.39863
 Alpha  occ. eigenvalues --   -0.39701  -0.39315  -0.39225  -0.39048  -0.38709
 Alpha  occ. eigenvalues --   -0.38608  -0.38413  -0.38253  -0.37940  -0.37846
 Alpha  occ. eigenvalues --   -0.37547  -0.37336  -0.37195  -0.37111  -0.36986
 Alpha  occ. eigenvalues --   -0.36587  -0.36536  -0.36231  -0.36146  -0.35995
 Alpha  occ. eigenvalues --   -0.35831  -0.35593  -0.35490  -0.35096  -0.34960
 Alpha  occ. eigenvalues --   -0.34808  -0.34426  -0.34076  -0.33786  -0.33700
 Alpha  occ. eigenvalues --   -0.33440  -0.33185  -0.33084  -0.32566  -0.32338
 Alpha  occ. eigenvalues --   -0.32251  -0.31969  -0.31713  -0.31695  -0.31102
 Alpha  occ. eigenvalues --   -0.30587  -0.30384  -0.29909  -0.29581  -0.29186
 Alpha  occ. eigenvalues --   -0.29174  -0.28413  -0.28269  -0.27347  -0.26406
 Alpha  occ. eigenvalues --   -0.25952  -0.25609  -0.25156  -0.24509  -0.21327
 Alpha  occ. eigenvalues --   -0.19203
 Alpha virt. eigenvalues --   -0.11636  -0.05570  -0.03897  -0.02044  -0.01002
 Alpha virt. eigenvalues --    0.00571   0.00632   0.01039   0.01365   0.02562
 Alpha virt. eigenvalues --    0.03227   0.04356   0.04839   0.05356   0.05545

 Mulliken charges:
               1
     1  Mg   0.973250
     2  C   -0.046870
     3  C   -0.065527
     4  C   -0.029626
     5  C   -0.044996
     6  N   -0.405918
     7  C    0.066381
     8  C   -0.127886
     9  C   -0.160325
    10  C    0.105147
    11  C    0.000207
    12  C    0.021966
    13  C    0.007334
    14  C    0.252863
    15  O   -0.296148
    16  O   -0.372878
    17  N   -0.503381
    18  C    0.173021
    19  C   -0.172233
    20  C   -0.101031
    21  C    0.150417
    22  C    0.029769
    23  C    0.066658
    24  O   -0.239475
    25  C    0.009844
    26  N   -0.394232
    27  C    0.071147
    28  C   -0.130461
    29  C   -0.078947
    30  C    0.026289
    31  C    0.000223
    32  C   -0.037256
    33  C   -0.069777
    34  N   -0.484594
    35  C    0.170531
    36  C   -0.184947
    37  C   -0.044289
    38  C    0.139485
    39  C    0.070798
    40  C    0.174696
    41  O   -0.228040
    42  C   -0.074185
    43  C    0.252265
    44  O   -0.185201
    45  O   -0.375616
    46  C    0.113642
    47  C    0.224852
    48  C   -0.117881
    49  C   -0.254935
    50  C    0.023418
    51  C   -0.036605
    52  C    0.012190
    53  C   -0.031532
    54  C   -0.217083
    55  C   -0.017187
    56  C    0.008205
    57  C   -0.003791
    58  C   -0.022286
    59  C   -0.272690
    60  C    0.024132
    61  C    0.023125
    62  C   -0.076550
    63  C    0.041286
    64  C   -0.264145
    65  C   -0.032590
    66  C   -0.011779
    67  H    0.001654
    68  H    0.035932
    69  H    0.004837
    70  H    0.057334
    71  H    0.047119
    72  H    0.042570
    73  H    0.045439
    74  H    0.047681
    75  H    0.035765
    76  H    0.053960
    77  H    0.047848
    78  H    0.065047
    79  H    0.050419
    80  H    0.055247
    81  H    0.052422
    82  H    0.054693
    83  H    0.063298
    84  H    0.064035
    85  H    0.045606
    86  H    0.039789
    87  H    0.044224
    88  H    0.041750
    89  H    0.046750
    90  H    0.037468
    91  H    0.032264
    92  H    0.058288
    93  H    0.045037
    94  H    0.054562
    95  H    0.067508
    96  H    0.061155
    97  H    0.041843
    98  H    0.077272
    99  H    0.064624
   100  H    0.054334
   101  H    0.053640
   102  H    0.085038
   103  H    0.062811
   104  H    0.032763
   105  H    0.062944
   106  H    0.050523
   107  H    0.042310
   108  H    0.027209
   109  H    0.030337
   110  H    0.027236
   111  H    0.041061
   112  H    0.023449
   113  H    0.033261
   114  H    0.029090
   115  H    0.036272
   116  H    0.034560
   117  H    0.029045
   118  H    0.015746
   119  H    0.011511
   120  H    0.027248
   121  H    0.028241
   122  H    0.027659
   123  H    0.004150
   124  H    0.029593
   125  H    0.029620
   126  H    0.028247
   127  H    0.022309
   128  H    0.019861
   129  H    0.025725
   130  H    0.042959
   131  H    0.021628
   132  H    0.026449
   133  H    0.031192
   134  H    0.044531
   135  H    0.036927
   136  H    0.044360
   137  H    0.022747
   138  H    0.045453
   139  H    0.020844
   140  H    0.033426
 Sum of Mulliken charges =  -0.00000

 Dipole moment (field-independent basis, Debye):
    X=             -2.1158    Y=              4.5464    Z=             -2.4720  Tot=              5.5908
 Quadrupole moment (field-independent basis, Debye-Ang):
   XX=           -382.6654   YY=           -425.7710   ZZ=           -397.4403
   XY=             15.6300   XZ=             19.9005   YZ=             -1.1274

 Normal termination of Gaussian 16 at Wed May  4 06:33:18 2022.
