 Gaussian 16, Revision A.03,
 Gaussian 16:  ES64L-G16RevA.03 25-Dec-2016

 --------------------------------
 #p wB97XD/Def2SVP td=(nstates=5)
 --------------------------------

 -----------------------------------------------------
 step_1451_chromophore_10 TDDFT with wB97XD functional
 -----------------------------------------------------
 Symbolic Z-matrix:
 Charge =  0 Multiplicity = 1

                         Standard orientation:
 ---------------------------------------------------------------------
 Center     Atomic      Atomic             Coordinates (Angstroms)
 Number     Number       Type             X           Y           Z
 ---------------------------------------------------------------------
      1         12           0        5.704520    0.430188   -0.008995
      2          6           0        3.346590   -2.168968    0.314956
      3          6           0        3.468153    2.214663   -2.014571
      4          6           0        8.102870    2.903729   -0.418083
      5          6           0        7.933219   -1.443488    1.924155
      6          7           0        3.670404    0.117610   -0.674914
      7          6           0        2.914788   -1.003268   -0.361822
      8          6           0        1.440842   -0.831563   -0.825331
      9          6           0        1.521350    0.412554   -1.794739
     10          6           0        2.990361    0.982895   -1.493154
     11          6           0        1.204595   -0.001115   -3.272916
     12          6           0        0.505623   -0.482433    0.337777
     13          6           0       -0.968064   -0.391499   -0.047560
     14          6           0       -1.931891   -1.420855    0.551503
     15          8           0       -2.221660   -1.663455    1.756753
     16          8           0       -2.497172   -2.200550   -0.454054
     17          7           0        5.744548    2.282270   -1.009484
     18          6           0        4.725335    2.863711   -1.743865
     19          6           0        5.049953    4.192785   -2.138549
     20          6           0        6.346303    4.454739   -1.670436
     21          6           0        6.829886    3.197403   -1.024588
     22          6           0        4.154177    5.018667   -3.038555
     23          6           0        7.053259    5.871212   -1.688015
     24          8           0        8.200463    6.038836   -1.299143
     25          6           0        6.283055    6.980203   -2.012970
     26          7           0        7.741533    0.645470    0.622483
     27          6           0        8.452316    1.790547    0.316697
     28          6           0        9.845656    1.674585    0.937080
     29          6           0        9.731522    0.449248    1.920580
     30          6           0        8.367814   -0.167280    1.492777
     31          6           0       10.916763    1.588615   -0.206999
     32          6           0        9.761789    0.862756    3.429383
     33          6           0        8.553638    1.725382    3.940821
     34          7           0        5.749125   -1.483035    0.812605
     35          6           0        6.722837   -2.120764    1.558914
     36          6           0        6.334880   -3.475872    1.778328
     37          6           0        4.961778   -3.509932    1.432994
     38          6           0        4.661123   -2.301916    0.783412
     39          6           0        7.162092   -4.576136    2.458381
     40          6           0        3.775199   -4.343052    1.337567
     41          8           0        3.603793   -5.545914    1.611233
     42          6           0        2.654149   -3.495386    0.607005
     43          6           0        2.053865   -4.239502   -0.548722
     44          8           0        2.637375   -5.029208   -1.199653
     45          8           0        0.702979   -4.014775   -0.661588
     46          6           0        0.029926   -4.590270   -1.819637
     47          6           0       -3.481730   -3.198164    0.007111
     48          6           0       -4.805308   -3.139009   -0.839596
     49          6           0       -5.823943   -4.104097   -0.844423
     50          6           0       -5.962547   -5.388224    0.000932
     51          6           0       -7.066246   -3.911997   -1.798340
     52          6           0       -8.279660   -3.163649   -1.285468
     53          6           0       -8.032691   -1.650355   -1.301905
     54          6           0       -9.245208   -0.870611   -1.963639
     55          6           0       -9.261882   -0.997617   -3.477872
     56          6           0       -9.230393    0.607430   -1.582781
     57          6           0       -9.829813    0.943570   -0.287430
     58          6           0      -10.998082    1.919356   -0.421334
     59          6           0      -12.407650    1.290128   -0.035875
     60          6           0      -12.826524    0.599205   -1.247727
     61          6           0      -13.409655    2.324037    0.579888
     62          6           0      -13.145689    2.405681    2.070802
     63          6           0      -13.189977    3.804935    2.640224
     64          6           0      -11.819409    4.184504    3.272457
     65          6           0      -11.824386    4.061718    4.867315
     66          6           0      -11.457668    5.681879    2.997880
     67          1           0        2.734052    2.785685   -2.585321
     68          1           0        8.858596    3.685442   -0.312189
     69          1           0        8.749952   -1.907401    2.480218
     70          1           0        1.048961   -1.648138   -1.432690
     71          1           0        0.752653    1.137716   -1.529701
     72          1           0        0.195962    0.360565   -3.474583
     73          1           0        1.165770   -1.074586   -3.454463
     74          1           0        1.936449    0.411711   -3.966763
     75          1           0        0.882534    0.447959    0.763051
     76          1           0        0.600388   -1.187897    1.164310
     77          1           0       -1.046294   -0.346896   -1.132950
     78          1           0       -1.335652    0.588151    0.259301
     79          1           0        3.418027    4.447838   -3.604516
     80          1           0        4.589902    5.619788   -3.836001
     81          1           0        3.624656    5.695587   -2.368496
     82          1           0        5.974122    6.963639   -3.057973
     83          1           0        6.918783    7.856956   -1.885143
     84          1           0        5.356362    6.893548   -1.446308
     85          1           0       10.056018    2.562078    1.533324
     86          1           0       10.560145   -0.214213    1.672454
     87          1           0       10.998174    0.554901   -0.544776
     88          1           0       11.875830    2.026428    0.071273
     89          1           0       10.731086    2.178555   -1.104739
     90          1           0       10.673590    1.426734    3.626063
     91          1           0        9.980788   -0.057482    3.970721
     92          1           0        8.594979    2.710073    3.475182
     93          1           0        8.453806    1.811082    5.022473
     94          1           0        7.652025    1.148230    3.738606
     95          1           0        7.457332   -5.288395    1.687677
     96          1           0        6.501502   -5.103806    3.146631
     97          1           0        8.000906   -4.182913    3.033335
     98          1           0        1.791784   -3.179692    1.195085
     99          1           0        0.527929   -5.377926   -2.385324
    100          1           0       -0.298954   -3.892579   -2.589927
    101          1           0       -0.837983   -5.100785   -1.402359
    102          1           0       -3.815320   -3.055710    1.035452
    103          1           0       -2.999709   -4.172619   -0.069735
    104          1           0       -4.963796   -2.358193   -1.583380
    105          1           0       -6.516348   -5.070239    0.884412
    106          1           0       -4.979281   -5.793462    0.240070
    107          1           0       -6.575592   -6.116419   -0.531186
    108          1           0       -7.329709   -4.902360   -2.170173
    109          1           0       -6.734991   -3.315523   -2.647278
    110          1           0       -8.387977   -3.408772   -0.229102
    111          1           0       -9.146785   -3.473607   -1.869342
    112          1           0       -7.219638   -1.303665   -1.939657
    113          1           0       -7.740306   -1.354172   -0.295274
    114          1           0      -10.152507   -1.358180   -1.607704
    115          1           0       -8.655742   -0.201510   -3.909116
    116          1           0      -10.227648   -0.845143   -3.960452
    117          1           0       -8.986890   -2.017885   -3.746470
    118          1           0       -9.601337    1.232115   -2.395105
    119          1           0       -8.220250    0.986639   -1.423293
    120          1           0       -9.072664    1.394028    0.355080
    121          1           0      -10.222047    0.021493    0.142509
    122          1           0      -10.971926    2.415673   -1.391783
    123          1           0      -10.828416    2.723512    0.295096
    124          1           0      -12.341574    0.483351    0.694645
    125          1           0      -13.010512   -0.451266   -1.023170
    126          1           0      -12.125340    0.608719   -2.082287
    127          1           0      -13.674968    1.130460   -1.678472
    128          1           0      -14.387365    1.858842    0.453499
    129          1           0      -13.340296    3.306175    0.111914
    130          1           0      -12.237980    1.827227    2.244966
    131          1           0      -13.965584    1.789886    2.441863
    132          1           0      -13.904855    3.647130    3.447357
    133          1           0      -13.436703    4.575747    1.910687
    134          1           0      -11.066461    3.546893    2.808738
    135          1           0      -12.320392    4.861727    5.417758
    136          1           0      -10.806311    3.907192    5.225603
    137          1           0      -12.450277    3.226709    5.180295
    138          1           0      -11.736615    6.351683    3.811817
    139          1           0      -11.938778    6.010301    2.076237
    140          1           0      -10.394740    5.650640    2.761990
 ---------------------------------------------------------------------

 SCF Done:  E(RwB97XD) =  -3007.86555295     A.U. after   17 cycles

 Excitation energies and oscillator strengths:

 Excited State   1:      Singlet-A      1.6265 eV  762.30 nm  f=0.3809  <S**2>=0.000
     245 -> 248       -0.19033
     246 -> 247        0.68341
     245 <- 248       -0.12089
 This state for optimization and/or second-order correction.
 Total Energy, E(TD-HF/TD-DFT) =  -3007.80578175
 Copying the excited state density for this state as the 1-particle RhoCI density.

 Excited State   2:      Singlet-A      2.1457 eV  577.82 nm  f=0.1208  <S**2>=0.000
     245 -> 247        0.63883
     246 -> 248        0.29052

 Excited State   3:      Singlet-A      3.2786 eV  378.16 nm  f=0.0003  <S**2>=0.000
     241 -> 247        0.10123
     242 -> 247       -0.17969
     243 -> 247        0.65247

 Excited State   4:      Singlet-A      3.4114 eV  363.44 nm  f=0.0024  <S**2>=0.000
     241 -> 247        0.21396
     241 -> 249       -0.25787
     241 -> 250        0.14109
     242 -> 247        0.53881
     242 -> 249       -0.16022
     242 -> 250        0.10377

 Excited State   5:      Singlet-A      3.4623 eV  358.09 nm  f=0.1156  <S**2>=0.000
     241 -> 247        0.47604
     242 -> 247       -0.25221
     242 -> 249       -0.12236
     243 -> 247       -0.11959
     245 -> 247       -0.10526
     246 -> 248        0.37903

 The electronic state is 1-A.
 Alpha  occ. eigenvalues --  -46.94726 -19.30632 -19.30491 -19.25031 -19.24508
 Alpha  occ. eigenvalues --  -19.24113 -19.23541 -14.47846 -14.46626 -14.44903
 Alpha  occ. eigenvalues --  -14.43801 -10.44313 -10.42757 -10.39034 -10.38982
 Alpha  occ. eigenvalues --  -10.36336 -10.36225 -10.36010 -10.35657 -10.35346
 Alpha  occ. eigenvalues --  -10.35134 -10.34880 -10.34557 -10.34089 -10.32851
 Alpha  occ. eigenvalues --  -10.32774 -10.32711 -10.32703 -10.32645 -10.32574
 Alpha  occ. eigenvalues --  -10.32293 -10.32136 -10.32077 -10.32067 -10.32046
 Alpha  occ. eigenvalues --  -10.32017 -10.31756 -10.31594 -10.31517 -10.31474
 Alpha  occ. eigenvalues --  -10.31072 -10.30869 -10.30833 -10.30467 -10.30167
 Alpha  occ. eigenvalues --  -10.29940 -10.29868 -10.29826 -10.29775 -10.29659
 Alpha  occ. eigenvalues --  -10.29586 -10.29513 -10.29330 -10.29274 -10.28871
 Alpha  occ. eigenvalues --  -10.28751 -10.28405 -10.28395 -10.28293 -10.28131
 Alpha  occ. eigenvalues --  -10.28078 -10.27900 -10.27753 -10.27691 -10.27606
 Alpha  occ. eigenvalues --  -10.27144  -3.20661  -1.94281  -1.93762  -1.93654
 Alpha  occ. eigenvalues --   -1.19561  -1.17468  -1.12773  -1.11334  -1.10088
 Alpha  occ. eigenvalues --   -1.08149  -1.05963  -1.05145  -1.04789  -1.03749
 Alpha  occ. eigenvalues --   -0.94704  -0.92674  -0.92336  -0.91541  -0.90755
 Alpha  occ. eigenvalues --   -0.90284  -0.89881  -0.89661  -0.88946  -0.88843
 Alpha  occ. eigenvalues --   -0.87837  -0.87441  -0.86452  -0.86057  -0.85600
 Alpha  occ. eigenvalues --   -0.84655  -0.84323  -0.83421  -0.83092  -0.82703
 Alpha  occ. eigenvalues --   -0.82050  -0.80445  -0.80006  -0.79251  -0.78291
 Alpha  occ. eigenvalues --   -0.77332  -0.77174  -0.76607  -0.76497  -0.76261
 Alpha  occ. eigenvalues --   -0.75419  -0.74756  -0.73660  -0.72506  -0.71877
 Alpha  occ. eigenvalues --   -0.70653  -0.69363  -0.68990  -0.67932  -0.67424
 Alpha  occ. eigenvalues --   -0.66997  -0.66797  -0.66707  -0.66361  -0.65837
 Alpha  occ. eigenvalues --   -0.65200  -0.64988  -0.64704  -0.64325  -0.62247
 Alpha  occ. eigenvalues --   -0.62121  -0.61554  -0.60939  -0.60656  -0.59856
 Alpha  occ. eigenvalues --   -0.59741  -0.59469  -0.58408  -0.57755  -0.57316
 Alpha  occ. eigenvalues --   -0.57179  -0.57045  -0.56722  -0.56505  -0.56163
 Alpha  occ. eigenvalues --   -0.56078  -0.55868  -0.55667  -0.55216  -0.54783
 Alpha  occ. eigenvalues --   -0.54559  -0.54435  -0.53992  -0.53973  -0.53764
 Alpha  occ. eigenvalues --   -0.53639  -0.53423  -0.53097  -0.53015  -0.52763
 Alpha  occ. eigenvalues --   -0.52468  -0.52121  -0.51909  -0.51755  -0.51675
 Alpha  occ. eigenvalues --   -0.51355  -0.51223  -0.51061  -0.50946  -0.50755
 Alpha  occ. eigenvalues --   -0.50565  -0.50250  -0.50187  -0.49887  -0.49807
 Alpha  occ. eigenvalues --   -0.49270  -0.49107  -0.48847  -0.48694  -0.48553
 Alpha  occ. eigenvalues --   -0.48425  -0.48305  -0.48214  -0.47951  -0.47781
 Alpha  occ. eigenvalues --   -0.47420  -0.47304  -0.47224  -0.47128  -0.47012
 Alpha  occ. eigenvalues --   -0.46892  -0.46469  -0.46434  -0.46195  -0.45807
 Alpha  occ. eigenvalues --   -0.45732  -0.45635  -0.45274  -0.45048  -0.44995
 Alpha  occ. eigenvalues --   -0.44635  -0.44479  -0.44360  -0.44242  -0.44107
 Alpha  occ. eigenvalues --   -0.43681  -0.43575  -0.43348  -0.43234  -0.43106
 Alpha  occ. eigenvalues --   -0.42915  -0.42687  -0.42505  -0.42200  -0.42064
 Alpha  occ. eigenvalues --   -0.41801  -0.41529  -0.41054  -0.40814  -0.40611
 Alpha  occ. eigenvalues --   -0.40536  -0.40140  -0.40126  -0.39635  -0.39407
 Alpha  occ. eigenvalues --   -0.39268  -0.38974  -0.38783  -0.38532  -0.38073
 Alpha  occ. eigenvalues --   -0.37531  -0.37356  -0.36909  -0.36431  -0.36254
 Alpha  occ. eigenvalues --   -0.36133  -0.35198  -0.35127  -0.33975  -0.33583
 Alpha  occ. eigenvalues --   -0.32770  -0.32544  -0.31717  -0.31256  -0.26317
 Alpha  occ. eigenvalues --   -0.23367
 Alpha virt. eigenvalues --   -0.07598  -0.00192   0.02408   0.04475   0.05854
 Alpha virt. eigenvalues --    0.06570   0.07319   0.07755   0.07916   0.08941
 Alpha virt. eigenvalues --    0.09720   0.11265   0.11641   0.12072   0.12333

 Mulliken charges:
               1
     1  Mg   0.960850
     2  C   -0.057111
     3  C   -0.082423
     4  C   -0.051619
     5  C   -0.062250
     6  N   -0.371702
     7  C    0.037560
     8  C   -0.088786
     9  C   -0.137637
    10  C    0.089350
    11  C    0.011279
    12  C    0.033689
    13  C    0.022543
    14  C    0.243954
    15  O   -0.293780
    16  O   -0.372815
    17  N   -0.473388
    18  C    0.167932
    19  C   -0.160250
    20  C   -0.096334
    21  C    0.143607
    22  C    0.040691
    23  C    0.062963
    24  O   -0.233014
    25  C    0.022702
    26  N   -0.359164
    27  C    0.064788
    28  C   -0.107433
    29  C   -0.053400
    30  C    0.009156
    31  C    0.009512
    32  C   -0.023982
    33  C   -0.049942
    34  N   -0.447309
    35  C    0.164085
    36  C   -0.184172
    37  C   -0.038300
    38  C    0.121504
    39  C    0.083343
    40  C    0.157116
    41  O   -0.218724
    42  C   -0.030625
    43  C    0.229069
    44  O   -0.180991
    45  O   -0.372896
    46  C    0.129507
    47  C    0.238823
    48  C   -0.123036
    49  C   -0.250074
    50  C    0.038515
    51  C   -0.008786
    52  C    0.026117
    53  C   -0.018760
    54  C   -0.179479
    55  C   -0.004324
    56  C    0.021353
    57  C    0.009250
    58  C    0.000893
    59  C   -0.236582
    60  C    0.032923
    61  C    0.034769
    62  C   -0.057943
    63  C    0.056321
    64  C   -0.234845
    65  C   -0.019311
    66  C    0.001742
    67  H   -0.004741
    68  H    0.032725
    69  H   -0.000523
    70  H    0.033100
    71  H    0.035771
    72  H    0.037131
    73  H    0.040393
    74  H    0.042050
    75  H    0.028019
    76  H    0.043886
    77  H    0.039317
    78  H    0.060347
    79  H    0.046881
    80  H    0.050650
    81  H    0.046776
    82  H    0.048496
    83  H    0.062946
    84  H    0.056584
    85  H    0.034573
    86  H    0.031405
    87  H    0.038067
    88  H    0.036748
    89  H    0.040478
    90  H    0.029021
    91  H    0.025066
    92  H    0.051202
    93  H    0.040489
    94  H    0.044183
    95  H    0.062628
    96  H    0.056430
    97  H    0.036366
    98  H    0.067487
    99  H    0.061160
   100  H    0.050611
   101  H    0.048909
   102  H    0.080187
   103  H    0.056862
   104  H    0.028687
   105  H    0.056669
   106  H    0.045310
   107  H    0.037198
   108  H    0.019785
   109  H    0.017795
   110  H    0.018404
   111  H    0.034086
   112  H    0.008500
   113  H    0.026332
   114  H    0.013471
   115  H    0.029450
   116  H    0.029203
   117  H    0.021386
   118  H    0.005141
   119  H    0.003460
   120  H    0.021610
   121  H    0.015225
   122  H    0.017776
   123  H   -0.009617
   124  H    0.015751
   125  H    0.025628
   126  H    0.016532
   127  H    0.016982
   128  H    0.011597
   129  H    0.016823
   130  H    0.029051
   131  H    0.014433
   132  H    0.018078
   133  H    0.021502
   134  H    0.031675
   135  H    0.030448
   136  H    0.039052
   137  H    0.015289
   138  H    0.039382
   139  H    0.013900
   140  H    0.027605
 Sum of Mulliken charges =  -0.00000

 Dipole moment (field-independent basis, Debye):
    X=             -2.1916    Y=              4.7735    Z=             -2.6092  Tot=              5.8649
 Quadrupole moment (field-independent basis, Debye-Ang):
   XX=           -383.7189   YY=           -424.1958   ZZ=           -396.9718
   XY=             16.8974   XZ=             19.1355   YZ=             -1.5139

 Normal termination of Gaussian 16 at Wed May  4 06:57:58 2022.
