 Gaussian 16, Revision A.03,
 Gaussian 16:  ES64L-G16RevA.03 25-Dec-2016

 --------------------
 #p ZINDO=(nstates=5)
 --------------------

 ------------------------------
 step_1451_chromophore_10 ZINDO
 ------------------------------
 Symbolic Z-matrix:
 Charge =  0 Multiplicity = 1

                         Standard orientation:
 ---------------------------------------------------------------------
 Center     Atomic      Atomic             Coordinates (Angstroms)
 Number     Number       Type             X           Y           Z
 ---------------------------------------------------------------------
      1         12           0        5.704520    0.430188   -0.008995
      2          6           0        3.346590   -2.168968    0.314956
      3          6           0        3.468153    2.214663   -2.014571
      4          6           0        8.102870    2.903729   -0.418083
      5          6           0        7.933219   -1.443488    1.924155
      6          7           0        3.670404    0.117610   -0.674914
      7          6           0        2.914788   -1.003268   -0.361822
      8          6           0        1.440842   -0.831563   -0.825331
      9          6           0        1.521350    0.412554   -1.794739
     10          6           0        2.990361    0.982895   -1.493154
     11          6           0        1.204595   -0.001115   -3.272916
     12          6           0        0.505623   -0.482433    0.337777
     13          6           0       -0.968064   -0.391499   -0.047560
     14          6           0       -1.931891   -1.420855    0.551503
     15          8           0       -2.221660   -1.663455    1.756753
     16          8           0       -2.497172   -2.200550   -0.454054
     17          7           0        5.744548    2.282270   -1.009484
     18          6           0        4.725335    2.863711   -1.743865
     19          6           0        5.049953    4.192785   -2.138549
     20          6           0        6.346303    4.454739   -1.670436
     21          6           0        6.829886    3.197403   -1.024588
     22          6           0        4.154177    5.018667   -3.038555
     23          6           0        7.053259    5.871212   -1.688015
     24          8           0        8.200463    6.038836   -1.299143
     25          6           0        6.283055    6.980203   -2.012970
     26          7           0        7.741533    0.645470    0.622483
     27          6           0        8.452316    1.790547    0.316697
     28          6           0        9.845656    1.674585    0.937080
     29          6           0        9.731522    0.449248    1.920580
     30          6           0        8.367814   -0.167280    1.492777
     31          6           0       10.916763    1.588615   -0.206999
     32          6           0        9.761789    0.862756    3.429383
     33          6           0        8.553638    1.725382    3.940821
     34          7           0        5.749125   -1.483035    0.812605
     35          6           0        6.722837   -2.120764    1.558914
     36          6           0        6.334880   -3.475872    1.778328
     37          6           0        4.961778   -3.509932    1.432994
     38          6           0        4.661123   -2.301916    0.783412
     39          6           0        7.162092   -4.576136    2.458381
     40          6           0        3.775199   -4.343052    1.337567
     41          8           0        3.603793   -5.545914    1.611233
     42          6           0        2.654149   -3.495386    0.607005
     43          6           0        2.053865   -4.239502   -0.548722
     44          8           0        2.637375   -5.029208   -1.199653
     45          8           0        0.702979   -4.014775   -0.661588
     46          6           0        0.029926   -4.590270   -1.819637
     47          6           0       -3.481730   -3.198164    0.007111
     48          6           0       -4.805308   -3.139009   -0.839596
     49          6           0       -5.823943   -4.104097   -0.844423
     50          6           0       -5.962547   -5.388224    0.000932
     51          6           0       -7.066246   -3.911997   -1.798340
     52          6           0       -8.279660   -3.163649   -1.285468
     53          6           0       -8.032691   -1.650355   -1.301905
     54          6           0       -9.245208   -0.870611   -1.963639
     55          6           0       -9.261882   -0.997617   -3.477872
     56          6           0       -9.230393    0.607430   -1.582781
     57          6           0       -9.829813    0.943570   -0.287430
     58          6           0      -10.998082    1.919356   -0.421334
     59          6           0      -12.407650    1.290128   -0.035875
     60          6           0      -12.826524    0.599205   -1.247727
     61          6           0      -13.409655    2.324037    0.579888
     62          6           0      -13.145689    2.405681    2.070802
     63          6           0      -13.189977    3.804935    2.640224
     64          6           0      -11.819409    4.184504    3.272457
     65          6           0      -11.824386    4.061718    4.867315
     66          6           0      -11.457668    5.681879    2.997880
     67          1           0        2.734052    2.785685   -2.585321
     68          1           0        8.858596    3.685442   -0.312189
     69          1           0        8.749952   -1.907401    2.480218
     70          1           0        1.048961   -1.648138   -1.432690
     71          1           0        0.752653    1.137716   -1.529701
     72          1           0        0.195962    0.360565   -3.474583
     73          1           0        1.165770   -1.074586   -3.454463
     74          1           0        1.936449    0.411711   -3.966763
     75          1           0        0.882534    0.447959    0.763051
     76          1           0        0.600388   -1.187897    1.164310
     77          1           0       -1.046294   -0.346896   -1.132950
     78          1           0       -1.335652    0.588151    0.259301
     79          1           0        3.418027    4.447838   -3.604516
     80          1           0        4.589902    5.619788   -3.836001
     81          1           0        3.624656    5.695587   -2.368496
     82          1           0        5.974122    6.963639   -3.057973
     83          1           0        6.918783    7.856956   -1.885143
     84          1           0        5.356362    6.893548   -1.446308
     85          1           0       10.056018    2.562078    1.533324
     86          1           0       10.560145   -0.214213    1.672454
     87          1           0       10.998174    0.554901   -0.544776
     88          1           0       11.875830    2.026428    0.071273
     89          1           0       10.731086    2.178555   -1.104739
     90          1           0       10.673590    1.426734    3.626063
     91          1           0        9.980788   -0.057482    3.970721
     92          1           0        8.594979    2.710073    3.475182
     93          1           0        8.453806    1.811082    5.022473
     94          1           0        7.652025    1.148230    3.738606
     95          1           0        7.457332   -5.288395    1.687677
     96          1           0        6.501502   -5.103806    3.146631
     97          1           0        8.000906   -4.182913    3.033335
     98          1           0        1.791784   -3.179692    1.195085
     99          1           0        0.527929   -5.377926   -2.385324
    100          1           0       -0.298954   -3.892579   -2.589927
    101          1           0       -0.837983   -5.100785   -1.402359
    102          1           0       -3.815320   -3.055710    1.035452
    103          1           0       -2.999709   -4.172619   -0.069735
    104          1           0       -4.963796   -2.358193   -1.583380
    105          1           0       -6.516348   -5.070239    0.884412
    106          1           0       -4.979281   -5.793462    0.240070
    107          1           0       -6.575592   -6.116419   -0.531186
    108          1           0       -7.329709   -4.902360   -2.170173
    109          1           0       -6.734991   -3.315523   -2.647278
    110          1           0       -8.387977   -3.408772   -0.229102
    111          1           0       -9.146785   -3.473607   -1.869342
    112          1           0       -7.219638   -1.303665   -1.939657
    113          1           0       -7.740306   -1.354172   -0.295274
    114          1           0      -10.152507   -1.358180   -1.607704
    115          1           0       -8.655742   -0.201510   -3.909116
    116          1           0      -10.227648   -0.845143   -3.960452
    117          1           0       -8.986890   -2.017885   -3.746470
    118          1           0       -9.601337    1.232115   -2.395105
    119          1           0       -8.220250    0.986639   -1.423293
    120          1           0       -9.072664    1.394028    0.355080
    121          1           0      -10.222047    0.021493    0.142509
    122          1           0      -10.971926    2.415673   -1.391783
    123          1           0      -10.828416    2.723512    0.295096
    124          1           0      -12.341574    0.483351    0.694645
    125          1           0      -13.010512   -0.451266   -1.023170
    126          1           0      -12.125340    0.608719   -2.082287
    127          1           0      -13.674968    1.130460   -1.678472
    128          1           0      -14.387365    1.858842    0.453499
    129          1           0      -13.340296    3.306175    0.111914
    130          1           0      -12.237980    1.827227    2.244966
    131          1           0      -13.965584    1.789886    2.441863
    132          1           0      -13.904855    3.647130    3.447357
    133          1           0      -13.436703    4.575747    1.910687
    134          1           0      -11.066461    3.546893    2.808738
    135          1           0      -12.320392    4.861727    5.417758
    136          1           0      -10.806311    3.907192    5.225603
    137          1           0      -12.450277    3.226709    5.180295
    138          1           0      -11.736615    6.351683    3.811817
    139          1           0      -11.938778    6.010301    2.076237
    140          1           0      -10.394740    5.650640    2.761990
 ---------------------------------------------------------------------

 SCF Done:  E(RZINDO/S) =  -474.086775584     A.U. after   21 cycles

 Excitation energies and oscillator strengths:

 Excited State   1:      Singlet-A      1.2329 eV 1005.60 nm  f=0.6285  <S**2>=0.000
     175 ->178        -0.19627
     176 ->177         0.66171
 This state for optimization and/or second-order correction.
 Total Energy, E(CIS/TDA) =  -474.041465753
 Copying the excited state density for this state as the 1-particle RhoCI density.

 Excited State   2:      Singlet-A      1.9243 eV  644.32 nm  f=0.0463  <S**2>=0.000
     175 ->177         0.54435
     176 ->178         0.42846

 Excited State   3:      Singlet-A      2.9275 eV  423.52 nm  f=0.0030  <S**2>=0.000
     168 ->179        -0.10027
     169 ->177         0.29892
     169 ->178        -0.13460
     169 ->179        -0.33792
     169 ->181         0.26066
     169 ->186        -0.17851
     169 ->199         0.11624
     170 ->177        -0.10946
     170 ->179         0.11626
     173 ->177         0.12718
     176 ->179        -0.10361

 Excited State   4:      Singlet-A      3.0293 eV  409.28 nm  f=1.0059  <S**2>=0.000
     175 ->177        -0.36354
     176 ->178         0.49418
     176 ->179         0.25171

 Excited State   5:      Singlet-A      3.0691 eV  403.97 nm  f=0.0003  <S**2>=0.000
     168 ->177         0.24767
     168 ->178        -0.10004
     168 ->179         0.32786
     168 ->181         0.39629
     168 ->186         0.24290
     168 ->187         0.16289
     169 ->181        -0.10234

 The electronic state is 1-A.
 Alpha  occ. eigenvalues --   -1.83679  -1.79657  -1.78067  -1.73148  -1.71286
 Alpha  occ. eigenvalues --   -1.69307  -1.68599  -1.62268  -1.61380  -1.57770
 Alpha  occ. eigenvalues --   -1.55320  -1.50008  -1.48837  -1.46267  -1.45596
 Alpha  occ. eigenvalues --   -1.44110  -1.42507  -1.40406  -1.39643  -1.38454
 Alpha  occ. eigenvalues --   -1.34859  -1.32861  -1.32199  -1.31722  -1.28660
 Alpha  occ. eigenvalues --   -1.28073  -1.24842  -1.23191  -1.20536  -1.18731
 Alpha  occ. eigenvalues --   -1.17083  -1.14839  -1.14571  -1.13680  -1.13061
 Alpha  occ. eigenvalues --   -1.12829  -1.10695  -1.10207  -1.05547  -1.04335
 Alpha  occ. eigenvalues --   -1.03285  -1.01012  -0.98558  -0.98028  -0.97011
 Alpha  occ. eigenvalues --   -0.95677  -0.94736  -0.93376  -0.92990  -0.90965
 Alpha  occ. eigenvalues --   -0.90568  -0.90481  -0.90055  -0.88057  -0.86436
 Alpha  occ. eigenvalues --   -0.85440  -0.83735  -0.83160  -0.81995  -0.80908
 Alpha  occ. eigenvalues --   -0.80804  -0.80247  -0.77232  -0.76815  -0.76382
 Alpha  occ. eigenvalues --   -0.76334  -0.75346  -0.74714  -0.73865  -0.73239
 Alpha  occ. eigenvalues --   -0.72897  -0.72687  -0.72455  -0.71706  -0.70864
 Alpha  occ. eigenvalues --   -0.70491  -0.70042  -0.69374  -0.68510  -0.67981
 Alpha  occ. eigenvalues --   -0.67392  -0.67229  -0.66683  -0.66395  -0.65933
 Alpha  occ. eigenvalues --   -0.65146  -0.64662  -0.64557  -0.63532  -0.63223
 Alpha  occ. eigenvalues --   -0.63028  -0.62694  -0.62618  -0.62272  -0.61689
 Alpha  occ. eigenvalues --   -0.61424  -0.61328  -0.61049  -0.60369  -0.60156
 Alpha  occ. eigenvalues --   -0.59798  -0.58962  -0.58771  -0.58607  -0.58549
 Alpha  occ. eigenvalues --   -0.58063  -0.57452  -0.56788  -0.56587  -0.56177
 Alpha  occ. eigenvalues --   -0.55801  -0.55576  -0.55419  -0.55261  -0.54973
 Alpha  occ. eigenvalues --   -0.53910  -0.53742  -0.53353  -0.52932  -0.52878
 Alpha  occ. eigenvalues --   -0.52734  -0.52669  -0.52095  -0.51904  -0.51738
 Alpha  occ. eigenvalues --   -0.51535  -0.51054  -0.50486  -0.50187  -0.50161
 Alpha  occ. eigenvalues --   -0.49787  -0.49650  -0.49559  -0.49315  -0.49029
 Alpha  occ. eigenvalues --   -0.48743  -0.48600  -0.48519  -0.48274  -0.48187
 Alpha  occ. eigenvalues --   -0.47592  -0.47279  -0.47075  -0.46666  -0.46503
 Alpha  occ. eigenvalues --   -0.46258  -0.46076  -0.45908  -0.45783  -0.45409
 Alpha  occ. eigenvalues --   -0.45206  -0.44847  -0.44640  -0.44337  -0.44183
 Alpha  occ. eigenvalues --   -0.43510  -0.43144  -0.42934  -0.42494  -0.41888
 Alpha  occ. eigenvalues --   -0.41805  -0.40949  -0.40691  -0.39318  -0.39172
 Alpha  occ. eigenvalues --   -0.38001  -0.37330  -0.35651  -0.35224  -0.34600
 Alpha  occ. eigenvalues --   -0.33658  -0.32948  -0.32549  -0.31499  -0.26996
 Alpha  occ. eigenvalues --   -0.22065
 Alpha virt. eigenvalues --   -0.08996  -0.02417  -0.00464   0.00811   0.01414
 Alpha virt. eigenvalues --    0.02528   0.03107   0.03287   0.04225   0.04268
 Alpha virt. eigenvalues --    0.05784   0.06203   0.06774   0.07324   0.07838

 Mulliken charges:
               1
     1  Mg   0.417982
     2  C   -0.037240
     3  C   -0.080514
     4  C   -0.057684
     5  C   -0.077153
     6  N   -0.269347
     7  C    0.113502
     8  C   -0.005009
     9  C   -0.010637
    10  C    0.120115
    11  C   -0.053040
    12  C   -0.010748
    13  C    0.014704
    14  C    0.467787
    15  O   -0.525905
    16  O   -0.269950
    17  N   -0.333750
    18  C    0.114014
    19  C    0.008314
    20  C   -0.050214
    21  C    0.124924
    22  C   -0.043678
    23  C    0.340011
    24  O   -0.528074
    25  C   -0.022108
    26  N   -0.268401
    27  C    0.140997
    28  C   -0.000532
    29  C    0.002706
    30  C    0.133413
    31  C   -0.052519
    32  C   -0.026280
    33  C   -0.054724
    34  N   -0.333616
    35  C    0.108583
    36  C    0.032718
    37  C   -0.047089
    38  C    0.113028
    39  C   -0.039799
    40  C    0.333386
    41  O   -0.513970
    42  C    0.056648
    43  C    0.489185
    44  O   -0.486133
    45  O   -0.276361
    46  C    0.073445
    47  C    0.106590
    48  C   -0.104793
    49  C   -0.023372
    50  C   -0.041204
    51  C   -0.025936
    52  C   -0.023597
    53  C   -0.036653
    54  C   -0.008570
    55  C   -0.057034
    56  C   -0.030488
    57  C   -0.029677
    58  C   -0.036010
    59  C   -0.015649
    60  C   -0.053656
    61  C   -0.037908
    62  C   -0.040611
    63  C   -0.035667
    64  C   -0.021113
    65  C   -0.061165
    66  C   -0.064341
    67  H    0.028339
    68  H    0.047254
    69  H    0.029660
    70  H    0.039815
    71  H    0.027218
    72  H    0.016393
    73  H    0.025020
    74  H    0.025026
    75  H    0.025150
    76  H    0.025377
    77  H    0.034310
    78  H    0.038216
    79  H    0.022040
    80  H    0.027657
    81  H    0.027530
    82  H    0.038786
    83  H    0.042826
    84  H    0.045087
    85  H    0.028092
    86  H    0.029850
    87  H    0.022993
    88  H    0.019024
    89  H    0.023841
    90  H    0.011076
    91  H    0.018969
    92  H    0.032188
    93  H    0.020472
    94  H    0.022281
    95  H    0.041060
    96  H    0.032297
    97  H    0.025787
    98  H    0.055216
    99  H    0.049661
   100  H    0.035949
   101  H    0.029491
   102  H    0.064315
   103  H    0.046627
   104  H    0.040753
   105  H    0.034437
   106  H    0.028775
   107  H    0.027146
   108  H    0.016044
   109  H    0.014436
   110  H    0.018343
   111  H    0.026586
   112  H    0.018004
   113  H    0.023032
   114  H    0.017586
   115  H    0.020559
   116  H    0.012751
   117  H    0.016178
   118  H    0.016661
   119  H    0.008961
   120  H    0.017627
   121  H    0.019124
   122  H    0.026427
   123  H   -0.001744
   124  H    0.021681
   125  H    0.014147
   126  H    0.012399
   127  H    0.012298
   128  H    0.015910
   129  H    0.025828
   130  H    0.025944
   131  H    0.009892
   132  H    0.022577
   133  H    0.032513
   134  H    0.029870
   135  H    0.024111
   136  H    0.020144
   137  H    0.008247
   138  H    0.029442
   139  H    0.011984
   140  H    0.016302
 Sum of Mulliken charges =  -0.00000

 Dipole moment (field-independent basis, Debye):
    X=             -3.5779    Y=              6.9764    Z=             -3.4807  Tot=              8.5783
 N-N= 4.291570401037D+03 E-N= 0.000000000000D+00  KE=-9.257100652551D+03
 Leave Link  601 at Wed May  4 07:10:36 2022, MaxMem=  6710886400 cpu:               1.0 elap:               0.1
 (Enter /sw/apps/gaussian-16.0/g16/l9999.exe)
 1\1\GINC-BP1-COMPUTE121\SP\RZINDO CIS\STO-3G\C55H74Mg1N4O6\OF15641\04-
 May-2022\0\\#p ZINDO=(nstates=5)\\step_1451_chromophore_10 ZINDO\\0,1\
 Mg,0,40.834,7.987,29.614\C,0,42.575,9.419,32.323\C,0,38.618,6.458,31.8
 41\C,0,39.231,6.484,26.929\C,0,43.138,9.465,27.441\N,0,40.572,8.01,31.
 761\C,0,41.388,8.714,32.635\C,0,40.818,8.682,34.081\C,0,39.732,7.538,3
 4.004\C,0,39.607,7.295,32.423\C,0,40.142,6.309,34.886\C,0,40.118,9.993
 ,34.456\C,0,39.619,10.048,35.897\C,0,40.264,11.067,36.842\O,0,40.317,1

 Normal termination of Gaussian 16 at Wed May  4 07:10:36 2022.
