 Gaussian 16, Revision A.03,
 Gaussian 16:  ES64L-G16RevA.03 25-Dec-2016

 ------------------------------
 #p blyp/Def2SVP td=(nstates=5)
 ------------------------------

 ---------------------------------------------------
 step_1351_chromophore_24 TDDFT with blyp functional
 ---------------------------------------------------
 Symbolic Z-matrix:
 Charge =  0 Multiplicity = 1

                         Standard orientation:
 ---------------------------------------------------------------------
 Center     Atomic      Atomic             Coordinates (Angstroms)
 Number     Number       Type             X           Y           Z
 ---------------------------------------------------------------------
      1         12           0        5.264804    1.048293    0.173536
      2          6           0        4.796411   -2.394086   -0.064302
      3          6           0        1.738315    1.368695    0.028444
      4          6           0        5.635935    4.474336   -0.037797
      5          6           0        8.587041    0.586533   -0.119706
      6          7           0        3.470898   -0.351466    0.181372
      7          6           0        3.541649   -1.728471    0.047387
      8          6           0        2.144547   -2.272279    0.127234
      9          6           0        1.189263   -1.097999   -0.127179
     10          6           0        2.143317    0.037847   -0.013682
     11          6           0        0.439198   -1.098294   -1.485386
     12          6           0        1.886240   -2.893127    1.514403
     13          6           0        0.597381   -3.714871    1.553155
     14          6           0       -0.163696   -4.033254    0.383927
     15          8           0        0.173850   -4.841613   -0.481959
     16          8           0       -1.454300   -3.494305    0.514271
     17          7           0        3.881752    2.668105    0.079468
     18          6           0        2.496420    2.589885    0.066586
     19          6           0        1.978062    3.942790    0.139969
     20          6           0        3.068365    4.866348   -0.036611
     21          6           0        4.272426    4.012597    0.026043
     22          6           0        0.530582    4.273727    0.209636
     23          6           0        3.155999    6.436519   -0.086202
     24          8           0        4.148189    7.097906   -0.288022
     25          6           0        1.797601    7.066277   -0.129832
     26          7           0        6.984819    2.296219    0.068062
     27          6           0        6.856308    3.653491   -0.046831
     28          6           0        8.244472    4.231009   -0.370548
     29          6           0        9.195666    3.026816   -0.056558
     30          6           0        8.201336    1.869313   -0.068247
     31          6           0        8.374347    4.657195   -1.891917
     32          6           0       10.098817    3.071447    1.234246
     33          6           0        9.350354    3.392120    2.519472
     34          7           0        6.434143   -0.511321   -0.054923
     35          6           0        7.815656   -0.580802   -0.057782
     36          6           0        8.236988   -1.943663   -0.272505
     37          6           0        7.123846   -2.710243   -0.236995
     38          6           0        6.071057   -1.814542   -0.050738
     39          6           0        9.593903   -2.442118   -0.598081
     40          6           0        6.559622   -4.082754   -0.348967
     41          8           0        7.047208   -5.176084   -0.635671
     42          6           0        4.995714   -3.871542   -0.124166
     43          6           0        4.381618   -4.434625   -1.361166
     44          8           0        4.136345   -3.821359   -2.386795
     45          8           0        3.969488   -5.717627   -0.998770
     46          6           0        3.021931   -6.326215   -1.889195
     47          6           0       -2.390919   -4.085430   -0.490441
     48          6           0       -3.658478   -3.215101   -0.268504
     49          6           0       -4.875438   -3.520644    0.329963
     50          6           0       -5.066561   -4.771928    1.069896
     51          6           0       -6.006458   -2.461239    0.447823
     52          6           0       -5.792821   -1.481282    1.693069
     53          6           0       -6.494549   -0.011326    1.583555
     54          6           0       -7.903419   -0.045293    2.225460
     55          6           0       -7.851968    0.490750    3.630024
     56          6           0       -8.937542    0.763207    1.420685
     57          6           0       -9.693516   -0.135328    0.415069
     58          6           0      -11.025257   -0.585365    1.056124
     59          6           0      -12.183640    0.479362    0.948433
     60          6           0      -12.688105    1.000190    2.285443
     61          6           0      -13.312014   -0.010371    0.029656
     62          6           0      -13.297062    0.619963   -1.364035
     63          6           0      -14.573940    1.381127   -1.750711
     64          6           0      -14.270358    2.672877   -2.614291
     65          6           0      -14.292217    4.010559   -1.805273
     66          6           0      -15.377810    2.796387   -3.662568
     67          1           0        0.659472    1.524745   -0.042157
     68          1           0        5.868494    5.537315   -0.131014
     69          1           0        9.657094    0.403449   -0.243015
     70          1           0        2.188743   -3.039471   -0.647180
     71          1           0        0.429528   -1.052576    0.652003
     72          1           0        0.654841   -2.005850   -2.049528
     73          1           0        0.758783   -0.290629   -2.143102
     74          1           0       -0.614993   -0.996451   -1.227417
     75          1           0        1.819692   -2.089045    2.247628
     76          1           0        2.711877   -3.541781    1.805826
     77          1           0       -0.067112   -3.392709    2.353901
     78          1           0        0.908788   -4.700949    1.896787
     79          1           0       -0.219209    3.492810    0.332680
     80          1           0        0.318184    4.753097   -0.745544
     81          1           0        0.205956    4.833592    1.086039
     82          1           0        1.290097    6.909304    0.822691
     83          1           0        1.218480    6.763425   -1.002257
     84          1           0        2.025254    8.115966   -0.314352
     85          1           0        8.511988    5.067728    0.275371
     86          1           0        9.914041    2.777793   -0.838031
     87          1           0        7.349628    4.943219   -2.132007
     88          1           0        8.737645    3.800082   -2.458816
     89          1           0        8.950436    5.581732   -1.939266
     90          1           0       10.871170    3.790082    0.959050
     91          1           0       10.446972    2.060253    1.445512
     92          1           0        9.983613    4.111805    3.037404
     93          1           0        9.236144    2.477170    3.100240
     94          1           0        8.361515    3.842509    2.435724
     95          1           0       10.327777   -1.668994   -0.822845
     96          1           0        9.387523   -3.127864   -1.419802
     97          1           0       10.042249   -3.115599    0.131920
     98          1           0        4.648956   -4.352804    0.790236
     99          1           0        2.041782   -5.867488   -1.758651
    100          1           0        2.913960   -7.390027   -1.676225
    101          1           0        3.356958   -6.292241   -2.925705
    102          1           0       -2.579207   -5.158657   -0.522783
    103          1           0       -2.057195   -3.915994   -1.514366
    104          1           0       -3.632881   -2.205462   -0.677579
    105          1           0       -5.942772   -5.232574    0.612794
    106          1           0       -5.322833   -4.529767    2.102263
    107          1           0       -4.233143   -5.466748    0.971404
    108          1           0       -6.987709   -2.925712    0.544436
    109          1           0       -6.160721   -1.982269   -0.518723
    110          1           0       -4.737567   -1.366537    1.938064
    111          1           0       -6.111712   -2.014721    2.588105
    112          1           0       -6.614148    0.234139    0.528735
    113          1           0       -5.860683    0.762329    2.017008
    114          1           0       -8.251511   -1.078661    2.225659
    115          1           0       -7.107237    1.250877    3.864437
    116          1           0       -7.552788   -0.300613    4.317840
    117          1           0       -8.805182    0.902824    3.961108
    118          1           0       -8.419841    1.521514    0.833714
    119          1           0       -9.646600    1.188914    2.131768
    120          1           0       -9.104369   -0.950689   -0.006059
    121          1           0       -9.777866    0.591976   -0.391980
    122          1           0      -10.939804   -0.843975    2.112457
    123          1           0      -11.108600   -1.575259    0.607364
    124          1           0      -11.729730    1.319508    0.423905
    125          1           0      -13.698229    1.409292    2.281322
    126          1           0      -11.992164    1.822960    2.453394
    127          1           0      -12.570946    0.306965    3.118418
    128          1           0      -14.235050    0.310412    0.512401
    129          1           0      -13.313191   -1.095887   -0.065099
    130          1           0      -13.270947   -0.141336   -2.143680
    131          1           0      -12.428220    1.270325   -1.463924
    132          1           0      -15.094724    1.698653   -0.847442
    133          1           0      -15.190379    0.757659   -2.397502
    134          1           0      -13.231709    2.582845   -2.934653
    135          1           0      -13.324090    4.468819   -2.010141
    136          1           0      -14.118266    3.772506   -0.756193
    137          1           0      -15.180717    4.633110   -1.906153
    138          1           0      -16.237072    2.133507   -3.555030
    139          1           0      -14.865309    2.475605   -4.569551
    140          1           0      -15.794105    3.787854   -3.839472
 ---------------------------------------------------------------------

 SCF Done:  E(RB-LYP) =  -3007.35829107     A.U. after   19 cycles

 Excitation energies and oscillator strengths:

 Excited State   1:      Singlet-A      1.8007 eV  688.52 nm  f=0.3048  <S**2>=0.000
     245 -> 248       -0.19619
     246 -> 247        0.68799
     246 <- 247       -0.14611
 This state for optimization and/or second-order correction.
 Total Energy, E(TD-HF/TD-DFT) =  -3007.29211487
 Copying the excited state density for this state as the 1-particle RhoCI density.

 Excited State   2:      Singlet-A      2.0125 eV  616.07 nm  f=0.0685  <S**2>=0.000
     245 -> 247        0.64987
     246 -> 248        0.24775

 Excited State   3:      Singlet-A      2.2083 eV  561.44 nm  f=0.0000  <S**2>=0.000
     244 -> 247        0.70621

 Excited State   4:      Singlet-A      2.2417 eV  553.07 nm  f=0.0021  <S**2>=0.000
     243 -> 247        0.70392

 Excited State   5:      Singlet-A      2.4479 eV  506.49 nm  f=0.0000  <S**2>=0.000
     241 -> 247        0.70260

 The electronic state is 1-A.
 Alpha  occ. eigenvalues --  -46.26193 -18.83199 -18.80975 -18.78268 -18.76957
 Alpha  occ. eigenvalues --  -18.76548 -18.76407 -14.02713 -14.02615 -14.00839
 Alpha  occ. eigenvalues --  -14.00654 -10.04844 -10.03491 -10.00575 -10.00191
 Alpha  occ. eigenvalues --   -9.98755  -9.96544  -9.96177  -9.95950  -9.95747
 Alpha  occ. eigenvalues --   -9.95745  -9.95577  -9.95144  -9.94919  -9.94256
 Alpha  occ. eigenvalues --   -9.94176  -9.93865  -9.93829  -9.93800  -9.93585
 Alpha  occ. eigenvalues --   -9.93535  -9.93470  -9.93261  -9.93250  -9.93090
 Alpha  occ. eigenvalues --   -9.92951  -9.92923  -9.92914  -9.92788  -9.92675
 Alpha  occ. eigenvalues --   -9.92590  -9.92576  -9.92509  -9.92358  -9.92332
 Alpha  occ. eigenvalues --   -9.92325  -9.92055  -9.92033  -9.92029  -9.92012
 Alpha  occ. eigenvalues --   -9.91984  -9.91726  -9.91609  -9.91494  -9.91423
 Alpha  occ. eigenvalues --   -9.91335  -9.91271  -9.91136  -9.90940  -9.90799
 Alpha  occ. eigenvalues --   -9.90754  -9.90745  -9.90679  -9.90650  -9.90580
 Alpha  occ. eigenvalues --   -9.90502  -2.90932  -1.71367  -1.70792  -1.70666
 Alpha  occ. eigenvalues --   -0.97822  -0.96682  -0.92651  -0.91357  -0.90525
 Alpha  occ. eigenvalues --   -0.89939  -0.87293  -0.86360  -0.84952  -0.83424
 Alpha  occ. eigenvalues --   -0.75530  -0.74126  -0.73744  -0.72940  -0.72284
 Alpha  occ. eigenvalues --   -0.71674  -0.71365  -0.71181  -0.70950  -0.70499
 Alpha  occ. eigenvalues --   -0.69954  -0.69452  -0.67860  -0.67389  -0.67087
 Alpha  occ. eigenvalues --   -0.66230  -0.65722  -0.65395  -0.65008  -0.64610
 Alpha  occ. eigenvalues --   -0.63860  -0.62920  -0.62017  -0.61185  -0.60530
 Alpha  occ. eigenvalues --   -0.60117  -0.60091  -0.59892  -0.59525  -0.58983
 Alpha  occ. eigenvalues --   -0.58450  -0.57507  -0.56788  -0.56252  -0.54600
 Alpha  occ. eigenvalues --   -0.54102  -0.53885  -0.52692  -0.52176  -0.51642
 Alpha  occ. eigenvalues --   -0.50973  -0.50795  -0.50564  -0.50390  -0.50208
 Alpha  occ. eigenvalues --   -0.49603  -0.49317  -0.48663  -0.47433  -0.47002
 Alpha  occ. eigenvalues --   -0.46095  -0.45830  -0.45578  -0.45075  -0.44388
 Alpha  occ. eigenvalues --   -0.44136  -0.43751  -0.43080  -0.42961  -0.42286
 Alpha  occ. eigenvalues --   -0.42151  -0.42055  -0.41724  -0.41557  -0.41232
 Alpha  occ. eigenvalues --   -0.40697  -0.40655  -0.40345  -0.40038  -0.39983
 Alpha  occ. eigenvalues --   -0.39963  -0.39826  -0.39621  -0.39478  -0.39273
 Alpha  occ. eigenvalues --   -0.38973  -0.38838  -0.38477  -0.38337  -0.38246
 Alpha  occ. eigenvalues --   -0.38111  -0.37996  -0.37887  -0.37542  -0.37446
 Alpha  occ. eigenvalues --   -0.37223  -0.36902  -0.36766  -0.36639  -0.36431
 Alpha  occ. eigenvalues --   -0.36351  -0.36053  -0.35888  -0.35577  -0.35395
 Alpha  occ. eigenvalues --   -0.35368  -0.35007  -0.34845  -0.34703  -0.34599
 Alpha  occ. eigenvalues --   -0.34568  -0.34424  -0.34093  -0.33968  -0.33861
 Alpha  occ. eigenvalues --   -0.33595  -0.33529  -0.33458  -0.33295  -0.33224
 Alpha  occ. eigenvalues --   -0.33196  -0.33126  -0.32782  -0.32673  -0.32210
 Alpha  occ. eigenvalues --   -0.31971  -0.31903  -0.31754  -0.31473  -0.31395
 Alpha  occ. eigenvalues --   -0.31078  -0.31036  -0.30992  -0.30860  -0.30621
 Alpha  occ. eigenvalues --   -0.30343  -0.30219  -0.30164  -0.30095  -0.29910
 Alpha  occ. eigenvalues --   -0.29710  -0.29695  -0.29544  -0.28783  -0.28768
 Alpha  occ. eigenvalues --   -0.28495  -0.28454  -0.28426  -0.28302  -0.28150
 Alpha  occ. eigenvalues --   -0.27755  -0.27613  -0.26990  -0.26673  -0.26428
 Alpha  occ. eigenvalues --   -0.26378  -0.26170  -0.25881  -0.25768  -0.25428
 Alpha  occ. eigenvalues --   -0.25100  -0.24532  -0.24137  -0.23686  -0.23448
 Alpha  occ. eigenvalues --   -0.23190  -0.23102  -0.22032  -0.21605  -0.21158
 Alpha  occ. eigenvalues --   -0.20175  -0.19987  -0.19294  -0.19219  -0.16884
 Alpha  occ. eigenvalues --   -0.15478
 Alpha virt. eigenvalues --   -0.11179  -0.06634  -0.06201  -0.04918  -0.04523
 Alpha virt. eigenvalues --   -0.03106  -0.02338  -0.01663  -0.00514  -0.00034
 Alpha virt. eigenvalues --    0.01154   0.01735   0.02301   0.02604   0.02713

 Mulliken charges:
               1
     1  Mg   0.701370
     2  C    0.000067
     3  C   -0.057490
     4  C   -0.025755
     5  C   -0.114890
     6  N   -0.225329
     7  C   -0.056630
     8  C    0.032203
     9  C   -0.003396
    10  C    0.034611
    11  C    0.132366
    12  C    0.144188
    13  C    0.173636
    14  C    0.075839
    15  O   -0.195148
    16  O   -0.285759
    17  N   -0.294867
    18  C    0.131371
    19  C   -0.123797
    20  C   -0.025732
    21  C    0.104329
    22  C    0.155846
    23  C   -0.043942
    24  O   -0.142360
    25  C    0.130701
    26  N   -0.181121
    27  C    0.007483
    28  C   -0.007313
    29  C    0.015872
    30  C    0.021098
    31  C    0.146175
    32  C    0.087901
    33  C    0.050871
    34  N   -0.314851
    35  C    0.158477
    36  C   -0.207524
    37  C    0.119212
    38  C    0.083432
    39  C    0.168100
    40  C   -0.030978
    41  O   -0.127083
    42  C    0.008367
    43  C    0.145245
    44  O   -0.175291
    45  O   -0.274063
    46  C    0.208774
    47  C    0.310033
    48  C   -0.075030
    49  C   -0.183695
    50  C    0.174942
    51  C    0.117910
    52  C    0.053211
    53  C    0.132535
    54  C   -0.062829
    55  C    0.112329
    56  C    0.088622
    57  C    0.042588
    58  C    0.118346
    59  C   -0.072570
    60  C    0.105845
    61  C    0.149189
    62  C    0.049011
    63  C    0.095875
    64  C   -0.124334
    65  C    0.114490
    66  C    0.104071
    67  H   -0.076154
    68  H   -0.032166
    69  H   -0.072003
    70  H   -0.008303
    71  H   -0.019257
    72  H    0.006792
    73  H   -0.005040
    74  H   -0.001040
    75  H   -0.021785
    76  H   -0.027444
    77  H   -0.010705
    78  H    0.001068
    79  H   -0.028133
    80  H    0.009301
    81  H   -0.003281
    82  H    0.010879
    83  H    0.013139
    84  H   -0.019520
    85  H   -0.029202
    86  H   -0.043582
    87  H   -0.010937
    88  H    0.006450
    89  H   -0.004226
    90  H   -0.008303
    91  H   -0.022651
    92  H   -0.010261
    93  H   -0.006832
    94  H    0.004755
    95  H   -0.011523
    96  H    0.010244
    97  H   -0.001581
    98  H    0.013816
    99  H    0.020502
   100  H   -0.002099
   101  H    0.003940
   102  H    0.001969
   103  H   -0.005392
   104  H   -0.039181
   105  H   -0.012548
   106  H    0.000463
   107  H   -0.013463
   108  H   -0.034902
   109  H   -0.020465
   110  H   -0.029239
   111  H   -0.027680
   112  H   -0.036441
   113  H   -0.028361
   114  H   -0.034393
   115  H   -0.025441
   116  H   -0.032044
   117  H   -0.020987
   118  H   -0.042321
   119  H   -0.036644
   120  H   -0.033887
   121  H   -0.033113
   122  H   -0.041517
   123  H   -0.039749
   124  H   -0.033948
   125  H   -0.012876
   126  H   -0.014474
   127  H   -0.009581
   128  H   -0.049109
   129  H   -0.034930
   130  H   -0.034885
   131  H   -0.023287
   132  H   -0.031676
   133  H   -0.029534
   134  H   -0.027822
   135  H   -0.025867
   136  H   -0.041414
   137  H    0.002361
   138  H   -0.010415
   139  H   -0.019868
   140  H   -0.016957
 Sum of Mulliken charges =  -0.00000

 Dipole moment (field-independent basis, Debye):
    X=             -4.6244    Y=              0.8142    Z=              3.1499  Tot=              5.6542
 Quadrupole moment (field-independent basis, Debye-Ang):
   XX=           -388.5687   YY=           -434.8999   ZZ=           -407.1940
   XY=             24.9631   XZ=             10.8137   YZ=             -8.1110

 Normal termination of Gaussian 16 at Wed May  4 05:03:09 2022.
