 Gaussian 16, Revision A.03,
 Gaussian 16:  ES64L-G16RevA.03 25-Dec-2016

 -----------------------------------
 #p cam-b3lyp/Def2SVP td=(nstates=5)
 -----------------------------------

 --------------------------------------------------------
 step_1351_chromophore_24 TDDFT with cam-b3lyp functional
 --------------------------------------------------------
 Symbolic Z-matrix:
 Charge =  0 Multiplicity = 1

                         Standard orientation:
 ---------------------------------------------------------------------
 Center     Atomic      Atomic             Coordinates (Angstroms)
 Number     Number       Type             X           Y           Z
 ---------------------------------------------------------------------
      1         12           0        5.264804    1.048293    0.173536
      2          6           0        4.796411   -2.394086   -0.064302
      3          6           0        1.738315    1.368695    0.028444
      4          6           0        5.635935    4.474336   -0.037797
      5          6           0        8.587041    0.586533   -0.119706
      6          7           0        3.470898   -0.351466    0.181372
      7          6           0        3.541649   -1.728471    0.047387
      8          6           0        2.144547   -2.272279    0.127234
      9          6           0        1.189263   -1.097999   -0.127179
     10          6           0        2.143317    0.037847   -0.013682
     11          6           0        0.439198   -1.098294   -1.485386
     12          6           0        1.886240   -2.893127    1.514403
     13          6           0        0.597381   -3.714871    1.553155
     14          6           0       -0.163696   -4.033254    0.383927
     15          8           0        0.173850   -4.841613   -0.481959
     16          8           0       -1.454300   -3.494305    0.514271
     17          7           0        3.881752    2.668105    0.079468
     18          6           0        2.496420    2.589885    0.066586
     19          6           0        1.978062    3.942790    0.139969
     20          6           0        3.068365    4.866348   -0.036611
     21          6           0        4.272426    4.012597    0.026043
     22          6           0        0.530582    4.273727    0.209636
     23          6           0        3.155999    6.436519   -0.086202
     24          8           0        4.148189    7.097906   -0.288022
     25          6           0        1.797601    7.066277   -0.129832
     26          7           0        6.984819    2.296219    0.068062
     27          6           0        6.856308    3.653491   -0.046831
     28          6           0        8.244472    4.231009   -0.370548
     29          6           0        9.195666    3.026816   -0.056558
     30          6           0        8.201336    1.869313   -0.068247
     31          6           0        8.374347    4.657195   -1.891917
     32          6           0       10.098817    3.071447    1.234246
     33          6           0        9.350354    3.392120    2.519472
     34          7           0        6.434143   -0.511321   -0.054923
     35          6           0        7.815656   -0.580802   -0.057782
     36          6           0        8.236988   -1.943663   -0.272505
     37          6           0        7.123846   -2.710243   -0.236995
     38          6           0        6.071057   -1.814542   -0.050738
     39          6           0        9.593903   -2.442118   -0.598081
     40          6           0        6.559622   -4.082754   -0.348967
     41          8           0        7.047208   -5.176084   -0.635671
     42          6           0        4.995714   -3.871542   -0.124166
     43          6           0        4.381618   -4.434625   -1.361166
     44          8           0        4.136345   -3.821359   -2.386795
     45          8           0        3.969488   -5.717627   -0.998770
     46          6           0        3.021931   -6.326215   -1.889195
     47          6           0       -2.390919   -4.085430   -0.490441
     48          6           0       -3.658478   -3.215101   -0.268504
     49          6           0       -4.875438   -3.520644    0.329963
     50          6           0       -5.066561   -4.771928    1.069896
     51          6           0       -6.006458   -2.461239    0.447823
     52          6           0       -5.792821   -1.481282    1.693069
     53          6           0       -6.494549   -0.011326    1.583555
     54          6           0       -7.903419   -0.045293    2.225460
     55          6           0       -7.851968    0.490750    3.630024
     56          6           0       -8.937542    0.763207    1.420685
     57          6           0       -9.693516   -0.135328    0.415069
     58          6           0      -11.025257   -0.585365    1.056124
     59          6           0      -12.183640    0.479362    0.948433
     60          6           0      -12.688105    1.000190    2.285443
     61          6           0      -13.312014   -0.010371    0.029656
     62          6           0      -13.297062    0.619963   -1.364035
     63          6           0      -14.573940    1.381127   -1.750711
     64          6           0      -14.270358    2.672877   -2.614291
     65          6           0      -14.292217    4.010559   -1.805273
     66          6           0      -15.377810    2.796387   -3.662568
     67          1           0        0.659472    1.524745   -0.042157
     68          1           0        5.868494    5.537315   -0.131014
     69          1           0        9.657094    0.403449   -0.243015
     70          1           0        2.188743   -3.039471   -0.647180
     71          1           0        0.429528   -1.052576    0.652003
     72          1           0        0.654841   -2.005850   -2.049528
     73          1           0        0.758783   -0.290629   -2.143102
     74          1           0       -0.614993   -0.996451   -1.227417
     75          1           0        1.819692   -2.089045    2.247628
     76          1           0        2.711877   -3.541781    1.805826
     77          1           0       -0.067112   -3.392709    2.353901
     78          1           0        0.908788   -4.700949    1.896787
     79          1           0       -0.219209    3.492810    0.332680
     80          1           0        0.318184    4.753097   -0.745544
     81          1           0        0.205956    4.833592    1.086039
     82          1           0        1.290097    6.909304    0.822691
     83          1           0        1.218480    6.763425   -1.002257
     84          1           0        2.025254    8.115966   -0.314352
     85          1           0        8.511988    5.067728    0.275371
     86          1           0        9.914041    2.777793   -0.838031
     87          1           0        7.349628    4.943219   -2.132007
     88          1           0        8.737645    3.800082   -2.458816
     89          1           0        8.950436    5.581732   -1.939266
     90          1           0       10.871170    3.790082    0.959050
     91          1           0       10.446972    2.060253    1.445512
     92          1           0        9.983613    4.111805    3.037404
     93          1           0        9.236144    2.477170    3.100240
     94          1           0        8.361515    3.842509    2.435724
     95          1           0       10.327777   -1.668994   -0.822845
     96          1           0        9.387523   -3.127864   -1.419802
     97          1           0       10.042249   -3.115599    0.131920
     98          1           0        4.648956   -4.352804    0.790236
     99          1           0        2.041782   -5.867488   -1.758651
    100          1           0        2.913960   -7.390027   -1.676225
    101          1           0        3.356958   -6.292241   -2.925705
    102          1           0       -2.579207   -5.158657   -0.522783
    103          1           0       -2.057195   -3.915994   -1.514366
    104          1           0       -3.632881   -2.205462   -0.677579
    105          1           0       -5.942772   -5.232574    0.612794
    106          1           0       -5.322833   -4.529767    2.102263
    107          1           0       -4.233143   -5.466748    0.971404
    108          1           0       -6.987709   -2.925712    0.544436
    109          1           0       -6.160721   -1.982269   -0.518723
    110          1           0       -4.737567   -1.366537    1.938064
    111          1           0       -6.111712   -2.014721    2.588105
    112          1           0       -6.614148    0.234139    0.528735
    113          1           0       -5.860683    0.762329    2.017008
    114          1           0       -8.251511   -1.078661    2.225659
    115          1           0       -7.107237    1.250877    3.864437
    116          1           0       -7.552788   -0.300613    4.317840
    117          1           0       -8.805182    0.902824    3.961108
    118          1           0       -8.419841    1.521514    0.833714
    119          1           0       -9.646600    1.188914    2.131768
    120          1           0       -9.104369   -0.950689   -0.006059
    121          1           0       -9.777866    0.591976   -0.391980
    122          1           0      -10.939804   -0.843975    2.112457
    123          1           0      -11.108600   -1.575259    0.607364
    124          1           0      -11.729730    1.319508    0.423905
    125          1           0      -13.698229    1.409292    2.281322
    126          1           0      -11.992164    1.822960    2.453394
    127          1           0      -12.570946    0.306965    3.118418
    128          1           0      -14.235050    0.310412    0.512401
    129          1           0      -13.313191   -1.095887   -0.065099
    130          1           0      -13.270947   -0.141336   -2.143680
    131          1           0      -12.428220    1.270325   -1.463924
    132          1           0      -15.094724    1.698653   -0.847442
    133          1           0      -15.190379    0.757659   -2.397502
    134          1           0      -13.231709    2.582845   -2.934653
    135          1           0      -13.324090    4.468819   -2.010141
    136          1           0      -14.118266    3.772506   -0.756193
    137          1           0      -15.180717    4.633110   -1.906153
    138          1           0      -16.237072    2.133507   -3.555030
    139          1           0      -14.865309    2.475605   -4.569551
    140          1           0      -15.794105    3.787854   -3.839472
 ---------------------------------------------------------------------

 SCF Done:  E(RCAM-B3LYP) =  -3007.15301564     A.U. after   16 cycles

 Excitation energies and oscillator strengths:

 Excited State   1:      Singlet-A      1.6974 eV  730.42 nm  f=0.3746  <S**2>=0.000
     245 -> 248       -0.19074
     246 -> 247        0.68315
     245 <- 248       -0.11162
 This state for optimization and/or second-order correction.
 Total Energy, E(TD-HF/TD-DFT) =  -3007.09063587
 Copying the excited state density for this state as the 1-particle RhoCI density.

 Excited State   2:      Singlet-A      2.2277 eV  556.56 nm  f=0.1036  <S**2>=0.000
     245 -> 247        0.63689
     246 -> 248        0.29838

 Excited State   3:      Singlet-A      3.4025 eV  364.39 nm  f=0.0378  <S**2>=0.000
     244 -> 247        0.65281
     246 -> 248       -0.23518

 Excited State   4:      Singlet-A      3.5370 eV  350.53 nm  f=0.7103  <S**2>=0.000
     242 -> 247       -0.14454
     244 -> 247        0.22716
     245 -> 247       -0.28082
     246 -> 248        0.57346
     245 <- 247        0.10692

 Excited State   5:      Singlet-A      3.6604 eV  338.71 nm  f=0.0215  <S**2>=0.000
     239 -> 247        0.51425
     239 -> 249       -0.35945
     239 -> 250        0.18360
     240 -> 247       -0.10680

 The electronic state is 1-A.
 Alpha  occ. eigenvalues --  -46.87693 -19.26125 -19.23899 -19.21269 -19.20146
 Alpha  occ. eigenvalues --  -19.19968 -19.19690 -14.41621 -14.41439 -14.39296
 Alpha  occ. eigenvalues --  -14.39117 -10.40222 -10.39059 -10.36162 -10.35478
 Alpha  occ. eigenvalues --  -10.32950 -10.31049 -10.30763 -10.30357 -10.30156
 Alpha  occ. eigenvalues --  -10.29867 -10.29649 -10.29420 -10.29148 -10.28628
 Alpha  occ. eigenvalues --  -10.28403 -10.28092 -10.28030 -10.27707 -10.27699
 Alpha  occ. eigenvalues --  -10.27593 -10.27534 -10.27396 -10.27361 -10.27151
 Alpha  occ. eigenvalues --  -10.27149 -10.27076 -10.26945 -10.26705 -10.26664
 Alpha  occ. eigenvalues --  -10.26661 -10.26528 -10.26365 -10.26238 -10.26079
 Alpha  occ. eigenvalues --  -10.25932 -10.25811 -10.25757 -10.25747 -10.25695
 Alpha  occ. eigenvalues --  -10.25654 -10.25593 -10.25484 -10.25411 -10.25181
 Alpha  occ. eigenvalues --  -10.25148 -10.25008 -10.24788 -10.24736 -10.24486
 Alpha  occ. eigenvalues --  -10.24431 -10.24378 -10.24269 -10.24239 -10.24151
 Alpha  occ. eigenvalues --  -10.24127  -3.16341  -1.91250  -1.90770  -1.90677
 Alpha  occ. eigenvalues --   -1.16277  -1.15270  -1.11155  -1.09926  -1.08354
 Alpha  occ. eigenvalues --   -1.07929  -1.05060  -1.04045  -1.02616  -1.00874
 Alpha  occ. eigenvalues --   -0.92767  -0.90955  -0.90605  -0.89736  -0.89003
 Alpha  occ. eigenvalues --   -0.88349  -0.87969  -0.87815  -0.87533  -0.87036
 Alpha  occ. eigenvalues --   -0.86537  -0.85898  -0.84090  -0.83575  -0.83247
 Alpha  occ. eigenvalues --   -0.82280  -0.81800  -0.81404  -0.80996  -0.80408
 Alpha  occ. eigenvalues --   -0.79629  -0.78604  -0.77689  -0.76656  -0.75881
 Alpha  occ. eigenvalues --   -0.75478  -0.75439  -0.75215  -0.74790  -0.74223
 Alpha  occ. eigenvalues --   -0.73518  -0.72556  -0.71703  -0.71091  -0.69193
 Alpha  occ. eigenvalues --   -0.68672  -0.68539  -0.67107  -0.66522  -0.65928
 Alpha  occ. eigenvalues --   -0.65158  -0.64957  -0.64543  -0.64482  -0.63987
 Alpha  occ. eigenvalues --   -0.63546  -0.63280  -0.62537  -0.61156  -0.60698
 Alpha  occ. eigenvalues --   -0.59731  -0.59370  -0.59077  -0.58368  -0.58056
 Alpha  occ. eigenvalues --   -0.57500  -0.57310  -0.56281  -0.56084  -0.55526
 Alpha  occ. eigenvalues --   -0.55367  -0.55161  -0.54461  -0.54426  -0.54095
 Alpha  occ. eigenvalues --   -0.53933  -0.53315  -0.53194  -0.52887  -0.52790
 Alpha  occ. eigenvalues --   -0.52518  -0.52453  -0.52319  -0.52122  -0.51917
 Alpha  occ. eigenvalues --   -0.51548  -0.51455  -0.51269  -0.50979  -0.50652
 Alpha  occ. eigenvalues --   -0.50555  -0.50322  -0.50227  -0.49828  -0.49664
 Alpha  occ. eigenvalues --   -0.49530  -0.49320  -0.49253  -0.49029  -0.48785
 Alpha  occ. eigenvalues --   -0.48663  -0.48518  -0.48302  -0.47791  -0.47444
 Alpha  occ. eigenvalues --   -0.47227  -0.47056  -0.46812  -0.46658  -0.46539
 Alpha  occ. eigenvalues --   -0.46468  -0.46379  -0.46051  -0.45854  -0.45597
 Alpha  occ. eigenvalues --   -0.45527  -0.45372  -0.45303  -0.45022  -0.45002
 Alpha  occ. eigenvalues --   -0.44871  -0.44796  -0.44579  -0.44202  -0.44027
 Alpha  occ. eigenvalues --   -0.43632  -0.43447  -0.43281  -0.43182  -0.42947
 Alpha  occ. eigenvalues --   -0.42670  -0.42575  -0.42386  -0.42099  -0.41985
 Alpha  occ. eigenvalues --   -0.41725  -0.41568  -0.41448  -0.41339  -0.41233
 Alpha  occ. eigenvalues --   -0.41067  -0.40870  -0.40817  -0.40492  -0.39860
 Alpha  occ. eigenvalues --   -0.39772  -0.39432  -0.39370  -0.39210  -0.39068
 Alpha  occ. eigenvalues --   -0.38603  -0.38440  -0.37811  -0.37775  -0.37584
 Alpha  occ. eigenvalues --   -0.37433  -0.37049  -0.36556  -0.36395  -0.36122
 Alpha  occ. eigenvalues --   -0.36084  -0.35759  -0.35525  -0.35100  -0.34406
 Alpha  occ. eigenvalues --   -0.34202  -0.33564  -0.32889  -0.31347  -0.31234
 Alpha  occ. eigenvalues --   -0.30898  -0.30510  -0.29730  -0.29285  -0.23576
 Alpha  occ. eigenvalues --   -0.20760
 Alpha virt. eigenvalues --   -0.08268  -0.01498   0.00371   0.02329   0.02827
 Alpha virt. eigenvalues --    0.03603   0.04327   0.05497   0.06196   0.06444
 Alpha virt. eigenvalues --    0.07690   0.08433   0.08792   0.08910   0.09186

 Mulliken charges:
               1
     1  Mg   0.835701
     2  C   -0.031367
     3  C   -0.069094
     4  C   -0.043245
     5  C   -0.119602
     6  N   -0.290244
     7  C   -0.009458
     8  C   -0.027668
     9  C   -0.060533
    10  C    0.050746
    11  C    0.076501
    12  C    0.097811
    13  C    0.093437
    14  C    0.157886
    15  O   -0.237618
    16  O   -0.348607
    17  N   -0.379918
    18  C    0.142468
    19  C   -0.133269
    20  C   -0.085418
    21  C    0.124978
    22  C    0.090687
    23  C    0.039723
    24  O   -0.182457
    25  C    0.040812
    26  N   -0.254675
    27  C    0.021225
    28  C   -0.067458
    29  C   -0.035269
    30  C    0.036346
    31  C    0.091491
    32  C    0.038502
    33  C   -0.012797
    34  N   -0.403789
    35  C    0.162227
    36  C   -0.206185
    37  C    0.040745
    38  C    0.119673
    39  C    0.116444
    40  C    0.073568
    41  O   -0.163261
    42  C   -0.066085
    43  C    0.232620
    44  O   -0.210219
    45  O   -0.337141
    46  C    0.169363
    47  C    0.275932
    48  C   -0.093170
    49  C   -0.204136
    50  C    0.109398
    51  C    0.064336
    52  C    0.002611
    53  C    0.077533
    54  C   -0.117599
    55  C    0.054801
    56  C    0.037620
    57  C   -0.009400
    58  C    0.062851
    59  C   -0.128486
    60  C    0.049799
    61  C    0.091208
    62  C   -0.001808
    63  C    0.044249
    64  C   -0.178639
    65  C    0.053727
    66  C    0.039384
    67  H   -0.041142
    68  H    0.008492
    69  H   -0.036666
    70  H    0.023647
    71  H    0.017501
    72  H    0.030656
    73  H    0.022910
    74  H    0.020318
    75  H    0.010617
    76  H    0.002965
    77  H    0.026757
    78  H    0.035485
    79  H    0.002525
    80  H    0.033853
    81  H    0.023205
    82  H    0.038210
    83  H    0.041368
    84  H    0.017060
    85  H    0.006150
    86  H   -0.007402
    87  H    0.013856
    88  H    0.029176
    89  H    0.020369
    90  H    0.018515
    91  H    0.005894
    92  H    0.013847
    93  H    0.016897
    94  H    0.025819
    95  H    0.013506
    96  H    0.036173
    97  H    0.026432
    98  H    0.055845
    99  H    0.041510
   100  H    0.021942
   101  H    0.028249
   102  H    0.029852
   103  H    0.024398
   104  H   -0.008794
   105  H    0.011829
   106  H    0.023304
   107  H    0.011204
   108  H   -0.006723
   109  H    0.008351
   110  H    0.000989
   111  H   -0.002493
   112  H   -0.008242
   113  H    0.001126
   114  H   -0.004521
   115  H   -0.000707
   116  H   -0.006500
   117  H    0.003159
   118  H   -0.012447
   119  H   -0.011847
   120  H   -0.007571
   121  H   -0.005060
   122  H   -0.013578
   123  H   -0.009635
   124  H   -0.003486
   125  H    0.011834
   126  H    0.007663
   127  H    0.013865
   128  H   -0.019374
   129  H   -0.004902
   130  H   -0.005250
   131  H   -0.000169
   132  H   -0.004976
   133  H   -0.000565
   134  H    0.003653
   135  H   -0.000914
   136  H   -0.017658
   137  H    0.025638
   138  H    0.013596
   139  H    0.004681
   140  H    0.007941
 Sum of Mulliken charges =  -0.00000

 Dipole moment (field-independent basis, Debye):
    X=             -4.8603    Y=              1.0080    Z=              3.2798  Tot=              5.9494
 Quadrupole moment (field-independent basis, Debye-Ang):
   XX=           -388.1519   YY=           -431.5476   ZZ=           -407.3602
   XY=             24.4421   XZ=             11.1157   YZ=             -8.2639

 Normal termination of Gaussian 16 at Wed May  4 03:57:54 2022.
