 Gaussian 16, Revision A.03,
 Gaussian 16:  ES64L-G16RevA.03 25-Dec-2016

 ---------------------------------
 #p PBE1PBE/Def2SVP td=(nstates=5)
 ---------------------------------

 ------------------------------------------------------
 step_1351_chromophore_24 TDDFT with PBE1PBE functional
 ------------------------------------------------------
 Symbolic Z-matrix:
 Charge =  0 Multiplicity = 1

                         Standard orientation:
 ---------------------------------------------------------------------
 Center     Atomic      Atomic             Coordinates (Angstroms)
 Number     Number       Type             X           Y           Z
 ---------------------------------------------------------------------
      1         12           0        5.264804    1.048293    0.173536
      2          6           0        4.796411   -2.394086   -0.064302
      3          6           0        1.738315    1.368695    0.028444
      4          6           0        5.635935    4.474336   -0.037797
      5          6           0        8.587041    0.586533   -0.119706
      6          7           0        3.470898   -0.351466    0.181372
      7          6           0        3.541649   -1.728471    0.047387
      8          6           0        2.144547   -2.272279    0.127234
      9          6           0        1.189263   -1.097999   -0.127179
     10          6           0        2.143317    0.037847   -0.013682
     11          6           0        0.439198   -1.098294   -1.485386
     12          6           0        1.886240   -2.893127    1.514403
     13          6           0        0.597381   -3.714871    1.553155
     14          6           0       -0.163696   -4.033254    0.383927
     15          8           0        0.173850   -4.841613   -0.481959
     16          8           0       -1.454300   -3.494305    0.514271
     17          7           0        3.881752    2.668105    0.079468
     18          6           0        2.496420    2.589885    0.066586
     19          6           0        1.978062    3.942790    0.139969
     20          6           0        3.068365    4.866348   -0.036611
     21          6           0        4.272426    4.012597    0.026043
     22          6           0        0.530582    4.273727    0.209636
     23          6           0        3.155999    6.436519   -0.086202
     24          8           0        4.148189    7.097906   -0.288022
     25          6           0        1.797601    7.066277   -0.129832
     26          7           0        6.984819    2.296219    0.068062
     27          6           0        6.856308    3.653491   -0.046831
     28          6           0        8.244472    4.231009   -0.370548
     29          6           0        9.195666    3.026816   -0.056558
     30          6           0        8.201336    1.869313   -0.068247
     31          6           0        8.374347    4.657195   -1.891917
     32          6           0       10.098817    3.071447    1.234246
     33          6           0        9.350354    3.392120    2.519472
     34          7           0        6.434143   -0.511321   -0.054923
     35          6           0        7.815656   -0.580802   -0.057782
     36          6           0        8.236988   -1.943663   -0.272505
     37          6           0        7.123846   -2.710243   -0.236995
     38          6           0        6.071057   -1.814542   -0.050738
     39          6           0        9.593903   -2.442118   -0.598081
     40          6           0        6.559622   -4.082754   -0.348967
     41          8           0        7.047208   -5.176084   -0.635671
     42          6           0        4.995714   -3.871542   -0.124166
     43          6           0        4.381618   -4.434625   -1.361166
     44          8           0        4.136345   -3.821359   -2.386795
     45          8           0        3.969488   -5.717627   -0.998770
     46          6           0        3.021931   -6.326215   -1.889195
     47          6           0       -2.390919   -4.085430   -0.490441
     48          6           0       -3.658478   -3.215101   -0.268504
     49          6           0       -4.875438   -3.520644    0.329963
     50          6           0       -5.066561   -4.771928    1.069896
     51          6           0       -6.006458   -2.461239    0.447823
     52          6           0       -5.792821   -1.481282    1.693069
     53          6           0       -6.494549   -0.011326    1.583555
     54          6           0       -7.903419   -0.045293    2.225460
     55          6           0       -7.851968    0.490750    3.630024
     56          6           0       -8.937542    0.763207    1.420685
     57          6           0       -9.693516   -0.135328    0.415069
     58          6           0      -11.025257   -0.585365    1.056124
     59          6           0      -12.183640    0.479362    0.948433
     60          6           0      -12.688105    1.000190    2.285443
     61          6           0      -13.312014   -0.010371    0.029656
     62          6           0      -13.297062    0.619963   -1.364035
     63          6           0      -14.573940    1.381127   -1.750711
     64          6           0      -14.270358    2.672877   -2.614291
     65          6           0      -14.292217    4.010559   -1.805273
     66          6           0      -15.377810    2.796387   -3.662568
     67          1           0        0.659472    1.524745   -0.042157
     68          1           0        5.868494    5.537315   -0.131014
     69          1           0        9.657094    0.403449   -0.243015
     70          1           0        2.188743   -3.039471   -0.647180
     71          1           0        0.429528   -1.052576    0.652003
     72          1           0        0.654841   -2.005850   -2.049528
     73          1           0        0.758783   -0.290629   -2.143102
     74          1           0       -0.614993   -0.996451   -1.227417
     75          1           0        1.819692   -2.089045    2.247628
     76          1           0        2.711877   -3.541781    1.805826
     77          1           0       -0.067112   -3.392709    2.353901
     78          1           0        0.908788   -4.700949    1.896787
     79          1           0       -0.219209    3.492810    0.332680
     80          1           0        0.318184    4.753097   -0.745544
     81          1           0        0.205956    4.833592    1.086039
     82          1           0        1.290097    6.909304    0.822691
     83          1           0        1.218480    6.763425   -1.002257
     84          1           0        2.025254    8.115966   -0.314352
     85          1           0        8.511988    5.067728    0.275371
     86          1           0        9.914041    2.777793   -0.838031
     87          1           0        7.349628    4.943219   -2.132007
     88          1           0        8.737645    3.800082   -2.458816
     89          1           0        8.950436    5.581732   -1.939266
     90          1           0       10.871170    3.790082    0.959050
     91          1           0       10.446972    2.060253    1.445512
     92          1           0        9.983613    4.111805    3.037404
     93          1           0        9.236144    2.477170    3.100240
     94          1           0        8.361515    3.842509    2.435724
     95          1           0       10.327777   -1.668994   -0.822845
     96          1           0        9.387523   -3.127864   -1.419802
     97          1           0       10.042249   -3.115599    0.131920
     98          1           0        4.648956   -4.352804    0.790236
     99          1           0        2.041782   -5.867488   -1.758651
    100          1           0        2.913960   -7.390027   -1.676225
    101          1           0        3.356958   -6.292241   -2.925705
    102          1           0       -2.579207   -5.158657   -0.522783
    103          1           0       -2.057195   -3.915994   -1.514366
    104          1           0       -3.632881   -2.205462   -0.677579
    105          1           0       -5.942772   -5.232574    0.612794
    106          1           0       -5.322833   -4.529767    2.102263
    107          1           0       -4.233143   -5.466748    0.971404
    108          1           0       -6.987709   -2.925712    0.544436
    109          1           0       -6.160721   -1.982269   -0.518723
    110          1           0       -4.737567   -1.366537    1.938064
    111          1           0       -6.111712   -2.014721    2.588105
    112          1           0       -6.614148    0.234139    0.528735
    113          1           0       -5.860683    0.762329    2.017008
    114          1           0       -8.251511   -1.078661    2.225659
    115          1           0       -7.107237    1.250877    3.864437
    116          1           0       -7.552788   -0.300613    4.317840
    117          1           0       -8.805182    0.902824    3.961108
    118          1           0       -8.419841    1.521514    0.833714
    119          1           0       -9.646600    1.188914    2.131768
    120          1           0       -9.104369   -0.950689   -0.006059
    121          1           0       -9.777866    0.591976   -0.391980
    122          1           0      -10.939804   -0.843975    2.112457
    123          1           0      -11.108600   -1.575259    0.607364
    124          1           0      -11.729730    1.319508    0.423905
    125          1           0      -13.698229    1.409292    2.281322
    126          1           0      -11.992164    1.822960    2.453394
    127          1           0      -12.570946    0.306965    3.118418
    128          1           0      -14.235050    0.310412    0.512401
    129          1           0      -13.313191   -1.095887   -0.065099
    130          1           0      -13.270947   -0.141336   -2.143680
    131          1           0      -12.428220    1.270325   -1.463924
    132          1           0      -15.094724    1.698653   -0.847442
    133          1           0      -15.190379    0.757659   -2.397502
    134          1           0      -13.231709    2.582845   -2.934653
    135          1           0      -13.324090    4.468819   -2.010141
    136          1           0      -14.118266    3.772506   -0.756193
    137          1           0      -15.180717    4.633110   -1.906153
    138          1           0      -16.237072    2.133507   -3.555030
    139          1           0      -14.865309    2.475605   -4.569551
    140          1           0      -15.794105    3.787854   -3.839472
 ---------------------------------------------------------------------

 SCF Done:  E(RPBE1PBE) =  -3005.34306248     A.U. after   15 cycles

 Excitation energies and oscillator strengths:

 Excited State   1:      Singlet-A      1.8543 eV  668.64 nm  f=0.3656  <S**2>=0.000
     245 -> 248       -0.18157
     246 -> 247        0.69055
     246 <- 247       -0.10319
 This state for optimization and/or second-order correction.
 Total Energy, E(TD-HF/TD-DFT) =  -3005.27491967
 Copying the excited state density for this state as the 1-particle RhoCI density.

 Excited State   2:      Singlet-A      2.2339 eV  555.02 nm  f=0.1004  <S**2>=0.000
     245 -> 247        0.64910
     246 -> 248        0.27127

 Excited State   3:      Singlet-A      3.0772 eV  402.91 nm  f=0.0023  <S**2>=0.000
     244 -> 247        0.69357
     246 -> 248       -0.10104

 Excited State   4:      Singlet-A      3.2408 eV  382.57 nm  f=0.0036  <S**2>=0.000
     240 -> 247        0.51815
     240 -> 249       -0.16868
     241 -> 247        0.39341
     241 -> 249       -0.12480

 Excited State   5:      Singlet-A      3.3058 eV  375.05 nm  f=0.0049  <S**2>=0.000
     240 -> 247        0.10513
     241 -> 247       -0.14729
     242 -> 247        0.64474
     242 -> 249        0.12110

 The electronic state is 1-A.
 Alpha  occ. eigenvalues --  -46.91094 -19.26799 -19.24568 -19.21506 -19.20344
 Alpha  occ. eigenvalues --  -19.20135 -19.19876 -14.41160 -14.40901 -14.38982
 Alpha  occ. eigenvalues --  -14.38764 -10.37208 -10.36063 -10.33297 -10.32595
 Alpha  occ. eigenvalues --  -10.30357 -10.28845 -10.28487 -10.28092 -10.27903
 Alpha  occ. eigenvalues --  -10.27606 -10.27116 -10.26874 -10.26819 -10.26263
 Alpha  occ. eigenvalues --  -10.26110 -10.25709 -10.25708 -10.25495 -10.25332
 Alpha  occ. eigenvalues --  -10.25295 -10.25209 -10.25181 -10.24961 -10.24891
 Alpha  occ. eigenvalues --  -10.24845 -10.24717 -10.24659 -10.24527 -10.24326
 Alpha  occ. eigenvalues --  -10.24324 -10.23977 -10.23975 -10.23887 -10.23689
 Alpha  occ. eigenvalues --  -10.23477 -10.23443 -10.23299 -10.23227 -10.23204
 Alpha  occ. eigenvalues --  -10.23172 -10.23117 -10.23105 -10.22813 -10.22785
 Alpha  occ. eigenvalues --  -10.22771 -10.22587 -10.22201 -10.22151 -10.22075
 Alpha  occ. eigenvalues --  -10.22002 -10.21918 -10.21694 -10.21664 -10.21644
 Alpha  occ. eigenvalues --  -10.21558  -3.13320  -1.86172  -1.85668  -1.85580
 Alpha  occ. eigenvalues --   -1.11020  -1.10005  -1.05882  -1.04613  -1.03185
 Alpha  occ. eigenvalues --   -1.02742  -0.99686  -0.98698  -0.97191  -0.95542
 Alpha  occ. eigenvalues --   -0.87107  -0.85169  -0.84704  -0.83867  -0.83132
 Alpha  occ. eigenvalues --   -0.82661  -0.82273  -0.82132  -0.81656  -0.81356
 Alpha  occ. eigenvalues --   -0.80795  -0.80188  -0.78255  -0.77866  -0.77497
 Alpha  occ. eigenvalues --   -0.76483  -0.76029  -0.75586  -0.75230  -0.74615
 Alpha  occ. eigenvalues --   -0.73978  -0.72863  -0.72011  -0.70974  -0.70057
 Alpha  occ. eigenvalues --   -0.69814  -0.69542  -0.69349  -0.69117  -0.68415
 Alpha  occ. eigenvalues --   -0.67840  -0.66979  -0.66094  -0.65423  -0.63519
 Alpha  occ. eigenvalues --   -0.63047  -0.62848  -0.61336  -0.60980  -0.60133
 Alpha  occ. eigenvalues --   -0.59685  -0.59469  -0.59032  -0.58594  -0.58497
 Alpha  occ. eigenvalues --   -0.58065  -0.57440  -0.56742  -0.55719  -0.55116
 Alpha  occ. eigenvalues --   -0.54270  -0.53917  -0.53608  -0.52974  -0.52404
 Alpha  occ. eigenvalues --   -0.52075  -0.51833  -0.50662  -0.50638  -0.50098
 Alpha  occ. eigenvalues --   -0.49872  -0.49672  -0.48937  -0.48818  -0.48648
 Alpha  occ. eigenvalues --   -0.48457  -0.47862  -0.47690  -0.47415  -0.47184
 Alpha  occ. eigenvalues --   -0.46995  -0.46955  -0.46889  -0.46668  -0.46427
 Alpha  occ. eigenvalues --   -0.46114  -0.46045  -0.45820  -0.45530  -0.45264
 Alpha  occ. eigenvalues --   -0.45101  -0.44864  -0.44798  -0.44421  -0.44249
 Alpha  occ. eigenvalues --   -0.44116  -0.43943  -0.43824  -0.43654  -0.43387
 Alpha  occ. eigenvalues --   -0.43251  -0.43163  -0.42935  -0.42461  -0.42096
 Alpha  occ. eigenvalues --   -0.41839  -0.41711  -0.41466  -0.41318  -0.41225
 Alpha  occ. eigenvalues --   -0.41129  -0.41061  -0.40690  -0.40561  -0.40288
 Alpha  occ. eigenvalues --   -0.40197  -0.40077  -0.40019  -0.39776  -0.39701
 Alpha  occ. eigenvalues --   -0.39688  -0.39415  -0.39324  -0.38946  -0.38799
 Alpha  occ. eigenvalues --   -0.38475  -0.38208  -0.37993  -0.37927  -0.37718
 Alpha  occ. eigenvalues --   -0.37478  -0.37398  -0.37182  -0.36989  -0.36791
 Alpha  occ. eigenvalues --   -0.36483  -0.36345  -0.36264  -0.36128  -0.36061
 Alpha  occ. eigenvalues --   -0.35857  -0.35751  -0.35605  -0.35298  -0.34795
 Alpha  occ. eigenvalues --   -0.34553  -0.34325  -0.34236  -0.34162  -0.33868
 Alpha  occ. eigenvalues --   -0.33589  -0.33221  -0.32755  -0.32612  -0.32514
 Alpha  occ. eigenvalues --   -0.32289  -0.31977  -0.31454  -0.31370  -0.31164
 Alpha  occ. eigenvalues --   -0.30902  -0.30663  -0.30317  -0.29987  -0.29487
 Alpha  occ. eigenvalues --   -0.29096  -0.28523  -0.28492  -0.26548  -0.26210
 Alpha  occ. eigenvalues --   -0.26145  -0.26036  -0.25092  -0.24920  -0.20538
 Alpha  occ. eigenvalues --   -0.18396
 Alpha virt. eigenvalues --   -0.10744  -0.04979  -0.03885  -0.02052  -0.01670
 Alpha virt. eigenvalues --   -0.00173   0.00514   0.01023   0.02136   0.02843
 Alpha virt. eigenvalues --    0.03713   0.04816   0.05243   0.05523   0.05649

 Mulliken charges:
               1
     1  Mg   0.988083
     2  C   -0.049548
     3  C   -0.060524
     4  C   -0.037305
     5  C   -0.111930
     6  N   -0.386089
     7  C    0.073095
     8  C   -0.114627
     9  C   -0.137998
    10  C    0.084875
    11  C    0.023267
    12  C    0.046508
    13  C    0.020885
    14  C    0.224246
    15  O   -0.273075
    16  O   -0.376521
    17  N   -0.492859
    18  C    0.172272
    19  C   -0.172268
    20  C   -0.119673
    21  C    0.154829
    22  C    0.032075
    23  C    0.089001
    24  O   -0.220868
    25  C   -0.036687
    26  N   -0.367957
    27  C    0.053681
    28  C   -0.149307
    29  C   -0.101162
    30  C    0.079178
    31  C    0.033911
    32  C   -0.026322
    33  C   -0.082479
    34  N   -0.529719
    35  C    0.185581
    36  C   -0.231595
    37  C    0.000528
    38  C    0.163397
    39  C    0.066744
    40  C    0.169677
    41  O   -0.208815
    42  C   -0.176924
    43  C    0.320715
    44  O   -0.244031
    45  O   -0.368712
    46  C    0.111762
    47  C    0.231280
    48  C   -0.103234
    49  C   -0.248983
    50  C    0.043539
    51  C    0.005705
    52  C   -0.059057
    53  C    0.025222
    54  C   -0.204542
    55  C   -0.000934
    56  C   -0.021192
    57  C   -0.077267
    58  C    0.012616
    59  C   -0.215184
    60  C   -0.010677
    61  C    0.037154
    62  C   -0.064021
    63  C   -0.011154
    64  C   -0.267614
    65  C   -0.006685
    66  C   -0.022689
    67  H   -0.007612
    68  H    0.038931
    69  H   -0.004573
    70  H    0.069128
    71  H    0.054021
    72  H    0.057148
    73  H    0.050443
    74  H    0.047529
    75  H    0.043290
    76  H    0.038296
    77  H    0.058006
    78  H    0.068756
    79  H    0.028803
    80  H    0.061972
    81  H    0.050229
    82  H    0.065369
    83  H    0.068039
    84  H    0.045362
    85  H    0.042311
    86  H    0.030257
    87  H    0.043744
    88  H    0.056115
    89  H    0.048517
    90  H    0.050465
    91  H    0.040070
    92  H    0.042158
    93  H    0.044587
    94  H    0.054527
    95  H    0.039456
    96  H    0.063658
    97  H    0.054027
    98  H    0.091551
    99  H    0.068371
   100  H    0.044602
   101  H    0.050481
   102  H    0.054503
   103  H    0.051586
   104  H    0.021067
   105  H    0.041120
   106  H    0.051571
   107  H    0.039116
   108  H    0.025044
   109  H    0.038675
   110  H    0.033415
   111  H    0.029858
   112  H    0.024737
   113  H    0.032269
   114  H    0.034047
   115  H    0.026174
   116  H    0.021911
   117  H    0.029844
   118  H    0.020186
   119  H    0.024362
   120  H    0.025533
   121  H    0.028309
   122  H    0.019452
   123  H    0.021773
   124  H    0.035445
   125  H    0.038913
   126  H    0.034837
   127  H    0.040730
   128  H    0.013870
   129  H    0.027315
   130  H    0.028806
   131  H    0.030557
   132  H    0.026753
   133  H    0.032564
   134  H    0.039458
   135  H    0.027419
   136  H    0.011389
   137  H    0.051324
   138  H    0.039890
   139  H    0.033521
   140  H    0.035022
 Sum of Mulliken charges =  -0.00000

 Dipole moment (field-independent basis, Debye):
    X=             -4.8516    Y=              1.0641    Z=              3.2912  Tot=              5.9584
 Quadrupole moment (field-independent basis, Debye-Ang):
   XX=           -382.8639   YY=           -428.7310   ZZ=           -404.8939
   XY=             25.5662   XZ=             10.7148   YZ=             -8.3839

 Normal termination of Gaussian 16 at Wed May  4 04:21:08 2022.
