 Gaussian 16, Revision A.03,
 Gaussian 16:  ES64L-G16RevA.03 25-Dec-2016

 --------------------------------
 #p wB97XD/Def2SVP td=(nstates=5)
 --------------------------------

 -----------------------------------------------------
 step_1351_chromophore_24 TDDFT with wB97XD functional
 -----------------------------------------------------
 Symbolic Z-matrix:
 Charge =  0 Multiplicity = 1

                         Standard orientation:
 ---------------------------------------------------------------------
 Center     Atomic      Atomic             Coordinates (Angstroms)
 Number     Number       Type             X           Y           Z
 ---------------------------------------------------------------------
      1         12           0        5.264804    1.048293    0.173536
      2          6           0        4.796411   -2.394086   -0.064302
      3          6           0        1.738315    1.368695    0.028444
      4          6           0        5.635935    4.474336   -0.037797
      5          6           0        8.587041    0.586533   -0.119706
      6          7           0        3.470898   -0.351466    0.181372
      7          6           0        3.541649   -1.728471    0.047387
      8          6           0        2.144547   -2.272279    0.127234
      9          6           0        1.189263   -1.097999   -0.127179
     10          6           0        2.143317    0.037847   -0.013682
     11          6           0        0.439198   -1.098294   -1.485386
     12          6           0        1.886240   -2.893127    1.514403
     13          6           0        0.597381   -3.714871    1.553155
     14          6           0       -0.163696   -4.033254    0.383927
     15          8           0        0.173850   -4.841613   -0.481959
     16          8           0       -1.454300   -3.494305    0.514271
     17          7           0        3.881752    2.668105    0.079468
     18          6           0        2.496420    2.589885    0.066586
     19          6           0        1.978062    3.942790    0.139969
     20          6           0        3.068365    4.866348   -0.036611
     21          6           0        4.272426    4.012597    0.026043
     22          6           0        0.530582    4.273727    0.209636
     23          6           0        3.155999    6.436519   -0.086202
     24          8           0        4.148189    7.097906   -0.288022
     25          6           0        1.797601    7.066277   -0.129832
     26          7           0        6.984819    2.296219    0.068062
     27          6           0        6.856308    3.653491   -0.046831
     28          6           0        8.244472    4.231009   -0.370548
     29          6           0        9.195666    3.026816   -0.056558
     30          6           0        8.201336    1.869313   -0.068247
     31          6           0        8.374347    4.657195   -1.891917
     32          6           0       10.098817    3.071447    1.234246
     33          6           0        9.350354    3.392120    2.519472
     34          7           0        6.434143   -0.511321   -0.054923
     35          6           0        7.815656   -0.580802   -0.057782
     36          6           0        8.236988   -1.943663   -0.272505
     37          6           0        7.123846   -2.710243   -0.236995
     38          6           0        6.071057   -1.814542   -0.050738
     39          6           0        9.593903   -2.442118   -0.598081
     40          6           0        6.559622   -4.082754   -0.348967
     41          8           0        7.047208   -5.176084   -0.635671
     42          6           0        4.995714   -3.871542   -0.124166
     43          6           0        4.381618   -4.434625   -1.361166
     44          8           0        4.136345   -3.821359   -2.386795
     45          8           0        3.969488   -5.717627   -0.998770
     46          6           0        3.021931   -6.326215   -1.889195
     47          6           0       -2.390919   -4.085430   -0.490441
     48          6           0       -3.658478   -3.215101   -0.268504
     49          6           0       -4.875438   -3.520644    0.329963
     50          6           0       -5.066561   -4.771928    1.069896
     51          6           0       -6.006458   -2.461239    0.447823
     52          6           0       -5.792821   -1.481282    1.693069
     53          6           0       -6.494549   -0.011326    1.583555
     54          6           0       -7.903419   -0.045293    2.225460
     55          6           0       -7.851968    0.490750    3.630024
     56          6           0       -8.937542    0.763207    1.420685
     57          6           0       -9.693516   -0.135328    0.415069
     58          6           0      -11.025257   -0.585365    1.056124
     59          6           0      -12.183640    0.479362    0.948433
     60          6           0      -12.688105    1.000190    2.285443
     61          6           0      -13.312014   -0.010371    0.029656
     62          6           0      -13.297062    0.619963   -1.364035
     63          6           0      -14.573940    1.381127   -1.750711
     64          6           0      -14.270358    2.672877   -2.614291
     65          6           0      -14.292217    4.010559   -1.805273
     66          6           0      -15.377810    2.796387   -3.662568
     67          1           0        0.659472    1.524745   -0.042157
     68          1           0        5.868494    5.537315   -0.131014
     69          1           0        9.657094    0.403449   -0.243015
     70          1           0        2.188743   -3.039471   -0.647180
     71          1           0        0.429528   -1.052576    0.652003
     72          1           0        0.654841   -2.005850   -2.049528
     73          1           0        0.758783   -0.290629   -2.143102
     74          1           0       -0.614993   -0.996451   -1.227417
     75          1           0        1.819692   -2.089045    2.247628
     76          1           0        2.711877   -3.541781    1.805826
     77          1           0       -0.067112   -3.392709    2.353901
     78          1           0        0.908788   -4.700949    1.896787
     79          1           0       -0.219209    3.492810    0.332680
     80          1           0        0.318184    4.753097   -0.745544
     81          1           0        0.205956    4.833592    1.086039
     82          1           0        1.290097    6.909304    0.822691
     83          1           0        1.218480    6.763425   -1.002257
     84          1           0        2.025254    8.115966   -0.314352
     85          1           0        8.511988    5.067728    0.275371
     86          1           0        9.914041    2.777793   -0.838031
     87          1           0        7.349628    4.943219   -2.132007
     88          1           0        8.737645    3.800082   -2.458816
     89          1           0        8.950436    5.581732   -1.939266
     90          1           0       10.871170    3.790082    0.959050
     91          1           0       10.446972    2.060253    1.445512
     92          1           0        9.983613    4.111805    3.037404
     93          1           0        9.236144    2.477170    3.100240
     94          1           0        8.361515    3.842509    2.435724
     95          1           0       10.327777   -1.668994   -0.822845
     96          1           0        9.387523   -3.127864   -1.419802
     97          1           0       10.042249   -3.115599    0.131920
     98          1           0        4.648956   -4.352804    0.790236
     99          1           0        2.041782   -5.867488   -1.758651
    100          1           0        2.913960   -7.390027   -1.676225
    101          1           0        3.356958   -6.292241   -2.925705
    102          1           0       -2.579207   -5.158657   -0.522783
    103          1           0       -2.057195   -3.915994   -1.514366
    104          1           0       -3.632881   -2.205462   -0.677579
    105          1           0       -5.942772   -5.232574    0.612794
    106          1           0       -5.322833   -4.529767    2.102263
    107          1           0       -4.233143   -5.466748    0.971404
    108          1           0       -6.987709   -2.925712    0.544436
    109          1           0       -6.160721   -1.982269   -0.518723
    110          1           0       -4.737567   -1.366537    1.938064
    111          1           0       -6.111712   -2.014721    2.588105
    112          1           0       -6.614148    0.234139    0.528735
    113          1           0       -5.860683    0.762329    2.017008
    114          1           0       -8.251511   -1.078661    2.225659
    115          1           0       -7.107237    1.250877    3.864437
    116          1           0       -7.552788   -0.300613    4.317840
    117          1           0       -8.805182    0.902824    3.961108
    118          1           0       -8.419841    1.521514    0.833714
    119          1           0       -9.646600    1.188914    2.131768
    120          1           0       -9.104369   -0.950689   -0.006059
    121          1           0       -9.777866    0.591976   -0.391980
    122          1           0      -10.939804   -0.843975    2.112457
    123          1           0      -11.108600   -1.575259    0.607364
    124          1           0      -11.729730    1.319508    0.423905
    125          1           0      -13.698229    1.409292    2.281322
    126          1           0      -11.992164    1.822960    2.453394
    127          1           0      -12.570946    0.306965    3.118418
    128          1           0      -14.235050    0.310412    0.512401
    129          1           0      -13.313191   -1.095887   -0.065099
    130          1           0      -13.270947   -0.141336   -2.143680
    131          1           0      -12.428220    1.270325   -1.463924
    132          1           0      -15.094724    1.698653   -0.847442
    133          1           0      -15.190379    0.757659   -2.397502
    134          1           0      -13.231709    2.582845   -2.934653
    135          1           0      -13.324090    4.468819   -2.010141
    136          1           0      -14.118266    3.772506   -0.756193
    137          1           0      -15.180717    4.633110   -1.906153
    138          1           0      -16.237072    2.133507   -3.555030
    139          1           0      -14.865309    2.475605   -4.569551
    140          1           0      -15.794105    3.787854   -3.839472
 ---------------------------------------------------------------------

 SCF Done:  E(RwB97XD) =  -3007.85334035     A.U. after   20 cycles

 Excitation energies and oscillator strengths:

 Excited State   1:      Singlet-A      1.6348 eV  758.40 nm  f=0.3721  <S**2>=0.000
     245 -> 248       -0.19673
     246 -> 247        0.68107
     245 <- 248       -0.12163
 This state for optimization and/or second-order correction.
 Total Energy, E(TD-HF/TD-DFT) =  -3007.79326190
 Copying the excited state density for this state as the 1-particle RhoCI density.

 Excited State   2:      Singlet-A      2.1710 eV  571.08 nm  f=0.1003  <S**2>=0.000
     245 -> 247        0.63493
     246 -> 248        0.30102

 Excited State   3:      Singlet-A      3.4212 eV  362.40 nm  f=0.0596  <S**2>=0.000
     244 -> 247        0.63497
     246 -> 248       -0.26706

 Excited State   4:      Singlet-A      3.5495 eV  349.31 nm  f=0.6893  <S**2>=0.000
     241 -> 247       -0.10104
     242 -> 247       -0.17184
     244 -> 247        0.25352
     245 -> 247       -0.27543
     246 -> 248        0.55522
     245 <- 247        0.10861

 Excited State   5:      Singlet-A      3.6900 eV  336.00 nm  f=0.0213  <S**2>=0.000
     239 -> 247        0.49269
     239 -> 249       -0.37389
     239 -> 250        0.19074
     241 -> 247       -0.11339

 The electronic state is 1-A.
 Alpha  occ. eigenvalues --  -46.94032 -19.31339 -19.29162 -19.26184 -19.25101
 Alpha  occ. eigenvalues --  -19.25050 -19.24695 -14.46236 -14.46000 -14.43910
 Alpha  occ. eigenvalues --  -14.43742 -10.44019 -10.42936 -10.40231 -10.39437
 Alpha  occ. eigenvalues --  -10.36871 -10.35089 -10.34805 -10.34376 -10.34214
 Alpha  occ. eigenvalues --  -10.33905 -10.33448 -10.33397 -10.33107 -10.32637
 Alpha  occ. eigenvalues --  -10.32537 -10.32064 -10.32043 -10.31761 -10.31735
 Alpha  occ. eigenvalues --  -10.31709 -10.31589 -10.31390 -10.31274 -10.31270
 Alpha  occ. eigenvalues --  -10.31247 -10.31051 -10.31037 -10.30712 -10.30703
 Alpha  occ. eigenvalues --  -10.30677 -10.30461 -10.30339 -10.30162 -10.30043
 Alpha  occ. eigenvalues --  -10.29748 -10.29747 -10.29700 -10.29694 -10.29664
 Alpha  occ. eigenvalues --  -10.29542 -10.29448 -10.29389 -10.29354 -10.29200
 Alpha  occ. eigenvalues --  -10.29127 -10.28931 -10.28588 -10.28578 -10.28424
 Alpha  occ. eigenvalues --  -10.28351 -10.28281 -10.28101 -10.28052 -10.28051
 Alpha  occ. eigenvalues --  -10.27970  -3.20105  -1.93707  -1.93207  -1.93112
 Alpha  occ. eigenvalues --   -1.18408  -1.17449  -1.13363  -1.12194  -1.10534
 Alpha  occ. eigenvalues --   -1.10147  -1.07064  -1.06081  -1.04610  -1.02904
 Alpha  occ. eigenvalues --   -0.94765  -0.92798  -0.92368  -0.91539  -0.90789
 Alpha  occ. eigenvalues --   -0.90268  -0.89862  -0.89709  -0.89308  -0.88966
 Alpha  occ. eigenvalues --   -0.88460  -0.87809  -0.85915  -0.85487  -0.85132
 Alpha  occ. eigenvalues --   -0.84141  -0.83710  -0.83277  -0.82893  -0.82271
 Alpha  occ. eigenvalues --   -0.81592  -0.80513  -0.79636  -0.78573  -0.77730
 Alpha  occ. eigenvalues --   -0.77432  -0.77228  -0.77029  -0.76712  -0.76066
 Alpha  occ. eigenvalues --   -0.75434  -0.74545  -0.73651  -0.73023  -0.71085
 Alpha  occ. eigenvalues --   -0.70615  -0.70477  -0.68973  -0.68501  -0.67777
 Alpha  occ. eigenvalues --   -0.67156  -0.66953  -0.66492  -0.66283  -0.65953
 Alpha  occ. eigenvalues --   -0.65535  -0.65099  -0.64372  -0.63161  -0.62623
 Alpha  occ. eigenvalues --   -0.61719  -0.61355  -0.61054  -0.60351  -0.60009
 Alpha  occ. eigenvalues --   -0.59462  -0.59277  -0.58151  -0.58046  -0.57508
 Alpha  occ. eigenvalues --   -0.57298  -0.57075  -0.56380  -0.56263  -0.56025
 Alpha  occ. eigenvalues --   -0.55872  -0.55219  -0.55093  -0.54806  -0.54744
 Alpha  occ. eigenvalues --   -0.54394  -0.54321  -0.54205  -0.54022  -0.53797
 Alpha  occ. eigenvalues --   -0.53487  -0.53388  -0.53187  -0.52898  -0.52608
 Alpha  occ. eigenvalues --   -0.52430  -0.52203  -0.52177  -0.51742  -0.51593
 Alpha  occ. eigenvalues --   -0.51416  -0.51215  -0.51189  -0.50971  -0.50672
 Alpha  occ. eigenvalues --   -0.50553  -0.50405  -0.50198  -0.49706  -0.49348
 Alpha  occ. eigenvalues --   -0.49087  -0.48995  -0.48691  -0.48570  -0.48480
 Alpha  occ. eigenvalues --   -0.48358  -0.48272  -0.48021  -0.47778  -0.47494
 Alpha  occ. eigenvalues --   -0.47435  -0.47319  -0.47221  -0.46940  -0.46897
 Alpha  occ. eigenvalues --   -0.46777  -0.46645  -0.46532  -0.46083  -0.45959
 Alpha  occ. eigenvalues --   -0.45563  -0.45397  -0.45155  -0.45105  -0.44845
 Alpha  occ. eigenvalues --   -0.44661  -0.44486  -0.44258  -0.44022  -0.43871
 Alpha  occ. eigenvalues --   -0.43624  -0.43423  -0.43359  -0.43225  -0.43128
 Alpha  occ. eigenvalues --   -0.42938  -0.42781  -0.42677  -0.42448  -0.41736
 Alpha  occ. eigenvalues --   -0.41626  -0.41312  -0.41256  -0.41117  -0.40924
 Alpha  occ. eigenvalues --   -0.40516  -0.40281  -0.39750  -0.39623  -0.39529
 Alpha  occ. eigenvalues --   -0.39281  -0.38909  -0.38412  -0.38398  -0.38143
 Alpha  occ. eigenvalues --   -0.37924  -0.37755  -0.37443  -0.36948  -0.36382
 Alpha  occ. eigenvalues --   -0.36173  -0.35406  -0.35153  -0.33364  -0.33174
 Alpha  occ. eigenvalues --   -0.33098  -0.32706  -0.31774  -0.31462  -0.25493
 Alpha  occ. eigenvalues --   -0.22550
 Alpha virt. eigenvalues --   -0.06624   0.00408   0.02412   0.04455   0.05129
 Alpha virt. eigenvalues --    0.06494   0.06613   0.07670   0.08751   0.09185
 Alpha virt. eigenvalues --    0.10187   0.11656   0.12036   0.12250   0.12356

 Mulliken charges:
               1
     1  Mg   0.976141
     2  C   -0.045911
     3  C   -0.077708
     4  C   -0.053886
     5  C   -0.127306
     6  N   -0.355919
     7  C    0.035115
     8  C   -0.070247
     9  C   -0.115022
    10  C    0.074475
    11  C    0.030606
    12  C    0.056815
    13  C    0.032477
    14  C    0.209913
    15  O   -0.268057
    16  O   -0.374820
    17  N   -0.460567
    18  C    0.162123
    19  C   -0.157330
    20  C   -0.119076
    21  C    0.146628
    22  C    0.043463
    23  C    0.087035
    24  O   -0.214976
    25  C   -0.023598
    26  N   -0.329497
    27  C    0.039437
    28  C   -0.125554
    29  C   -0.074591
    30  C    0.060252
    31  C    0.045490
    32  C   -0.010635
    33  C   -0.067085
    34  N   -0.494827
    35  C    0.177018
    36  C   -0.224622
    37  C    0.000966
    38  C    0.150226
    39  C    0.075406
    40  C    0.151481
    41  O   -0.198816
    42  C   -0.138337
    43  C    0.298565
    44  O   -0.237903
    45  O   -0.367940
    46  C    0.130283
    47  C    0.242834
    48  C   -0.111456
    49  C   -0.231762
    50  C    0.057359
    51  C    0.020218
    52  C   -0.040850
    53  C    0.037135
    54  C   -0.174660
    55  C    0.010715
    56  C    0.002749
    57  C   -0.055735
    58  C    0.025309
    59  C   -0.182968
    60  C    0.002592
    61  C    0.052186
    62  C   -0.044462
    63  C    0.005488
    64  C   -0.239342
    65  C    0.005328
    66  C   -0.009921
    67  H   -0.016061
    68  H    0.035731
    69  H   -0.012095
    70  H    0.044410
    71  H    0.043740
    72  H    0.052579
    73  H    0.045176
    74  H    0.042428
    75  H    0.036172
    76  H    0.028280
    77  H    0.054205
    78  H    0.063365
    79  H    0.025575
    80  H    0.054922
    81  H    0.045203
    82  H    0.059523
    83  H    0.062797
    84  H    0.043492
    85  H    0.033505
    86  H    0.019282
    87  H    0.035343
    88  H    0.050109
    89  H    0.043632
    90  H    0.043726
    91  H    0.030457
    92  H    0.036857
    93  H    0.039149
    94  H    0.044770
    95  H    0.035276
    96  H    0.058686
    97  H    0.050037
    98  H    0.085412
    99  H    0.060928
   100  H    0.041039
   101  H    0.046084
   102  H    0.050285
   103  H    0.046998
   104  H    0.017151
   105  H    0.034388
   106  H    0.045523
   107  H    0.033131
   108  H    0.016688
   109  H    0.031506
   110  H    0.025279
   111  H    0.019573
   112  H    0.014317
   113  H    0.025662
   114  H    0.017794
   115  H    0.020057
   116  H    0.015845
   117  H    0.023766
   118  H    0.012156
   119  H    0.004980
   120  H    0.016403
   121  H    0.018467
   122  H    0.007749
   123  H    0.014562
   124  H    0.017628
   125  H    0.033776
   126  H    0.028447
   127  H    0.034966
   128  H    0.001521
   129  H    0.020253
   130  H    0.021563
   131  H    0.016863
   132  H    0.015659
   133  H    0.023216
   134  H    0.028803
   135  H    0.021656
   136  H    0.002887
   137  H    0.046329
   138  H    0.033641
   139  H    0.027040
   140  H    0.029297
 Sum of Mulliken charges =  -0.00000

 Dipole moment (field-independent basis, Debye):
    X=             -4.9048    Y=              1.0268    Z=              3.3147  Tot=              6.0082
 Quadrupole moment (field-independent basis, Debye-Ang):
   XX=           -383.3472   YY=           -427.2648   ZZ=           -404.5219
   XY=             24.3796   XZ=             10.8926   YZ=             -8.3590

 Normal termination of Gaussian 16 at Wed May  4 04:51:27 2022.
