 Gaussian 16, Revision A.03,
 Gaussian 16:  ES64L-G16RevA.03 25-Dec-2016

 --------------------
 #p ZINDO=(nstates=5)
 --------------------

 ------------------------------
 step_1351_chromophore_24 ZINDO
 ------------------------------
 Symbolic Z-matrix:
 Charge =  0 Multiplicity = 1

                         Standard orientation:
 ---------------------------------------------------------------------
 Center     Atomic      Atomic             Coordinates (Angstroms)
 Number     Number       Type             X           Y           Z
 ---------------------------------------------------------------------
      1         12           0        5.264804    1.048293    0.173536
      2          6           0        4.796411   -2.394086   -0.064302
      3          6           0        1.738315    1.368695    0.028444
      4          6           0        5.635935    4.474336   -0.037797
      5          6           0        8.587041    0.586533   -0.119706
      6          7           0        3.470898   -0.351466    0.181372
      7          6           0        3.541649   -1.728471    0.047387
      8          6           0        2.144547   -2.272279    0.127234
      9          6           0        1.189263   -1.097999   -0.127179
     10          6           0        2.143317    0.037847   -0.013682
     11          6           0        0.439198   -1.098294   -1.485386
     12          6           0        1.886240   -2.893127    1.514403
     13          6           0        0.597381   -3.714871    1.553155
     14          6           0       -0.163696   -4.033254    0.383927
     15          8           0        0.173850   -4.841613   -0.481959
     16          8           0       -1.454300   -3.494305    0.514271
     17          7           0        3.881752    2.668105    0.079468
     18          6           0        2.496420    2.589885    0.066586
     19          6           0        1.978062    3.942790    0.139969
     20          6           0        3.068365    4.866348   -0.036611
     21          6           0        4.272426    4.012597    0.026043
     22          6           0        0.530582    4.273727    0.209636
     23          6           0        3.155999    6.436519   -0.086202
     24          8           0        4.148189    7.097906   -0.288022
     25          6           0        1.797601    7.066277   -0.129832
     26          7           0        6.984819    2.296219    0.068062
     27          6           0        6.856308    3.653491   -0.046831
     28          6           0        8.244472    4.231009   -0.370548
     29          6           0        9.195666    3.026816   -0.056558
     30          6           0        8.201336    1.869313   -0.068247
     31          6           0        8.374347    4.657195   -1.891917
     32          6           0       10.098817    3.071447    1.234246
     33          6           0        9.350354    3.392120    2.519472
     34          7           0        6.434143   -0.511321   -0.054923
     35          6           0        7.815656   -0.580802   -0.057782
     36          6           0        8.236988   -1.943663   -0.272505
     37          6           0        7.123846   -2.710243   -0.236995
     38          6           0        6.071057   -1.814542   -0.050738
     39          6           0        9.593903   -2.442118   -0.598081
     40          6           0        6.559622   -4.082754   -0.348967
     41          8           0        7.047208   -5.176084   -0.635671
     42          6           0        4.995714   -3.871542   -0.124166
     43          6           0        4.381618   -4.434625   -1.361166
     44          8           0        4.136345   -3.821359   -2.386795
     45          8           0        3.969488   -5.717627   -0.998770
     46          6           0        3.021931   -6.326215   -1.889195
     47          6           0       -2.390919   -4.085430   -0.490441
     48          6           0       -3.658478   -3.215101   -0.268504
     49          6           0       -4.875438   -3.520644    0.329963
     50          6           0       -5.066561   -4.771928    1.069896
     51          6           0       -6.006458   -2.461239    0.447823
     52          6           0       -5.792821   -1.481282    1.693069
     53          6           0       -6.494549   -0.011326    1.583555
     54          6           0       -7.903419   -0.045293    2.225460
     55          6           0       -7.851968    0.490750    3.630024
     56          6           0       -8.937542    0.763207    1.420685
     57          6           0       -9.693516   -0.135328    0.415069
     58          6           0      -11.025257   -0.585365    1.056124
     59          6           0      -12.183640    0.479362    0.948433
     60          6           0      -12.688105    1.000190    2.285443
     61          6           0      -13.312014   -0.010371    0.029656
     62          6           0      -13.297062    0.619963   -1.364035
     63          6           0      -14.573940    1.381127   -1.750711
     64          6           0      -14.270358    2.672877   -2.614291
     65          6           0      -14.292217    4.010559   -1.805273
     66          6           0      -15.377810    2.796387   -3.662568
     67          1           0        0.659472    1.524745   -0.042157
     68          1           0        5.868494    5.537315   -0.131014
     69          1           0        9.657094    0.403449   -0.243015
     70          1           0        2.188743   -3.039471   -0.647180
     71          1           0        0.429528   -1.052576    0.652003
     72          1           0        0.654841   -2.005850   -2.049528
     73          1           0        0.758783   -0.290629   -2.143102
     74          1           0       -0.614993   -0.996451   -1.227417
     75          1           0        1.819692   -2.089045    2.247628
     76          1           0        2.711877   -3.541781    1.805826
     77          1           0       -0.067112   -3.392709    2.353901
     78          1           0        0.908788   -4.700949    1.896787
     79          1           0       -0.219209    3.492810    0.332680
     80          1           0        0.318184    4.753097   -0.745544
     81          1           0        0.205956    4.833592    1.086039
     82          1           0        1.290097    6.909304    0.822691
     83          1           0        1.218480    6.763425   -1.002257
     84          1           0        2.025254    8.115966   -0.314352
     85          1           0        8.511988    5.067728    0.275371
     86          1           0        9.914041    2.777793   -0.838031
     87          1           0        7.349628    4.943219   -2.132007
     88          1           0        8.737645    3.800082   -2.458816
     89          1           0        8.950436    5.581732   -1.939266
     90          1           0       10.871170    3.790082    0.959050
     91          1           0       10.446972    2.060253    1.445512
     92          1           0        9.983613    4.111805    3.037404
     93          1           0        9.236144    2.477170    3.100240
     94          1           0        8.361515    3.842509    2.435724
     95          1           0       10.327777   -1.668994   -0.822845
     96          1           0        9.387523   -3.127864   -1.419802
     97          1           0       10.042249   -3.115599    0.131920
     98          1           0        4.648956   -4.352804    0.790236
     99          1           0        2.041782   -5.867488   -1.758651
    100          1           0        2.913960   -7.390027   -1.676225
    101          1           0        3.356958   -6.292241   -2.925705
    102          1           0       -2.579207   -5.158657   -0.522783
    103          1           0       -2.057195   -3.915994   -1.514366
    104          1           0       -3.632881   -2.205462   -0.677579
    105          1           0       -5.942772   -5.232574    0.612794
    106          1           0       -5.322833   -4.529767    2.102263
    107          1           0       -4.233143   -5.466748    0.971404
    108          1           0       -6.987709   -2.925712    0.544436
    109          1           0       -6.160721   -1.982269   -0.518723
    110          1           0       -4.737567   -1.366537    1.938064
    111          1           0       -6.111712   -2.014721    2.588105
    112          1           0       -6.614148    0.234139    0.528735
    113          1           0       -5.860683    0.762329    2.017008
    114          1           0       -8.251511   -1.078661    2.225659
    115          1           0       -7.107237    1.250877    3.864437
    116          1           0       -7.552788   -0.300613    4.317840
    117          1           0       -8.805182    0.902824    3.961108
    118          1           0       -8.419841    1.521514    0.833714
    119          1           0       -9.646600    1.188914    2.131768
    120          1           0       -9.104369   -0.950689   -0.006059
    121          1           0       -9.777866    0.591976   -0.391980
    122          1           0      -10.939804   -0.843975    2.112457
    123          1           0      -11.108600   -1.575259    0.607364
    124          1           0      -11.729730    1.319508    0.423905
    125          1           0      -13.698229    1.409292    2.281322
    126          1           0      -11.992164    1.822960    2.453394
    127          1           0      -12.570946    0.306965    3.118418
    128          1           0      -14.235050    0.310412    0.512401
    129          1           0      -13.313191   -1.095887   -0.065099
    130          1           0      -13.270947   -0.141336   -2.143680
    131          1           0      -12.428220    1.270325   -1.463924
    132          1           0      -15.094724    1.698653   -0.847442
    133          1           0      -15.190379    0.757659   -2.397502
    134          1           0      -13.231709    2.582845   -2.934653
    135          1           0      -13.324090    4.468819   -2.010141
    136          1           0      -14.118266    3.772506   -0.756193
    137          1           0      -15.180717    4.633110   -1.906153
    138          1           0      -16.237072    2.133507   -3.555030
    139          1           0      -14.865309    2.475605   -4.569551
    140          1           0      -15.794105    3.787854   -3.839472
 ---------------------------------------------------------------------

 SCF Done:  E(RZINDO/S) =  -474.356986840     A.U. after   21 cycles

 Excitation energies and oscillator strengths:

 Excited State   1:      Singlet-A      1.2251 eV 1012.05 nm  f=0.5863  <S**2>=0.000
     175 ->178         0.20075
     176 ->177         0.66038
 This state for optimization and/or second-order correction.
 Total Energy, E(CIS/TDA) =  -474.311966149
 Copying the excited state density for this state as the 1-particle RhoCI density.

 Excited State   2:      Singlet-A      1.9114 eV  648.67 nm  f=0.0364  <S**2>=0.000
     175 ->177         0.54111
     176 ->178        -0.43221

 Excited State   3:      Singlet-A      2.9746 eV  416.81 nm  f=0.2418  <S**2>=0.000
     168 ->177        -0.10992
     168 ->179         0.15706
     175 ->177         0.19310
     176 ->178         0.28240
     176 ->179         0.52815
     176 ->182         0.10904

 Excited State   4:      Singlet-A      3.0183 eV  410.78 nm  f=0.9271  <S**2>=0.000
     175 ->177         0.33858
     176 ->178         0.42412
     176 ->179        -0.36479
     176 ->181        -0.16034

 Excited State   5:      Singlet-A      3.0551 eV  405.83 nm  f=0.0966  <S**2>=0.000
     168 ->177        -0.29408
     168 ->178         0.11346
     168 ->179         0.42177
     168 ->181        -0.19866
     168 ->186         0.15927
     168 ->187        -0.12797
     175 ->177        -0.10661
     176 ->178        -0.14387
     176 ->179        -0.16386

 The electronic state is 1-A.
 Alpha  occ. eigenvalues --   -1.87191  -1.82692  -1.79089  -1.73040  -1.72109
 Alpha  occ. eigenvalues --   -1.70070  -1.66759  -1.60824  -1.58934  -1.57944
 Alpha  occ. eigenvalues --   -1.54524  -1.52130  -1.49657  -1.48416  -1.45571
 Alpha  occ. eigenvalues --   -1.44212  -1.43041  -1.40669  -1.38708  -1.38591
 Alpha  occ. eigenvalues --   -1.36755  -1.35143  -1.31968  -1.30991  -1.29353
 Alpha  occ. eigenvalues --   -1.28381  -1.23930  -1.22597  -1.20743  -1.18504
 Alpha  occ. eigenvalues --   -1.17429  -1.15950  -1.14605  -1.14480  -1.13543
 Alpha  occ. eigenvalues --   -1.12812  -1.10485  -1.10049  -1.04708  -1.03046
 Alpha  occ. eigenvalues --   -1.02340  -1.01192  -0.98365  -0.98028  -0.96529
 Alpha  occ. eigenvalues --   -0.95713  -0.94533  -0.93736  -0.93510  -0.93196
 Alpha  occ. eigenvalues --   -0.92594  -0.90128  -0.89561  -0.88316  -0.86678
 Alpha  occ. eigenvalues --   -0.85007  -0.84572  -0.83106  -0.82363  -0.80899
 Alpha  occ. eigenvalues --   -0.78930  -0.78109  -0.77079  -0.76518  -0.75959
 Alpha  occ. eigenvalues --   -0.75750  -0.75271  -0.74525  -0.74496  -0.73945
 Alpha  occ. eigenvalues --   -0.73347  -0.72550  -0.72187  -0.71493  -0.71126
 Alpha  occ. eigenvalues --   -0.70520  -0.69575  -0.69089  -0.68700  -0.68283
 Alpha  occ. eigenvalues --   -0.67291  -0.67177  -0.66917  -0.66652  -0.65718
 Alpha  occ. eigenvalues --   -0.65328  -0.64671  -0.64199  -0.63644  -0.63548
 Alpha  occ. eigenvalues --   -0.63104  -0.62468  -0.62182  -0.62067  -0.61783
 Alpha  occ. eigenvalues --   -0.61528  -0.61364  -0.60784  -0.60462  -0.60111
 Alpha  occ. eigenvalues --   -0.59910  -0.59370  -0.59103  -0.58649  -0.57853
 Alpha  occ. eigenvalues --   -0.57458  -0.57409  -0.57102  -0.57062  -0.56429
 Alpha  occ. eigenvalues --   -0.56138  -0.55404  -0.55179  -0.54879  -0.54577
 Alpha  occ. eigenvalues --   -0.54114  -0.53492  -0.53368  -0.53239  -0.52614
 Alpha  occ. eigenvalues --   -0.52138  -0.51786  -0.51692  -0.51205  -0.51104
 Alpha  occ. eigenvalues --   -0.50949  -0.50371  -0.50313  -0.50132  -0.49851
 Alpha  occ. eigenvalues --   -0.49276  -0.49040  -0.48966  -0.48863  -0.48650
 Alpha  occ. eigenvalues --   -0.48323  -0.48242  -0.47709  -0.47576  -0.47309
 Alpha  occ. eigenvalues --   -0.47174  -0.46941  -0.46576  -0.46568  -0.46276
 Alpha  occ. eigenvalues --   -0.45770  -0.45666  -0.45555  -0.45376  -0.45202
 Alpha  occ. eigenvalues --   -0.45174  -0.44971  -0.44722  -0.44464  -0.44074
 Alpha  occ. eigenvalues --   -0.43957  -0.43817  -0.43011  -0.42886  -0.42336
 Alpha  occ. eigenvalues --   -0.41824  -0.41036  -0.40783  -0.39645  -0.38370
 Alpha  occ. eigenvalues --   -0.38193  -0.36968  -0.35641  -0.35180  -0.34576
 Alpha  occ. eigenvalues --   -0.33534  -0.32237  -0.31773  -0.31727  -0.26160
 Alpha  occ. eigenvalues --   -0.21316
 Alpha virt. eigenvalues --   -0.08123  -0.01823  -0.00438   0.00795   0.01395
 Alpha virt. eigenvalues --    0.02921   0.03290   0.03426   0.03932   0.04840
 Alpha virt. eigenvalues --    0.06450   0.07137   0.07617   0.07813   0.08615

 Mulliken charges:
               1
     1  Mg   0.419534
     2  C   -0.056215
     3  C   -0.083722
     4  C   -0.063656
     5  C   -0.062406
     6  N   -0.310044
     7  C    0.133490
     8  C    0.016553
     9  C    0.012920
    10  C    0.131030
    11  C   -0.050537
    12  C   -0.009174
    13  C    0.006396
    14  C    0.482495
    15  O   -0.523473
    16  O   -0.268163
    17  N   -0.329082
    18  C    0.104870
    19  C    0.011125
    20  C   -0.066799
    21  C    0.115610
    22  C   -0.048198
    23  C    0.333309
    24  O   -0.503217
    25  C   -0.037376
    26  N   -0.244706
    27  C    0.112603
    28  C    0.004150
    29  C   -0.012153
    30  C    0.142823
    31  C   -0.056431
    32  C   -0.029069
    33  C   -0.055782
    34  N   -0.322770
    35  C    0.089876
    36  C    0.050579
    37  C   -0.046924
    38  C    0.125240
    39  C   -0.044278
    40  C    0.332045
    41  O   -0.505458
    42  C    0.052815
    43  C    0.495560
    44  O   -0.514049
    45  O   -0.269321
    46  C    0.073180
    47  C    0.104677
    48  C   -0.109061
    49  C   -0.003165
    50  C   -0.037535
    51  C   -0.019982
    52  C   -0.039518
    53  C   -0.035169
    54  C   -0.005399
    55  C   -0.055341
    56  C   -0.040302
    57  C   -0.043807
    58  C   -0.036166
    59  C   -0.005377
    60  C   -0.055213
    61  C   -0.034822
    62  C   -0.039966
    63  C   -0.041064
    64  C   -0.019866
    65  C   -0.068419
    66  C   -0.055426
    67  H    0.018082
    68  H    0.055905
    69  H    0.016008
    70  H    0.046145
    71  H    0.030193
    72  H    0.030816
    73  H    0.026961
    74  H    0.021619
    75  H    0.027161
    76  H    0.023227
    77  H    0.029892
    78  H    0.038906
    79  H    0.017003
    80  H    0.030761
    81  H    0.027960
    82  H    0.041211
    83  H    0.043484
    84  H    0.027545
    85  H    0.030410
    86  H    0.017709
    87  H    0.026571
    88  H    0.035925
    89  H    0.026422
    90  H    0.025569
    91  H    0.024889
    92  H    0.014333
    93  H    0.019701
    94  H    0.025723
    95  H    0.025483
    96  H    0.038073
    97  H    0.033233
    98  H    0.059014
    99  H    0.048038
   100  H    0.026246
   101  H    0.043887
   102  H    0.058381
   103  H    0.042521
   104  H    0.023964
   105  H    0.022866
   106  H    0.032424
   107  H    0.026056
   108  H    0.016046
   109  H    0.025130
   110  H    0.017580
   111  H    0.018841
   112  H    0.017376
   113  H    0.025900
   114  H    0.023569
   115  H    0.017508
   116  H    0.006188
   117  H    0.015351
   118  H    0.015291
   119  H    0.025136
   120  H    0.022256
   121  H    0.013848
   122  H    0.015929
   123  H    0.015428
   124  H    0.021043
   125  H    0.023642
   126  H    0.010781
   127  H    0.022712
   128  H    0.015992
   129  H    0.020362
   130  H    0.014263
   131  H    0.023833
   132  H    0.023048
   133  H    0.021851
   134  H    0.031180
   135  H    0.016421
   136  H    0.006764
   137  H    0.035367
   138  H    0.021849
   139  H    0.007743
   140  H    0.019176
 Sum of Mulliken charges =  -0.00000

 Dipole moment (field-independent basis, Debye):
    X=             -5.5220    Y=              1.1621    Z=              5.1387  Tot=              7.6321
 N-N= 4.326353337356D+03 E-N= 0.000000000000D+00  KE=-9.327325029780D+03
 Leave Link  601 at Wed May  4 05:03:17 2022, MaxMem=  6710886400 cpu:               0.7 elap:               0.0
 (Enter /sw/apps/gaussian-16.0/g16/l9999.exe)
 1\1\GINC-BP1-COMPUTE067\SP\RZINDO CIS\STO-3G\C55H74Mg1N4O6\OF15641\04-
 May-2022\0\\#p ZINDO=(nstates=5)\\step_1351_chromophore_24 ZINDO\\0,1\
 Mg,0,-0.435,43.653,24.99\C,0,2.054,43.324,27.403\C,0,-2.779,42.952,27.
 554\C,0,-2.928,43.523,22.605\C,0,1.94,43.888,22.615\N,0,-0.388,43.368,
 27.247\C,0,0.765,43.239,28.004\C,0,0.359,43.093,29.442\C,0,-1.124,42.6
 97,29.453\C,0,-1.472,42.967,28.032\C,0,-1.447,41.237,29.867\C,0,0.574,
 44.418,30.2\C,0,0.458,44.247,31.715\C,0,0.365,42.97,32.354\O,0,1.29,42

 Normal termination of Gaussian 16 at Wed May  4 05:03:17 2022.
