 Gaussian 16, Revision A.03,
 Gaussian 16:  ES64L-G16RevA.03 25-Dec-2016

 ------------------------------
 #p blyp/Def2SVP td=(nstates=5)
 ------------------------------

 --------------------------------------------------
 step_751_chromophore_20 TDDFT with blyp functional
 --------------------------------------------------
 Symbolic Z-matrix:
 Charge =  0 Multiplicity = 1

                         Standard orientation:
 ---------------------------------------------------------------------
 Center     Atomic      Atomic             Coordinates (Angstroms)
 Number     Number       Type             X           Y           Z
 ---------------------------------------------------------------------
      1         12           0        4.299551    1.163447   -0.425437
      2          6           0        3.572453   -2.335961   -0.690716
      3          6           0        1.704102    1.726361   -2.753715
      4          6           0        4.706736    4.377134   -0.032000
      5          6           0        6.448362    0.413943    2.131184
      6          7           0        2.708545   -0.196348   -1.504933
      7          6           0        2.740242   -1.577047   -1.531822
      8          6           0        1.733021   -2.065694   -2.604152
      9          6           0        1.396060   -0.746742   -3.386308
     10          6           0        1.993434    0.323147   -2.483634
     11          6           0        1.834164   -0.524141   -4.855118
     12          6           0        0.527847   -2.739324   -1.995479
     13          6           0        0.303152   -4.089374   -2.651316
     14          6           0       -0.671852   -5.064807   -1.991395
     15          8           0       -0.674636   -6.259557   -2.070427
     16          8           0       -1.731968   -4.404613   -1.415824
     17          7           0        3.319570    2.829473   -1.239519
     18          6           0        2.310797    2.852052   -2.148208
     19          6           0        1.976106    4.232645   -2.390867
     20          6           0        2.889666    5.091933   -1.699376
     21          6           0        3.668949    4.130878   -0.947216
     22          6           0        0.813118    4.671927   -3.165402
     23          6           0        2.893004    6.684420   -1.572689
     24          8           0        2.074252    7.363630   -2.140203
     25          6           0        3.889202    7.458071   -0.692841
     26          7           0        5.260203    2.218894    1.045201
     27          6           0        5.475524    3.560103    0.820325
     28          6           0        6.545670    4.084455    1.768660
     29          6           0        6.994241    2.828877    2.635125
     30          6           0        6.166421    1.727084    1.942308
     31          6           0        7.764959    4.676154    1.140261
     32          6           0        6.644473    2.952084    4.145393
     33          6           0        7.886585    3.069456    5.161020
     34          7           0        5.055415   -0.532554    0.442996
     35          6           0        6.002139   -0.665573    1.403666
     36          6           0        6.304674   -2.030035    1.573149
     37          6           0        5.414324   -2.696686    0.717712
     38          6           0        4.652429   -1.727126    0.112186
     39          6           0        7.297070   -2.518965    2.621703
     40          6           0        4.955773   -4.060692    0.336689
     41          8           0        5.343981   -5.146473    0.759677
     42          6           0        3.865192   -3.818827   -0.737354
     43          6           0        2.737351   -4.715907   -0.398308
     44          8           0        2.044085   -4.551467    0.579338
     45          8           0        2.845214   -5.886465   -1.132536
     46          6           0        2.063363   -7.037567   -0.681916
     47          6           0       -2.862983   -5.278154   -1.028842
     48          6           0       -4.002194   -4.427218   -0.465744
     49          6           0       -5.299759   -4.823328   -0.288226
     50          6           0       -5.681929   -6.250131   -0.255496
     51          6           0       -6.169020   -3.771118    0.396240
     52          6           0       -5.711220   -3.194153    1.795602
     53          6           0       -6.810374   -3.058254    2.820182
     54          6           0       -6.619108   -1.684937    3.635486
     55          6           0       -6.673735   -1.987126    5.158835
     56          6           0       -7.726624   -0.690504    3.285004
     57          6           0       -7.125808    0.721778    2.903321
     58          6           0       -6.936694    0.917793    1.334516
     59          6           0       -8.071828    1.638675    0.577854
     60          6           0       -8.015596    1.441777   -0.989341
     61          6           0       -8.183520    3.149541    1.016777
     62          6           0       -9.659338    3.656453    1.022898
     63          6           0       -9.920206    4.781572    0.008266
     64          6           0      -11.125404    4.519088   -0.900698
     65          6           0      -10.863173    5.208775   -2.264991
     66          6           0      -12.495362    4.886273   -0.176366
     67          1           0        1.013566    1.931698   -3.574059
     68          1           0        4.974941    5.432332    0.054192
     69          1           0        7.287505    0.239648    2.808750
     70          1           0        2.385996   -2.695353   -3.208111
     71          1           0        0.311542   -0.644089   -3.393483
     72          1           0        0.916191   -0.478502   -5.441036
     73          1           0        2.515068   -1.287625   -5.230735
     74          1           0        2.356722    0.418381   -5.021777
     75          1           0       -0.390540   -2.160677   -2.092134
     76          1           0        0.802060   -3.014955   -0.976964
     77          1           0        1.227466   -4.665102   -2.664430
     78          1           0        0.029928   -3.753613   -3.651708
     79          1           0        0.201775    5.451747   -2.710883
     80          1           0        0.236263    3.835268   -3.559791
     81          1           0        1.276480    5.084980   -4.061006
     82          1           0        4.909631    7.170474   -0.948203
     83          1           0        3.723506    7.232617    0.360156
     84          1           0        3.776619    8.539270   -0.772233
     85          1           0        6.064730    4.798255    2.438860
     86          1           0        8.046247    2.550083    2.568056
     87          1           0        8.075971    5.561441    1.694441
     88          1           0        7.513229    4.955858    0.117875
     89          1           0        8.637246    4.029486    1.236016
     90          1           0        5.934814    2.175606    4.429849
     91          1           0        6.098166    3.894840    4.113866
     92          1           0        8.777238    2.862641    4.567572
     93          1           0        7.778023    2.281629    5.905501
     94          1           0        7.924457    4.049498    5.636987
     95          1           0        7.555425   -3.574550    2.544921
     96          1           0        6.903095   -2.285864    3.610521
     97          1           0        8.179803   -1.950889    2.328252
     98          1           0        4.316690   -4.061449   -1.699706
     99          1           0        1.424100   -6.829959    0.175825
    100          1           0        2.919516   -7.586944   -0.291732
    101          1           0        1.665223   -7.542576   -1.561092
    102          1           0       -2.525691   -5.729905   -0.096153
    103          1           0       -3.058555   -6.018830   -1.804875
    104          1           0       -3.680968   -3.391941   -0.357623
    105          1           0       -6.400013   -6.378094   -1.065217
    106          1           0       -6.203525   -6.469029    0.676698
    107          1           0       -4.796099   -6.885798   -0.262754
    108          1           0       -7.135426   -4.249251    0.557728
    109          1           0       -6.372280   -2.989227   -0.334927
    110          1           0       -5.277025   -2.205010    1.653835
    111          1           0       -4.810073   -3.711093    2.124980
    112          1           0       -6.577187   -3.930845    3.430019
    113          1           0       -7.793414   -3.107063    2.352209
    114          1           0       -5.657168   -1.224806    3.411030
    115          1           0       -6.702635   -1.017968    5.657673
    116          1           0       -5.867141   -2.615489    5.536126
    117          1           0       -7.588126   -2.457639    5.520147
    118          1           0       -8.425216   -0.375767    4.059425
    119          1           0       -8.187721   -1.012889    2.351431
    120          1           0       -6.140790    0.820789    3.357849
    121          1           0       -7.828704    1.514821    3.161373
    122          1           0       -6.963115   -0.072911    0.880001
    123          1           0       -5.967898    1.402117    1.214872
    124          1           0       -8.995911    1.211374    0.966329
    125          1           0       -8.912758    0.853588   -1.176791
    126          1           0       -7.152334    0.819073   -1.222562
    127          1           0       -7.999897    2.301462   -1.659163
    128          1           0       -7.496145    3.697685    0.372153
    129          1           0       -7.856848    3.163107    2.056299
    130          1           0       -9.783547    4.079227    2.020339
    131          1           0      -10.390182    2.850811    0.954408
    132          1           0       -9.014208    4.917807   -0.582019
    133          1           0      -10.107362    5.658991    0.627102
    134          1           0      -11.128638    3.484103   -1.243878
    135          1           0      -11.842391    5.152942   -2.741153
    136          1           0      -10.126413    4.638999   -2.832124
    137          1           0      -10.411212    6.187661   -2.108175
    138          1           0      -13.052419    4.002059    0.132879
    139          1           0      -13.288929    5.234002   -0.838679
    140          1           0      -12.328132    5.552937    0.668493
 ---------------------------------------------------------------------

 SCF Done:  E(RB-LYP) =  -3007.35272595     A.U. after   20 cycles

 Excitation energies and oscillator strengths:

 Excited State   1:      Singlet-A      1.8344 eV  675.87 nm  f=0.2855  <S**2>=0.000
     245 -> 248        0.18199
     246 -> 247        0.68866
     246 <- 247       -0.14795
 This state for optimization and/or second-order correction.
 Total Energy, E(TD-HF/TD-DFT) =  -3007.28531166
 Copying the excited state density for this state as the 1-particle RhoCI density.

 Excited State   2:      Singlet-A      2.0161 eV  614.97 nm  f=0.0422  <S**2>=0.000
     243 -> 247       -0.43732
     245 -> 247        0.51340
     246 -> 248       -0.16772

 Excited State   3:      Singlet-A      2.0352 eV  609.19 nm  f=0.0002  <S**2>=0.000
     244 -> 247        0.70173

 Excited State   4:      Singlet-A      2.1315 eV  581.67 nm  f=0.0302  <S**2>=0.000
     242 -> 247        0.19379
     243 -> 247        0.53374
     245 -> 247        0.36402
     246 -> 248       -0.18484

 Excited State   5:      Singlet-A      2.1728 eV  570.63 nm  f=0.0074  <S**2>=0.000
     242 -> 247        0.67506
     243 -> 247       -0.11459
     245 -> 247       -0.13693

 The electronic state is 1-A.
 Alpha  occ. eigenvalues --  -46.27227 -18.81456 -18.81173 -18.76671 -18.76651
 Alpha  occ. eigenvalues --  -18.76579 -18.76104 -14.03259 -14.03049 -14.01138
 Alpha  occ. eigenvalues --  -14.00402 -10.03605 -10.03475 -10.01329  -9.99982
 Alpha  occ. eigenvalues --   -9.97371  -9.96979  -9.96944  -9.96570  -9.96204
 Alpha  occ. eigenvalues --   -9.96110  -9.95845  -9.95732  -9.94265  -9.94232
 Alpha  occ. eigenvalues --   -9.94224  -9.94092  -9.93984  -9.93955  -9.93908
 Alpha  occ. eigenvalues --   -9.93873  -9.93826  -9.93532  -9.93282  -9.93034
 Alpha  occ. eigenvalues --   -9.92887  -9.92803  -9.92802  -9.92769  -9.92723
 Alpha  occ. eigenvalues --   -9.92585  -9.92406  -9.92275  -9.92244  -9.92170
 Alpha  occ. eigenvalues --   -9.92136  -9.92124  -9.91948  -9.91857  -9.91795
 Alpha  occ. eigenvalues --   -9.91740  -9.91588  -9.91414  -9.91155  -9.91101
 Alpha  occ. eigenvalues --   -9.91098  -9.91031  -9.91025  -9.91005  -9.90842
 Alpha  occ. eigenvalues --   -9.90688  -9.90595  -9.90521  -9.90517  -9.90475
 Alpha  occ. eigenvalues --   -9.90384  -2.91911  -1.72317  -1.71824  -1.71607
 Alpha  occ. eigenvalues --   -0.97975  -0.97196  -0.93230  -0.91177  -0.90036
 Alpha  occ. eigenvalues --   -0.89780  -0.87936  -0.86468  -0.86007  -0.85305
 Alpha  occ. eigenvalues --   -0.75615  -0.73566  -0.73114  -0.72547  -0.72438
 Alpha  occ. eigenvalues --   -0.72413  -0.71674  -0.71062  -0.70402  -0.70296
 Alpha  occ. eigenvalues --   -0.69939  -0.69246  -0.67819  -0.67746  -0.67235
 Alpha  occ. eigenvalues --   -0.65918  -0.65700  -0.65261  -0.64955  -0.64644
 Alpha  occ. eigenvalues --   -0.63680  -0.62436  -0.62105  -0.61869  -0.60673
 Alpha  occ. eigenvalues --   -0.60417  -0.60220  -0.60005  -0.59377  -0.58402
 Alpha  occ. eigenvalues --   -0.57974  -0.57165  -0.56597  -0.55090  -0.54730
 Alpha  occ. eigenvalues --   -0.53869  -0.53551  -0.52650  -0.52001  -0.51949
 Alpha  occ. eigenvalues --   -0.51461  -0.51089  -0.50926  -0.50501  -0.49972
 Alpha  occ. eigenvalues --   -0.49078  -0.48783  -0.47794  -0.47476  -0.46657
 Alpha  occ. eigenvalues --   -0.46463  -0.45888  -0.45719  -0.45259  -0.45087
 Alpha  occ. eigenvalues --   -0.44529  -0.43696  -0.43214  -0.42657  -0.42381
 Alpha  occ. eigenvalues --   -0.42126  -0.41570  -0.41511  -0.41067  -0.40782
 Alpha  occ. eigenvalues --   -0.40656  -0.40509  -0.40286  -0.40030  -0.39818
 Alpha  occ. eigenvalues --   -0.39722  -0.39512  -0.39466  -0.39421  -0.39191
 Alpha  occ. eigenvalues --   -0.39083  -0.38922  -0.38765  -0.38653  -0.38357
 Alpha  occ. eigenvalues --   -0.38329  -0.38127  -0.37877  -0.37679  -0.37249
 Alpha  occ. eigenvalues --   -0.36995  -0.36918  -0.36797  -0.36492  -0.36277
 Alpha  occ. eigenvalues --   -0.36180  -0.36094  -0.35866  -0.35730  -0.35695
 Alpha  occ. eigenvalues --   -0.35579  -0.35574  -0.35336  -0.35179  -0.35090
 Alpha  occ. eigenvalues --   -0.34827  -0.34548  -0.34334  -0.34036  -0.33992
 Alpha  occ. eigenvalues --   -0.33755  -0.33556  -0.33509  -0.33396  -0.33051
 Alpha  occ. eigenvalues --   -0.32794  -0.32752  -0.32704  -0.32483  -0.32195
 Alpha  occ. eigenvalues --   -0.32177  -0.31914  -0.31669  -0.31644  -0.31560
 Alpha  occ. eigenvalues --   -0.31361  -0.31171  -0.31022  -0.30794  -0.30685
 Alpha  occ. eigenvalues --   -0.30592  -0.30411  -0.30036  -0.29882  -0.29607
 Alpha  occ. eigenvalues --   -0.29531  -0.29436  -0.29313  -0.29035  -0.28843
 Alpha  occ. eigenvalues --   -0.28686  -0.28377  -0.28174  -0.27823  -0.27709
 Alpha  occ. eigenvalues --   -0.27387  -0.27107  -0.26983  -0.26719  -0.26495
 Alpha  occ. eigenvalues --   -0.26157  -0.25790  -0.25318  -0.25064  -0.24960
 Alpha  occ. eigenvalues --   -0.24824  -0.24225  -0.23933  -0.23866  -0.23743
 Alpha  occ. eigenvalues --   -0.23263  -0.22451  -0.21882  -0.21768  -0.20690
 Alpha  occ. eigenvalues --   -0.20453  -0.19432  -0.19110  -0.19026  -0.17457
 Alpha  occ. eigenvalues --   -0.15905
 Alpha virt. eigenvalues --   -0.11548  -0.06930  -0.06034  -0.04744  -0.02783
 Alpha virt. eigenvalues --   -0.02620  -0.02538  -0.01867  -0.01437  -0.00514
 Alpha virt. eigenvalues --    0.00918   0.01770   0.02381   0.02734   0.03119

 Mulliken charges:
               1
     1  Mg   0.689618
     2  C   -0.013844
     3  C   -0.080182
     4  C   -0.043959
     5  C   -0.080360
     6  N   -0.150183
     7  C   -0.119649
     8  C    0.075291
     9  C   -0.026310
    10  C   -0.004239
    11  C    0.128279
    12  C    0.146232
    13  C    0.053426
    14  C    0.109233
    15  O   -0.173767
    16  O   -0.290532
    17  N   -0.279860
    18  C    0.155415
    19  C   -0.168553
    20  C    0.027762
    21  C    0.114196
    22  C    0.200552
    23  C   -0.056599
    24  O   -0.139371
    25  C    0.130777
    26  N   -0.264746
    27  C    0.027186
    28  C    0.040567
    29  C   -0.029602
    30  C    0.030114
    31  C    0.152458
    32  C    0.088185
    33  C    0.062964
    34  N   -0.228360
    35  C    0.110336
    36  C   -0.196811
    37  C    0.054561
    38  C    0.069589
    39  C    0.182212
    40  C   -0.031657
    41  O   -0.129864
    42  C    0.093392
    43  C    0.091644
    44  O   -0.169849
    45  O   -0.290445
    46  C    0.213766
    47  C    0.297977
    48  C   -0.116742
    49  C   -0.172797
    50  C    0.165152
    51  C    0.123508
    52  C    0.042056
    53  C    0.136112
    54  C   -0.050293
    55  C    0.088528
    56  C    0.117071
    57  C    0.024615
    58  C    0.071366
    59  C   -0.095360
    60  C    0.113076
    61  C    0.079049
    62  C    0.092296
    63  C    0.105909
    64  C   -0.086447
    65  C    0.090548
    66  C    0.103076
    67  H   -0.055395
    68  H   -0.109288
    69  H   -0.069947
    70  H   -0.036512
    71  H   -0.027820
    72  H   -0.008164
    73  H   -0.010233
    74  H   -0.004741
    75  H   -0.007238
    76  H    0.007029
    77  H    0.001135
    78  H    0.003485
    79  H    0.019739
    80  H   -0.030802
    81  H   -0.003187
    82  H    0.021676
    83  H    0.014682
    84  H   -0.008626
    85  H   -0.016044
    86  H   -0.020818
    87  H   -0.020670
    88  H   -0.008462
    89  H   -0.011582
    90  H   -0.008777
    91  H   -0.036921
    92  H   -0.010619
    93  H    0.002711
    94  H    0.006569
    95  H    0.000384
    96  H    0.013388
    97  H   -0.003329
    98  H    0.004517
    99  H    0.027509
   100  H    0.008580
   101  H    0.036720
   102  H    0.001169
   103  H    0.020028
   104  H   -0.021945
   105  H    0.002522
   106  H   -0.007883
   107  H   -0.004324
   108  H   -0.049971
   109  H   -0.014238
   110  H   -0.033964
   111  H   -0.027620
   112  H   -0.032482
   113  H   -0.017026
   114  H   -0.020824
   115  H   -0.025201
   116  H   -0.014378
   117  H   -0.020471
   118  H   -0.025279
   119  H   -0.031996
   120  H   -0.022417
   121  H   -0.030443
   122  H   -0.028892
   123  H   -0.031050
   124  H   -0.044686
   125  H   -0.013710
   126  H   -0.020569
   127  H   -0.005516
   128  H   -0.027030
   129  H   -0.039058
   130  H   -0.046515
   131  H   -0.026262
   132  H   -0.036429
   133  H   -0.031241
   134  H   -0.037854
   135  H   -0.017150
   136  H   -0.016307
   137  H   -0.012670
   138  H   -0.022269
   139  H   -0.028340
   140  H   -0.004373
 Sum of Mulliken charges =  -0.00000

 Dipole moment (field-independent basis, Debye):
    X=              1.0125    Y=              2.8106    Z=             -0.4178  Tot=              3.0164
 Quadrupole moment (field-independent basis, Debye-Ang):
   XX=           -366.3204   YY=           -440.4851   ZZ=           -394.3627
   XY=             40.7587   XZ=              3.0404   YZ=             19.6893

 Normal termination of Gaussian 16 at Thu May  5 08:15:18 2022.
