 Gaussian 16, Revision A.03,
 Gaussian 16:  ES64L-G16RevA.03 25-Dec-2016

 -----------------------------------
 #p cam-b3lyp/Def2SVP td=(nstates=5)
 -----------------------------------

 -------------------------------------------------------
 step_751_chromophore_20 TDDFT with cam-b3lyp functional
 -------------------------------------------------------
 Symbolic Z-matrix:
 Charge =  0 Multiplicity = 1

                         Standard orientation:
 ---------------------------------------------------------------------
 Center     Atomic      Atomic             Coordinates (Angstroms)
 Number     Number       Type             X           Y           Z
 ---------------------------------------------------------------------
      1         12           0        4.299551    1.163447   -0.425437
      2          6           0        3.572453   -2.335961   -0.690716
      3          6           0        1.704102    1.726361   -2.753715
      4          6           0        4.706736    4.377134   -0.032000
      5          6           0        6.448362    0.413943    2.131184
      6          7           0        2.708545   -0.196348   -1.504933
      7          6           0        2.740242   -1.577047   -1.531822
      8          6           0        1.733021   -2.065694   -2.604152
      9          6           0        1.396060   -0.746742   -3.386308
     10          6           0        1.993434    0.323147   -2.483634
     11          6           0        1.834164   -0.524141   -4.855118
     12          6           0        0.527847   -2.739324   -1.995479
     13          6           0        0.303152   -4.089374   -2.651316
     14          6           0       -0.671852   -5.064807   -1.991395
     15          8           0       -0.674636   -6.259557   -2.070427
     16          8           0       -1.731968   -4.404613   -1.415824
     17          7           0        3.319570    2.829473   -1.239519
     18          6           0        2.310797    2.852052   -2.148208
     19          6           0        1.976106    4.232645   -2.390867
     20          6           0        2.889666    5.091933   -1.699376
     21          6           0        3.668949    4.130878   -0.947216
     22          6           0        0.813118    4.671927   -3.165402
     23          6           0        2.893004    6.684420   -1.572689
     24          8           0        2.074252    7.363630   -2.140203
     25          6           0        3.889202    7.458071   -0.692841
     26          7           0        5.260203    2.218894    1.045201
     27          6           0        5.475524    3.560103    0.820325
     28          6           0        6.545670    4.084455    1.768660
     29          6           0        6.994241    2.828877    2.635125
     30          6           0        6.166421    1.727084    1.942308
     31          6           0        7.764959    4.676154    1.140261
     32          6           0        6.644473    2.952084    4.145393
     33          6           0        7.886585    3.069456    5.161020
     34          7           0        5.055415   -0.532554    0.442996
     35          6           0        6.002139   -0.665573    1.403666
     36          6           0        6.304674   -2.030035    1.573149
     37          6           0        5.414324   -2.696686    0.717712
     38          6           0        4.652429   -1.727126    0.112186
     39          6           0        7.297070   -2.518965    2.621703
     40          6           0        4.955773   -4.060692    0.336689
     41          8           0        5.343981   -5.146473    0.759677
     42          6           0        3.865192   -3.818827   -0.737354
     43          6           0        2.737351   -4.715907   -0.398308
     44          8           0        2.044085   -4.551467    0.579338
     45          8           0        2.845214   -5.886465   -1.132536
     46          6           0        2.063363   -7.037567   -0.681916
     47          6           0       -2.862983   -5.278154   -1.028842
     48          6           0       -4.002194   -4.427218   -0.465744
     49          6           0       -5.299759   -4.823328   -0.288226
     50          6           0       -5.681929   -6.250131   -0.255496
     51          6           0       -6.169020   -3.771118    0.396240
     52          6           0       -5.711220   -3.194153    1.795602
     53          6           0       -6.810374   -3.058254    2.820182
     54          6           0       -6.619108   -1.684937    3.635486
     55          6           0       -6.673735   -1.987126    5.158835
     56          6           0       -7.726624   -0.690504    3.285004
     57          6           0       -7.125808    0.721778    2.903321
     58          6           0       -6.936694    0.917793    1.334516
     59          6           0       -8.071828    1.638675    0.577854
     60          6           0       -8.015596    1.441777   -0.989341
     61          6           0       -8.183520    3.149541    1.016777
     62          6           0       -9.659338    3.656453    1.022898
     63          6           0       -9.920206    4.781572    0.008266
     64          6           0      -11.125404    4.519088   -0.900698
     65          6           0      -10.863173    5.208775   -2.264991
     66          6           0      -12.495362    4.886273   -0.176366
     67          1           0        1.013566    1.931698   -3.574059
     68          1           0        4.974941    5.432332    0.054192
     69          1           0        7.287505    0.239648    2.808750
     70          1           0        2.385996   -2.695353   -3.208111
     71          1           0        0.311542   -0.644089   -3.393483
     72          1           0        0.916191   -0.478502   -5.441036
     73          1           0        2.515068   -1.287625   -5.230735
     74          1           0        2.356722    0.418381   -5.021777
     75          1           0       -0.390540   -2.160677   -2.092134
     76          1           0        0.802060   -3.014955   -0.976964
     77          1           0        1.227466   -4.665102   -2.664430
     78          1           0        0.029928   -3.753613   -3.651708
     79          1           0        0.201775    5.451747   -2.710883
     80          1           0        0.236263    3.835268   -3.559791
     81          1           0        1.276480    5.084980   -4.061006
     82          1           0        4.909631    7.170474   -0.948203
     83          1           0        3.723506    7.232617    0.360156
     84          1           0        3.776619    8.539270   -0.772233
     85          1           0        6.064730    4.798255    2.438860
     86          1           0        8.046247    2.550083    2.568056
     87          1           0        8.075971    5.561441    1.694441
     88          1           0        7.513229    4.955858    0.117875
     89          1           0        8.637246    4.029486    1.236016
     90          1           0        5.934814    2.175606    4.429849
     91          1           0        6.098166    3.894840    4.113866
     92          1           0        8.777238    2.862641    4.567572
     93          1           0        7.778023    2.281629    5.905501
     94          1           0        7.924457    4.049498    5.636987
     95          1           0        7.555425   -3.574550    2.544921
     96          1           0        6.903095   -2.285864    3.610521
     97          1           0        8.179803   -1.950889    2.328252
     98          1           0        4.316690   -4.061449   -1.699706
     99          1           0        1.424100   -6.829959    0.175825
    100          1           0        2.919516   -7.586944   -0.291732
    101          1           0        1.665223   -7.542576   -1.561092
    102          1           0       -2.525691   -5.729905   -0.096153
    103          1           0       -3.058555   -6.018830   -1.804875
    104          1           0       -3.680968   -3.391941   -0.357623
    105          1           0       -6.400013   -6.378094   -1.065217
    106          1           0       -6.203525   -6.469029    0.676698
    107          1           0       -4.796099   -6.885798   -0.262754
    108          1           0       -7.135426   -4.249251    0.557728
    109          1           0       -6.372280   -2.989227   -0.334927
    110          1           0       -5.277025   -2.205010    1.653835
    111          1           0       -4.810073   -3.711093    2.124980
    112          1           0       -6.577187   -3.930845    3.430019
    113          1           0       -7.793414   -3.107063    2.352209
    114          1           0       -5.657168   -1.224806    3.411030
    115          1           0       -6.702635   -1.017968    5.657673
    116          1           0       -5.867141   -2.615489    5.536126
    117          1           0       -7.588126   -2.457639    5.520147
    118          1           0       -8.425216   -0.375767    4.059425
    119          1           0       -8.187721   -1.012889    2.351431
    120          1           0       -6.140790    0.820789    3.357849
    121          1           0       -7.828704    1.514821    3.161373
    122          1           0       -6.963115   -0.072911    0.880001
    123          1           0       -5.967898    1.402117    1.214872
    124          1           0       -8.995911    1.211374    0.966329
    125          1           0       -8.912758    0.853588   -1.176791
    126          1           0       -7.152334    0.819073   -1.222562
    127          1           0       -7.999897    2.301462   -1.659163
    128          1           0       -7.496145    3.697685    0.372153
    129          1           0       -7.856848    3.163107    2.056299
    130          1           0       -9.783547    4.079227    2.020339
    131          1           0      -10.390182    2.850811    0.954408
    132          1           0       -9.014208    4.917807   -0.582019
    133          1           0      -10.107362    5.658991    0.627102
    134          1           0      -11.128638    3.484103   -1.243878
    135          1           0      -11.842391    5.152942   -2.741153
    136          1           0      -10.126413    4.638999   -2.832124
    137          1           0      -10.411212    6.187661   -2.108175
    138          1           0      -13.052419    4.002059    0.132879
    139          1           0      -13.288929    5.234002   -0.838679
    140          1           0      -12.328132    5.552937    0.668493
 ---------------------------------------------------------------------

 SCF Done:  E(RCAM-B3LYP) =  -3007.15387806     A.U. after   17 cycles

 Excitation energies and oscillator strengths:

 Excited State   1:      Singlet-A      1.7800 eV  696.55 nm  f=0.3573  <S**2>=0.000
     245 -> 248        0.16915
     246 -> 247        0.68675
     245 <- 248        0.10101
 This state for optimization and/or second-order correction.
 Total Energy, E(TD-HF/TD-DFT) =  -3007.08846526
 Copying the excited state density for this state as the 1-particle RhoCI density.

 Excited State   2:      Singlet-A      2.2910 eV  541.19 nm  f=0.1103  <S**2>=0.000
     245 -> 247        0.63195
     246 -> 248       -0.29932

 Excited State   3:      Singlet-A      3.3778 eV  367.06 nm  f=0.0343  <S**2>=0.000
     242 -> 247        0.60717
     243 -> 247        0.24725
     246 -> 248        0.22512

 Excited State   4:      Singlet-A      3.5142 eV  352.81 nm  f=0.0831  <S**2>=0.000
     242 -> 247       -0.12059
     243 -> 247        0.59339
     246 -> 248       -0.30005

 Excited State   5:      Singlet-A      3.6534 eV  339.36 nm  f=0.8043  <S**2>=0.000
     242 -> 247       -0.29948
     243 -> 247        0.23426
     245 -> 247        0.29414
     246 -> 248        0.50617

 The electronic state is 1-A.
 Alpha  occ. eigenvalues --  -46.88823 -19.24256 -19.23964 -19.20188 -19.19743
 Alpha  occ. eigenvalues --  -19.19689 -19.18880 -14.42263 -14.41895 -14.39857
 Alpha  occ. eigenvalues --  -14.38472 -10.38933 -10.38883 -10.36916 -10.34977
 Alpha  occ. eigenvalues --  -10.31918 -10.31902 -10.31365 -10.31304 -10.30856
 Alpha  occ. eigenvalues --  -10.30719 -10.29930 -10.29747 -10.29168 -10.28551
 Alpha  occ. eigenvalues --  -10.28271 -10.28259 -10.28144 -10.28027 -10.27995
 Alpha  occ. eigenvalues --  -10.27994 -10.27974 -10.27662 -10.27636 -10.27085
 Alpha  occ. eigenvalues --  -10.27038 -10.27033 -10.26715 -10.26503 -10.26298
 Alpha  occ. eigenvalues --  -10.26242 -10.26228 -10.26171 -10.26142 -10.25981
 Alpha  occ. eigenvalues --  -10.25976 -10.25722 -10.25689 -10.25608 -10.25545
 Alpha  occ. eigenvalues --  -10.25454 -10.25448 -10.25314 -10.24889 -10.24749
 Alpha  occ. eigenvalues --  -10.24746 -10.24680 -10.24676 -10.24663 -10.24557
 Alpha  occ. eigenvalues --  -10.24321 -10.24254 -10.24199 -10.24147 -10.24142
 Alpha  occ. eigenvalues --  -10.23870  -3.17412  -1.92293  -1.91894  -1.91701
 Alpha  occ. eigenvalues --   -1.16471  -1.15704  -1.12056  -1.09174  -1.07913
 Alpha  occ. eigenvalues --   -1.07590  -1.05269  -1.04361  -1.03890  -1.02996
 Alpha  occ. eigenvalues --   -0.92583  -0.90466  -0.89967  -0.89284  -0.89227
 Alpha  occ. eigenvalues --   -0.89182  -0.88375  -0.87766  -0.87302  -0.86879
 Alpha  occ. eigenvalues --   -0.86407  -0.85603  -0.84032  -0.83840  -0.83470
 Alpha  occ. eigenvalues --   -0.82056  -0.81855  -0.81326  -0.80761  -0.80442
 Alpha  occ. eigenvalues --   -0.79472  -0.78033  -0.77986  -0.77313  -0.75931
 Alpha  occ. eigenvalues --   -0.75770  -0.75604  -0.75307  -0.74690  -0.73621
 Alpha  occ. eigenvalues --   -0.72919  -0.72219  -0.71526  -0.69947  -0.69233
 Alpha  occ. eigenvalues --   -0.68400  -0.68115  -0.67345  -0.66355  -0.66049
 Alpha  occ. eigenvalues --   -0.65767  -0.65352  -0.64964  -0.64533  -0.64022
 Alpha  occ. eigenvalues --   -0.62851  -0.62738  -0.61409  -0.61289  -0.60505
 Alpha  occ. eigenvalues --   -0.60112  -0.59365  -0.59278  -0.58736  -0.58629
 Alpha  occ. eigenvalues --   -0.57998  -0.57112  -0.56531  -0.55883  -0.55460
 Alpha  occ. eigenvalues --   -0.55242  -0.54468  -0.54366  -0.54093  -0.53792
 Alpha  occ. eigenvalues --   -0.53435  -0.53344  -0.53146  -0.52884  -0.52822
 Alpha  occ. eigenvalues --   -0.52544  -0.52344  -0.52124  -0.52001  -0.51884
 Alpha  occ. eigenvalues --   -0.51658  -0.51319  -0.51081  -0.50999  -0.50843
 Alpha  occ. eigenvalues --   -0.50722  -0.50582  -0.50527  -0.50336  -0.49975
 Alpha  occ. eigenvalues --   -0.49534  -0.49299  -0.49109  -0.48968  -0.48519
 Alpha  occ. eigenvalues --   -0.48406  -0.48245  -0.48222  -0.48093  -0.47842
 Alpha  occ. eigenvalues --   -0.47574  -0.47474  -0.47386  -0.47142  -0.46991
 Alpha  occ. eigenvalues --   -0.46840  -0.46452  -0.46180  -0.46039  -0.45726
 Alpha  occ. eigenvalues --   -0.45543  -0.45307  -0.45166  -0.45123  -0.44878
 Alpha  occ. eigenvalues --   -0.44676  -0.44403  -0.44316  -0.44173  -0.44080
 Alpha  occ. eigenvalues --   -0.43849  -0.43539  -0.43439  -0.43228  -0.43081
 Alpha  occ. eigenvalues --   -0.42924  -0.42711  -0.42454  -0.42162  -0.42131
 Alpha  occ. eigenvalues --   -0.41839  -0.41797  -0.41634  -0.41320  -0.40964
 Alpha  occ. eigenvalues --   -0.40777  -0.40678  -0.40537  -0.40178  -0.40108
 Alpha  occ. eigenvalues --   -0.39738  -0.39364  -0.39311  -0.38916  -0.38613
 Alpha  occ. eigenvalues --   -0.38402  -0.37960  -0.37844  -0.37817  -0.37300
 Alpha  occ. eigenvalues --   -0.36870  -0.36495  -0.36399  -0.36287  -0.35615
 Alpha  occ. eigenvalues --   -0.35466  -0.35152  -0.34574  -0.34452  -0.34270
 Alpha  occ. eigenvalues --   -0.34183  -0.33884  -0.33476  -0.32023  -0.31388
 Alpha  occ. eigenvalues --   -0.30746  -0.30306  -0.29431  -0.28534  -0.24389
 Alpha  occ. eigenvalues --   -0.21300
 Alpha virt. eigenvalues --   -0.08620  -0.01735   0.00507   0.02196   0.02422
 Alpha virt. eigenvalues --    0.05019   0.05073   0.05452   0.05694   0.06655
 Alpha virt. eigenvalues --    0.07789   0.08187   0.08377   0.09013   0.09262

 Mulliken charges:
               1
     1  Mg   0.823572
     2  C   -0.016218
     3  C   -0.091290
     4  C   -0.074675
     5  C   -0.079831
     6  N   -0.216999
     7  C   -0.077719
     8  C    0.020446
     9  C   -0.079425
    10  C    0.020730
    11  C    0.066831
    12  C    0.087612
    13  C   -0.013593
    14  C    0.191459
    15  O   -0.214050
    16  O   -0.354881
    17  N   -0.372700
    18  C    0.167170
    19  C   -0.172178
    20  C   -0.029836
    21  C    0.148853
    22  C    0.136970
    23  C    0.020212
    24  O   -0.176127
    25  C    0.047719
    26  N   -0.337760
    27  C    0.056059
    28  C   -0.022930
    29  C   -0.075610
    30  C    0.041910
    31  C    0.091563
    32  C    0.034566
    33  C    0.003802
    34  N   -0.321508
    35  C    0.105689
    36  C   -0.193914
    37  C   -0.029441
    38  C    0.095828
    39  C    0.129419
    40  C    0.072503
    41  O   -0.171492
    42  C    0.004897
    43  C    0.174379
    44  O   -0.204314
    45  O   -0.352763
    46  C    0.169361
    47  C    0.262195
    48  C   -0.133430
    49  C   -0.186488
    50  C    0.094282
    51  C    0.067351
    52  C   -0.008948
    53  C    0.077155
    54  C   -0.110388
    55  C    0.034536
    56  C    0.064041
    57  C   -0.025395
    58  C    0.022233
    59  C   -0.143556
    60  C    0.053254
    61  C    0.026960
    62  C    0.037044
    63  C    0.047989
    64  C   -0.144939
    65  C    0.036241
    66  C    0.041859
    67  H   -0.019295
    68  H   -0.072850
    69  H   -0.034956
    70  H    0.000718
    71  H    0.008960
    72  H    0.016743
    73  H    0.016827
    74  H    0.022163
    75  H    0.024528
    76  H    0.038424
    77  H    0.030117
    78  H    0.033768
    79  H    0.050918
    80  H   -0.001492
    81  H    0.027125
    82  H    0.046321
    83  H    0.042526
    84  H    0.028767
    85  H    0.018318
    86  H    0.011366
    87  H    0.006256
    88  H    0.015559
    89  H    0.015346
    90  H    0.021818
    91  H   -0.010362
    92  H    0.010135
    93  H    0.025613
    94  H    0.028391
    95  H    0.027343
    96  H    0.036392
    97  H    0.018237
    98  H    0.047608
    99  H    0.053668
   100  H    0.033871
   101  H    0.059217
   102  H    0.029142
   103  H    0.047883
   104  H    0.012743
   105  H    0.026800
   106  H    0.017119
   107  H    0.019907
   108  H   -0.019854
   109  H    0.013753
   110  H   -0.008101
   111  H    0.003126
   112  H   -0.002099
   113  H    0.010732
   114  H    0.009906
   115  H   -0.002154
   116  H    0.010169
   117  H    0.003682
   118  H    0.004650
   119  H   -0.005433
   120  H    0.004994
   121  H   -0.003767
   122  H   -0.006245
   123  H   -0.002578
   124  H   -0.014659
   125  H    0.009438
   126  H    0.004657
   127  H    0.015934
   128  H    0.000052
   129  H   -0.010233
   130  H   -0.015277
   131  H    0.000699
   132  H   -0.008159
   133  H   -0.002477
   134  H   -0.007254
   135  H    0.006478
   136  H    0.006271
   137  H    0.010163
   138  H    0.002202
   139  H   -0.002859
   140  H    0.018271
 Sum of Mulliken charges =  -0.00000

 Dipole moment (field-independent basis, Debye):
    X=              0.6515    Y=              4.0515    Z=             -1.1222  Tot=              4.2542
 Quadrupole moment (field-independent basis, Debye-Ang):
   XX=           -368.3253   YY=           -436.5433   ZZ=           -392.7376
   XY=             46.3947   XZ=              1.4431   YZ=             19.3458

 Normal termination of Gaussian 16 at Thu May  5 07:17:30 2022.
