 Gaussian 16, Revision A.03,
 Gaussian 16:  ES64L-G16RevA.03 25-Dec-2016

 ---------------------------------
 #p PBE1PBE/Def2SVP td=(nstates=5)
 ---------------------------------

 -----------------------------------------------------
 step_751_chromophore_20 TDDFT with PBE1PBE functional
 -----------------------------------------------------
 Symbolic Z-matrix:
 Charge =  0 Multiplicity = 1

                         Standard orientation:
 ---------------------------------------------------------------------
 Center     Atomic      Atomic             Coordinates (Angstroms)
 Number     Number       Type             X           Y           Z
 ---------------------------------------------------------------------
      1         12           0        4.299551    1.163447   -0.425437
      2          6           0        3.572453   -2.335961   -0.690716
      3          6           0        1.704102    1.726361   -2.753715
      4          6           0        4.706736    4.377134   -0.032000
      5          6           0        6.448362    0.413943    2.131184
      6          7           0        2.708545   -0.196348   -1.504933
      7          6           0        2.740242   -1.577047   -1.531822
      8          6           0        1.733021   -2.065694   -2.604152
      9          6           0        1.396060   -0.746742   -3.386308
     10          6           0        1.993434    0.323147   -2.483634
     11          6           0        1.834164   -0.524141   -4.855118
     12          6           0        0.527847   -2.739324   -1.995479
     13          6           0        0.303152   -4.089374   -2.651316
     14          6           0       -0.671852   -5.064807   -1.991395
     15          8           0       -0.674636   -6.259557   -2.070427
     16          8           0       -1.731968   -4.404613   -1.415824
     17          7           0        3.319570    2.829473   -1.239519
     18          6           0        2.310797    2.852052   -2.148208
     19          6           0        1.976106    4.232645   -2.390867
     20          6           0        2.889666    5.091933   -1.699376
     21          6           0        3.668949    4.130878   -0.947216
     22          6           0        0.813118    4.671927   -3.165402
     23          6           0        2.893004    6.684420   -1.572689
     24          8           0        2.074252    7.363630   -2.140203
     25          6           0        3.889202    7.458071   -0.692841
     26          7           0        5.260203    2.218894    1.045201
     27          6           0        5.475524    3.560103    0.820325
     28          6           0        6.545670    4.084455    1.768660
     29          6           0        6.994241    2.828877    2.635125
     30          6           0        6.166421    1.727084    1.942308
     31          6           0        7.764959    4.676154    1.140261
     32          6           0        6.644473    2.952084    4.145393
     33          6           0        7.886585    3.069456    5.161020
     34          7           0        5.055415   -0.532554    0.442996
     35          6           0        6.002139   -0.665573    1.403666
     36          6           0        6.304674   -2.030035    1.573149
     37          6           0        5.414324   -2.696686    0.717712
     38          6           0        4.652429   -1.727126    0.112186
     39          6           0        7.297070   -2.518965    2.621703
     40          6           0        4.955773   -4.060692    0.336689
     41          8           0        5.343981   -5.146473    0.759677
     42          6           0        3.865192   -3.818827   -0.737354
     43          6           0        2.737351   -4.715907   -0.398308
     44          8           0        2.044085   -4.551467    0.579338
     45          8           0        2.845214   -5.886465   -1.132536
     46          6           0        2.063363   -7.037567   -0.681916
     47          6           0       -2.862983   -5.278154   -1.028842
     48          6           0       -4.002194   -4.427218   -0.465744
     49          6           0       -5.299759   -4.823328   -0.288226
     50          6           0       -5.681929   -6.250131   -0.255496
     51          6           0       -6.169020   -3.771118    0.396240
     52          6           0       -5.711220   -3.194153    1.795602
     53          6           0       -6.810374   -3.058254    2.820182
     54          6           0       -6.619108   -1.684937    3.635486
     55          6           0       -6.673735   -1.987126    5.158835
     56          6           0       -7.726624   -0.690504    3.285004
     57          6           0       -7.125808    0.721778    2.903321
     58          6           0       -6.936694    0.917793    1.334516
     59          6           0       -8.071828    1.638675    0.577854
     60          6           0       -8.015596    1.441777   -0.989341
     61          6           0       -8.183520    3.149541    1.016777
     62          6           0       -9.659338    3.656453    1.022898
     63          6           0       -9.920206    4.781572    0.008266
     64          6           0      -11.125404    4.519088   -0.900698
     65          6           0      -10.863173    5.208775   -2.264991
     66          6           0      -12.495362    4.886273   -0.176366
     67          1           0        1.013566    1.931698   -3.574059
     68          1           0        4.974941    5.432332    0.054192
     69          1           0        7.287505    0.239648    2.808750
     70          1           0        2.385996   -2.695353   -3.208111
     71          1           0        0.311542   -0.644089   -3.393483
     72          1           0        0.916191   -0.478502   -5.441036
     73          1           0        2.515068   -1.287625   -5.230735
     74          1           0        2.356722    0.418381   -5.021777
     75          1           0       -0.390540   -2.160677   -2.092134
     76          1           0        0.802060   -3.014955   -0.976964
     77          1           0        1.227466   -4.665102   -2.664430
     78          1           0        0.029928   -3.753613   -3.651708
     79          1           0        0.201775    5.451747   -2.710883
     80          1           0        0.236263    3.835268   -3.559791
     81          1           0        1.276480    5.084980   -4.061006
     82          1           0        4.909631    7.170474   -0.948203
     83          1           0        3.723506    7.232617    0.360156
     84          1           0        3.776619    8.539270   -0.772233
     85          1           0        6.064730    4.798255    2.438860
     86          1           0        8.046247    2.550083    2.568056
     87          1           0        8.075971    5.561441    1.694441
     88          1           0        7.513229    4.955858    0.117875
     89          1           0        8.637246    4.029486    1.236016
     90          1           0        5.934814    2.175606    4.429849
     91          1           0        6.098166    3.894840    4.113866
     92          1           0        8.777238    2.862641    4.567572
     93          1           0        7.778023    2.281629    5.905501
     94          1           0        7.924457    4.049498    5.636987
     95          1           0        7.555425   -3.574550    2.544921
     96          1           0        6.903095   -2.285864    3.610521
     97          1           0        8.179803   -1.950889    2.328252
     98          1           0        4.316690   -4.061449   -1.699706
     99          1           0        1.424100   -6.829959    0.175825
    100          1           0        2.919516   -7.586944   -0.291732
    101          1           0        1.665223   -7.542576   -1.561092
    102          1           0       -2.525691   -5.729905   -0.096153
    103          1           0       -3.058555   -6.018830   -1.804875
    104          1           0       -3.680968   -3.391941   -0.357623
    105          1           0       -6.400013   -6.378094   -1.065217
    106          1           0       -6.203525   -6.469029    0.676698
    107          1           0       -4.796099   -6.885798   -0.262754
    108          1           0       -7.135426   -4.249251    0.557728
    109          1           0       -6.372280   -2.989227   -0.334927
    110          1           0       -5.277025   -2.205010    1.653835
    111          1           0       -4.810073   -3.711093    2.124980
    112          1           0       -6.577187   -3.930845    3.430019
    113          1           0       -7.793414   -3.107063    2.352209
    114          1           0       -5.657168   -1.224806    3.411030
    115          1           0       -6.702635   -1.017968    5.657673
    116          1           0       -5.867141   -2.615489    5.536126
    117          1           0       -7.588126   -2.457639    5.520147
    118          1           0       -8.425216   -0.375767    4.059425
    119          1           0       -8.187721   -1.012889    2.351431
    120          1           0       -6.140790    0.820789    3.357849
    121          1           0       -7.828704    1.514821    3.161373
    122          1           0       -6.963115   -0.072911    0.880001
    123          1           0       -5.967898    1.402117    1.214872
    124          1           0       -8.995911    1.211374    0.966329
    125          1           0       -8.912758    0.853588   -1.176791
    126          1           0       -7.152334    0.819073   -1.222562
    127          1           0       -7.999897    2.301462   -1.659163
    128          1           0       -7.496145    3.697685    0.372153
    129          1           0       -7.856848    3.163107    2.056299
    130          1           0       -9.783547    4.079227    2.020339
    131          1           0      -10.390182    2.850811    0.954408
    132          1           0       -9.014208    4.917807   -0.582019
    133          1           0      -10.107362    5.658991    0.627102
    134          1           0      -11.128638    3.484103   -1.243878
    135          1           0      -11.842391    5.152942   -2.741153
    136          1           0      -10.126413    4.638999   -2.832124
    137          1           0      -10.411212    6.187661   -2.108175
    138          1           0      -13.052419    4.002059    0.132879
    139          1           0      -13.288929    5.234002   -0.838679
    140          1           0      -12.328132    5.552937    0.668493
 ---------------------------------------------------------------------

 SCF Done:  E(RPBE1PBE) =  -3005.34101781     A.U. after   16 cycles

 Excitation energies and oscillator strengths:

 Excited State   1:      Singlet-A      1.8936 eV  654.75 nm  f=0.3453  <S**2>=0.000
     245 -> 248        0.16844
     246 -> 247        0.69211
     246 <- 247       -0.10532
 This state for optimization and/or second-order correction.
 Total Energy, E(TD-HF/TD-DFT) =  -3005.27142869
 Copying the excited state density for this state as the 1-particle RhoCI density.

 Excited State   2:      Singlet-A      2.2919 eV  540.96 nm  f=0.1072  <S**2>=0.000
     245 -> 247        0.64298
     246 -> 248       -0.27789

 Excited State   3:      Singlet-A      3.0538 eV  406.00 nm  f=0.0005  <S**2>=0.000
     241 -> 247        0.10358
     242 -> 247        0.17626
     243 -> 247        0.66762

 Excited State   4:      Singlet-A      3.1194 eV  397.47 nm  f=0.0000  <S**2>=0.000
     244 -> 247        0.70442

 Excited State   5:      Singlet-A      3.1265 eV  396.56 nm  f=0.0028  <S**2>=0.000
     241 -> 247       -0.17260
     242 -> 247        0.62367
     243 -> 247       -0.13210
     246 -> 248        0.21012

 The electronic state is 1-A.
 Alpha  occ. eigenvalues --  -46.92197 -19.25020 -19.24658 -19.20147 -19.20019
 Alpha  occ. eigenvalues --  -19.19935 -19.19402 -14.41661 -14.41454 -14.39343
 Alpha  occ. eigenvalues --  -14.38308 -10.36004 -10.35899 -10.33873 -10.32411
 Alpha  occ. eigenvalues --  -10.29379 -10.29312 -10.28795 -10.28793 -10.28549
 Alpha  occ. eigenvalues --  -10.27944 -10.27795 -10.27251 -10.26450 -10.26344
 Alpha  occ. eigenvalues --  -10.26037 -10.26005 -10.25837 -10.25801 -10.25796
 Alpha  occ. eigenvalues --  -10.25764 -10.25664 -10.25640 -10.25516 -10.24642
 Alpha  occ. eigenvalues --  -10.24534 -10.24410 -10.24280 -10.24264 -10.24086
 Alpha  occ. eigenvalues --  -10.23875 -10.23836 -10.23769 -10.23716 -10.23584
 Alpha  occ. eigenvalues --  -10.23476 -10.23253 -10.23231 -10.23184 -10.23117
 Alpha  occ. eigenvalues --  -10.23079 -10.23008 -10.22872 -10.22472 -10.22332
 Alpha  occ. eigenvalues --  -10.22261 -10.22208 -10.22126 -10.22107 -10.22043
 Alpha  occ. eigenvalues --  -10.22007 -10.21878 -10.21707 -10.21665 -10.21650
 Alpha  occ. eigenvalues --  -10.21502  -3.14366  -1.87187  -1.86766  -1.86578
 Alpha  occ. eigenvalues --   -1.11275  -1.10523  -1.06591  -1.04183  -1.02818
 Alpha  occ. eigenvalues --   -1.02470  -1.00255  -0.98882  -0.98379  -0.97584
 Alpha  occ. eigenvalues --   -0.87087  -0.84676  -0.84088  -0.83557  -0.83499
 Alpha  occ. eigenvalues --   -0.83300  -0.82462  -0.82032  -0.81393  -0.80964
 Alpha  occ. eigenvalues --   -0.80825  -0.79955  -0.78313  -0.78188  -0.77658
 Alpha  occ. eigenvalues --   -0.76207  -0.75958  -0.75499  -0.75149  -0.74740
 Alpha  occ. eigenvalues --   -0.73588  -0.72360  -0.72126  -0.71694  -0.70361
 Alpha  occ. eigenvalues --   -0.69943  -0.69661  -0.69655  -0.68790  -0.67780
 Alpha  occ. eigenvalues --   -0.67450  -0.66546  -0.65928  -0.64218  -0.63692
 Alpha  occ. eigenvalues --   -0.62921  -0.62339  -0.61647  -0.60551  -0.60513
 Alpha  occ. eigenvalues --   -0.60140  -0.59535  -0.59512  -0.59149  -0.58147
 Alpha  occ. eigenvalues --   -0.57335  -0.56865  -0.56072  -0.55470  -0.54957
 Alpha  occ. eigenvalues --   -0.54496  -0.53992  -0.53866  -0.53278  -0.53161
 Alpha  occ. eigenvalues --   -0.52576  -0.51490  -0.50999  -0.50452  -0.50096
 Alpha  occ. eigenvalues --   -0.49759  -0.49006  -0.48686  -0.48609  -0.48273
 Alpha  occ. eigenvalues --   -0.48029  -0.47791  -0.47723  -0.47433  -0.47385
 Alpha  occ. eigenvalues --   -0.47006  -0.46794  -0.46711  -0.46547  -0.46371
 Alpha  occ. eigenvalues --   -0.46153  -0.46057  -0.45644  -0.45567  -0.45436
 Alpha  occ. eigenvalues --   -0.45249  -0.45087  -0.44929  -0.44726  -0.44507
 Alpha  occ. eigenvalues --   -0.44186  -0.44004  -0.43730  -0.43628  -0.43196
 Alpha  occ. eigenvalues --   -0.43047  -0.42782  -0.42730  -0.42703  -0.42428
 Alpha  occ. eigenvalues --   -0.42271  -0.42150  -0.41975  -0.41725  -0.41671
 Alpha  occ. eigenvalues --   -0.41565  -0.41258  -0.40753  -0.40649  -0.40325
 Alpha  occ. eigenvalues --   -0.40266  -0.39990  -0.39953  -0.39863  -0.39670
 Alpha  occ. eigenvalues --   -0.39451  -0.39235  -0.38971  -0.38940  -0.38756
 Alpha  occ. eigenvalues --   -0.38627  -0.38192  -0.38122  -0.37951  -0.37801
 Alpha  occ. eigenvalues --   -0.37786  -0.37482  -0.37377  -0.37028  -0.36858
 Alpha  occ. eigenvalues --   -0.36796  -0.36697  -0.36521  -0.35992  -0.35904
 Alpha  occ. eigenvalues --   -0.35639  -0.35478  -0.35323  -0.35058  -0.34830
 Alpha  occ. eigenvalues --   -0.34681  -0.34246  -0.34098  -0.33776  -0.33402
 Alpha  occ. eigenvalues --   -0.33356  -0.32832  -0.32770  -0.32584  -0.32381
 Alpha  occ. eigenvalues --   -0.31739  -0.31432  -0.31296  -0.31234  -0.30490
 Alpha  occ. eigenvalues --   -0.30365  -0.30189  -0.29660  -0.29348  -0.29333
 Alpha  occ. eigenvalues --   -0.29084  -0.29030  -0.28686  -0.27041  -0.26598
 Alpha  occ. eigenvalues --   -0.25956  -0.25637  -0.25283  -0.23841  -0.21241
 Alpha  occ. eigenvalues --   -0.18888
 Alpha virt. eigenvalues --   -0.11140  -0.05268  -0.03695  -0.02102  -0.00505
 Alpha virt. eigenvalues --    0.00317   0.00578   0.01199   0.01361   0.02458
 Alpha virt. eigenvalues --    0.03946   0.04411   0.05260   0.05580   0.06094

 Mulliken charges:
               1
     1  Mg   0.970267
     2  C    0.003590
     3  C   -0.073069
     4  C   -0.071634
     5  C   -0.066755
     6  N   -0.320992
     7  C   -0.005233
     8  C   -0.053651
     9  C   -0.148803
    10  C    0.056713
    11  C    0.010695
    12  C    0.033086
    13  C   -0.094445
    14  C    0.263132
    15  O   -0.250210
    16  O   -0.385984
    17  N   -0.489345
    18  C    0.191236
    19  C   -0.216888
    20  C   -0.056146
    21  C    0.163705
    22  C    0.079274
    23  C    0.070353
    24  O   -0.211854
    25  C   -0.031464
    26  N   -0.441543
    27  C    0.087799
    28  C   -0.104604
    29  C   -0.148231
    30  C    0.081528
    31  C    0.035704
    32  C   -0.019295
    33  C   -0.069773
    34  N   -0.460519
    35  C    0.129887
    36  C   -0.207248
    37  C   -0.077181
    38  C    0.138533
    39  C    0.072709
    40  C    0.173757
    41  O   -0.215202
    42  C   -0.115395
    43  C    0.262485
    44  O   -0.239485
    45  O   -0.384655
    46  C    0.115078
    47  C    0.222844
    48  C   -0.146452
    49  C   -0.222366
    50  C    0.024597
    51  C    0.002753
    52  C   -0.067244
    53  C    0.020285
    54  C   -0.199313
    55  C   -0.025896
    56  C    0.011625
    57  C   -0.088547
    58  C   -0.036613
    59  C   -0.225535
    60  C   -0.006119
    61  C   -0.028574
    62  C   -0.020407
    63  C   -0.009627
    64  C   -0.236551
    65  C   -0.028188
    66  C   -0.016264
    67  H    0.010967
    68  H   -0.034982
    69  H   -0.003404
    70  H    0.038706
    71  H    0.045327
    72  H    0.043148
    73  H    0.043511
    74  H    0.050058
    75  H    0.056178
    76  H    0.075173
    77  H    0.064176
    78  H    0.067723
    79  H    0.075859
    80  H    0.025009
    81  H    0.054918
    82  H    0.071026
    83  H    0.068948
    84  H    0.056539
    85  H    0.053263
    86  H    0.046788
    87  H    0.034313
    88  H    0.043502
    89  H    0.041206
    90  H    0.053331
    91  H    0.025385
    92  H    0.037393
    93  H    0.053082
    94  H    0.055968
    95  H    0.056942
    96  H    0.065222
    97  H    0.047111
    98  H    0.084242
    99  H    0.074353
   100  H    0.057309
   101  H    0.080530
   102  H    0.058254
   103  H    0.072578
   104  H    0.042504
   105  H    0.055425
   106  H    0.045127
   107  H    0.046487
   108  H    0.014041
   109  H    0.046613
   110  H    0.025047
   111  H    0.034992
   112  H    0.031653
   113  H    0.040791
   114  H    0.045642
   115  H    0.027146
   116  H    0.038255
   117  H    0.031691
   118  H    0.036098
   119  H    0.028132
   120  H    0.037149
   121  H    0.029493
   122  H    0.029975
   123  H    0.030269
   124  H    0.024614
   125  H    0.036438
   126  H    0.031726
   127  H    0.042397
   128  H    0.031752
   129  H    0.023331
   130  H    0.018188
   131  H    0.030541
   132  H    0.024284
   133  H    0.030404
   134  H    0.031235
   135  H    0.034669
   136  H    0.034805
   137  H    0.038132
   138  H    0.029188
   139  H    0.023521
   140  H    0.044259
 Sum of Mulliken charges =  -0.00000

 Dipole moment (field-independent basis, Debye):
    X=              1.0527    Y=              3.4829    Z=             -0.6762  Tot=              3.7008
 Quadrupole moment (field-independent basis, Debye-Ang):
   XX=           -361.2181   YY=           -434.6898   ZZ=           -389.3730
   XY=             44.7861   XZ=              3.9442   YZ=             20.1895

 Normal termination of Gaussian 16 at Thu May  5 07:35:24 2022.
