 Gaussian 16, Revision A.03,
 Gaussian 16:  ES64L-G16RevA.03 25-Dec-2016

 --------------------------------
 #p wB97XD/Def2SVP td=(nstates=5)
 --------------------------------

 ----------------------------------------------------
 step_751_chromophore_20 TDDFT with wB97XD functional
 ----------------------------------------------------
 Symbolic Z-matrix:
 Charge =  0 Multiplicity = 1

                         Standard orientation:
 ---------------------------------------------------------------------
 Center     Atomic      Atomic             Coordinates (Angstroms)
 Number     Number       Type             X           Y           Z
 ---------------------------------------------------------------------
      1         12           0        4.299551    1.163447   -0.425437
      2          6           0        3.572453   -2.335961   -0.690716
      3          6           0        1.704102    1.726361   -2.753715
      4          6           0        4.706736    4.377134   -0.032000
      5          6           0        6.448362    0.413943    2.131184
      6          7           0        2.708545   -0.196348   -1.504933
      7          6           0        2.740242   -1.577047   -1.531822
      8          6           0        1.733021   -2.065694   -2.604152
      9          6           0        1.396060   -0.746742   -3.386308
     10          6           0        1.993434    0.323147   -2.483634
     11          6           0        1.834164   -0.524141   -4.855118
     12          6           0        0.527847   -2.739324   -1.995479
     13          6           0        0.303152   -4.089374   -2.651316
     14          6           0       -0.671852   -5.064807   -1.991395
     15          8           0       -0.674636   -6.259557   -2.070427
     16          8           0       -1.731968   -4.404613   -1.415824
     17          7           0        3.319570    2.829473   -1.239519
     18          6           0        2.310797    2.852052   -2.148208
     19          6           0        1.976106    4.232645   -2.390867
     20          6           0        2.889666    5.091933   -1.699376
     21          6           0        3.668949    4.130878   -0.947216
     22          6           0        0.813118    4.671927   -3.165402
     23          6           0        2.893004    6.684420   -1.572689
     24          8           0        2.074252    7.363630   -2.140203
     25          6           0        3.889202    7.458071   -0.692841
     26          7           0        5.260203    2.218894    1.045201
     27          6           0        5.475524    3.560103    0.820325
     28          6           0        6.545670    4.084455    1.768660
     29          6           0        6.994241    2.828877    2.635125
     30          6           0        6.166421    1.727084    1.942308
     31          6           0        7.764959    4.676154    1.140261
     32          6           0        6.644473    2.952084    4.145393
     33          6           0        7.886585    3.069456    5.161020
     34          7           0        5.055415   -0.532554    0.442996
     35          6           0        6.002139   -0.665573    1.403666
     36          6           0        6.304674   -2.030035    1.573149
     37          6           0        5.414324   -2.696686    0.717712
     38          6           0        4.652429   -1.727126    0.112186
     39          6           0        7.297070   -2.518965    2.621703
     40          6           0        4.955773   -4.060692    0.336689
     41          8           0        5.343981   -5.146473    0.759677
     42          6           0        3.865192   -3.818827   -0.737354
     43          6           0        2.737351   -4.715907   -0.398308
     44          8           0        2.044085   -4.551467    0.579338
     45          8           0        2.845214   -5.886465   -1.132536
     46          6           0        2.063363   -7.037567   -0.681916
     47          6           0       -2.862983   -5.278154   -1.028842
     48          6           0       -4.002194   -4.427218   -0.465744
     49          6           0       -5.299759   -4.823328   -0.288226
     50          6           0       -5.681929   -6.250131   -0.255496
     51          6           0       -6.169020   -3.771118    0.396240
     52          6           0       -5.711220   -3.194153    1.795602
     53          6           0       -6.810374   -3.058254    2.820182
     54          6           0       -6.619108   -1.684937    3.635486
     55          6           0       -6.673735   -1.987126    5.158835
     56          6           0       -7.726624   -0.690504    3.285004
     57          6           0       -7.125808    0.721778    2.903321
     58          6           0       -6.936694    0.917793    1.334516
     59          6           0       -8.071828    1.638675    0.577854
     60          6           0       -8.015596    1.441777   -0.989341
     61          6           0       -8.183520    3.149541    1.016777
     62          6           0       -9.659338    3.656453    1.022898
     63          6           0       -9.920206    4.781572    0.008266
     64          6           0      -11.125404    4.519088   -0.900698
     65          6           0      -10.863173    5.208775   -2.264991
     66          6           0      -12.495362    4.886273   -0.176366
     67          1           0        1.013566    1.931698   -3.574059
     68          1           0        4.974941    5.432332    0.054192
     69          1           0        7.287505    0.239648    2.808750
     70          1           0        2.385996   -2.695353   -3.208111
     71          1           0        0.311542   -0.644089   -3.393483
     72          1           0        0.916191   -0.478502   -5.441036
     73          1           0        2.515068   -1.287625   -5.230735
     74          1           0        2.356722    0.418381   -5.021777
     75          1           0       -0.390540   -2.160677   -2.092134
     76          1           0        0.802060   -3.014955   -0.976964
     77          1           0        1.227466   -4.665102   -2.664430
     78          1           0        0.029928   -3.753613   -3.651708
     79          1           0        0.201775    5.451747   -2.710883
     80          1           0        0.236263    3.835268   -3.559791
     81          1           0        1.276480    5.084980   -4.061006
     82          1           0        4.909631    7.170474   -0.948203
     83          1           0        3.723506    7.232617    0.360156
     84          1           0        3.776619    8.539270   -0.772233
     85          1           0        6.064730    4.798255    2.438860
     86          1           0        8.046247    2.550083    2.568056
     87          1           0        8.075971    5.561441    1.694441
     88          1           0        7.513229    4.955858    0.117875
     89          1           0        8.637246    4.029486    1.236016
     90          1           0        5.934814    2.175606    4.429849
     91          1           0        6.098166    3.894840    4.113866
     92          1           0        8.777238    2.862641    4.567572
     93          1           0        7.778023    2.281629    5.905501
     94          1           0        7.924457    4.049498    5.636987
     95          1           0        7.555425   -3.574550    2.544921
     96          1           0        6.903095   -2.285864    3.610521
     97          1           0        8.179803   -1.950889    2.328252
     98          1           0        4.316690   -4.061449   -1.699706
     99          1           0        1.424100   -6.829959    0.175825
    100          1           0        2.919516   -7.586944   -0.291732
    101          1           0        1.665223   -7.542576   -1.561092
    102          1           0       -2.525691   -5.729905   -0.096153
    103          1           0       -3.058555   -6.018830   -1.804875
    104          1           0       -3.680968   -3.391941   -0.357623
    105          1           0       -6.400013   -6.378094   -1.065217
    106          1           0       -6.203525   -6.469029    0.676698
    107          1           0       -4.796099   -6.885798   -0.262754
    108          1           0       -7.135426   -4.249251    0.557728
    109          1           0       -6.372280   -2.989227   -0.334927
    110          1           0       -5.277025   -2.205010    1.653835
    111          1           0       -4.810073   -3.711093    2.124980
    112          1           0       -6.577187   -3.930845    3.430019
    113          1           0       -7.793414   -3.107063    2.352209
    114          1           0       -5.657168   -1.224806    3.411030
    115          1           0       -6.702635   -1.017968    5.657673
    116          1           0       -5.867141   -2.615489    5.536126
    117          1           0       -7.588126   -2.457639    5.520147
    118          1           0       -8.425216   -0.375767    4.059425
    119          1           0       -8.187721   -1.012889    2.351431
    120          1           0       -6.140790    0.820789    3.357849
    121          1           0       -7.828704    1.514821    3.161373
    122          1           0       -6.963115   -0.072911    0.880001
    123          1           0       -5.967898    1.402117    1.214872
    124          1           0       -8.995911    1.211374    0.966329
    125          1           0       -8.912758    0.853588   -1.176791
    126          1           0       -7.152334    0.819073   -1.222562
    127          1           0       -7.999897    2.301462   -1.659163
    128          1           0       -7.496145    3.697685    0.372153
    129          1           0       -7.856848    3.163107    2.056299
    130          1           0       -9.783547    4.079227    2.020339
    131          1           0      -10.390182    2.850811    0.954408
    132          1           0       -9.014208    4.917807   -0.582019
    133          1           0      -10.107362    5.658991    0.627102
    134          1           0      -11.128638    3.484103   -1.243878
    135          1           0      -11.842391    5.152942   -2.741153
    136          1           0      -10.126413    4.638999   -2.832124
    137          1           0      -10.411212    6.187661   -2.108175
    138          1           0      -13.052419    4.002059    0.132879
    139          1           0      -13.288929    5.234002   -0.838679
    140          1           0      -12.328132    5.552937    0.668493
 ---------------------------------------------------------------------

 SCF Done:  E(RwB97XD) =  -3007.85156277     A.U. after   19 cycles

 Excitation energies and oscillator strengths:

 Excited State   1:      Singlet-A      1.7509 eV  708.11 nm  f=0.3574  <S**2>=0.000
     245 -> 248        0.17203
     246 -> 247        0.68516
     245 <- 248        0.10782
 This state for optimization and/or second-order correction.
 Total Energy, E(TD-HF/TD-DFT) =  -3007.78721766
 Copying the excited state density for this state as the 1-particle RhoCI density.

 Excited State   2:      Singlet-A      2.2432 eV  552.71 nm  f=0.1085  <S**2>=0.000
     245 -> 247        0.63018
     246 -> 248       -0.30012

 Excited State   3:      Singlet-A      3.3824 eV  366.56 nm  f=0.0400  <S**2>=0.000
     242 -> 247        0.61075
     243 -> 247        0.18973
     246 -> 248        0.24263

 Excited State   4:      Singlet-A      3.5607 eV  348.20 nm  f=0.1509  <S**2>=0.000
     243 -> 247        0.56868
     243 -> 249       -0.10636
     245 -> 247       -0.13204
     246 -> 248       -0.34771

 Excited State   5:      Singlet-A      3.6992 eV  335.16 nm  f=0.7977  <S**2>=0.000
     242 -> 247       -0.28720
     243 -> 247        0.30514
     245 -> 247        0.28905
     246 -> 248        0.46764

 The electronic state is 1-A.
 Alpha  occ. eigenvalues --  -46.95172 -19.29460 -19.29188 -19.25259 -19.24636
 Alpha  occ. eigenvalues --  -19.24586 -19.23852 -14.46865 -14.46494 -14.44512
 Alpha  occ. eigenvalues --  -14.42997 -10.42754 -10.42665 -10.40973 -10.38937
 Alpha  occ. eigenvalues --  -10.36034 -10.36002 -10.35472 -10.35251 -10.34881
 Alpha  occ. eigenvalues --  -10.34865 -10.33671 -10.33667 -10.33421 -10.32675
 Alpha  occ. eigenvalues --  -10.32486 -10.32251 -10.32221 -10.32170 -10.32044
 Alpha  occ. eigenvalues --  -10.32040 -10.31895 -10.31710 -10.31505 -10.31126
 Alpha  occ. eigenvalues --  -10.31020 -10.30954 -10.30616 -10.30430 -10.30229
 Alpha  occ. eigenvalues --  -10.30205 -10.30117 -10.30111 -10.30040 -10.29989
 Alpha  occ. eigenvalues --  -10.29957 -10.29627 -10.29556 -10.29526 -10.29525
 Alpha  occ. eigenvalues --  -10.29394 -10.29258 -10.29248 -10.28825 -10.28687
 Alpha  occ. eigenvalues --  -10.28614 -10.28584 -10.28571 -10.28491 -10.28482
 Alpha  occ. eigenvalues --  -10.28255 -10.28102 -10.28089 -10.28059 -10.27958
 Alpha  occ. eigenvalues --  -10.27815  -3.21196  -1.94765  -1.94348  -1.94155
 Alpha  occ. eigenvalues --   -1.18611  -1.17822  -1.14343  -1.11337  -1.10077
 Alpha  occ. eigenvalues --   -1.09778  -1.07242  -1.06425  -1.05947  -1.05032
 Alpha  occ. eigenvalues --   -0.94505  -0.92311  -0.91757  -0.91251  -0.91050
 Alpha  occ. eigenvalues --   -0.90989  -0.90144  -0.89714  -0.89333  -0.88650
 Alpha  occ. eigenvalues --   -0.88324  -0.87483  -0.85911  -0.85713  -0.85336
 Alpha  occ. eigenvalues --   -0.83999  -0.83704  -0.83214  -0.82722  -0.82343
 Alpha  occ. eigenvalues --   -0.81277  -0.80035  -0.79902  -0.79210  -0.77842
 Alpha  occ. eigenvalues --   -0.77611  -0.77384  -0.77262  -0.76497  -0.75456
 Alpha  occ. eigenvalues --   -0.74882  -0.74178  -0.73502  -0.71873  -0.71150
 Alpha  occ. eigenvalues --   -0.70378  -0.69984  -0.69390  -0.68209  -0.67957
 Alpha  occ. eigenvalues --   -0.67743  -0.67187  -0.66985  -0.66522  -0.65835
 Alpha  occ. eigenvalues --   -0.64801  -0.64553  -0.63377  -0.63122  -0.62553
 Alpha  occ. eigenvalues --   -0.62017  -0.61372  -0.61233  -0.60672  -0.60599
 Alpha  occ. eigenvalues --   -0.59959  -0.59050  -0.58495  -0.57811  -0.57412
 Alpha  occ. eigenvalues --   -0.57153  -0.56376  -0.56190  -0.56022  -0.55682
 Alpha  occ. eigenvalues --   -0.55391  -0.55227  -0.55103  -0.54820  -0.54739
 Alpha  occ. eigenvalues --   -0.54523  -0.54259  -0.54047  -0.53913  -0.53765
 Alpha  occ. eigenvalues --   -0.53533  -0.53186  -0.52953  -0.52921  -0.52774
 Alpha  occ. eigenvalues --   -0.52603  -0.52518  -0.52421  -0.52352  -0.51862
 Alpha  occ. eigenvalues --   -0.51438  -0.51195  -0.51015  -0.50913  -0.50453
 Alpha  occ. eigenvalues --   -0.50365  -0.50161  -0.50079  -0.50009  -0.49733
 Alpha  occ. eigenvalues --   -0.49460  -0.49377  -0.49271  -0.49082  -0.48856
 Alpha  occ. eigenvalues --   -0.48751  -0.48380  -0.48151  -0.47898  -0.47558
 Alpha  occ. eigenvalues --   -0.47464  -0.47156  -0.47092  -0.47012  -0.46793
 Alpha  occ. eigenvalues --   -0.46595  -0.46329  -0.46179  -0.46108  -0.46054
 Alpha  occ. eigenvalues --   -0.45763  -0.45604  -0.45286  -0.45191  -0.44941
 Alpha  occ. eigenvalues --   -0.44825  -0.44595  -0.44354  -0.44089  -0.43998
 Alpha  occ. eigenvalues --   -0.43782  -0.43694  -0.43555  -0.43159  -0.42870
 Alpha  occ. eigenvalues --   -0.42669  -0.42558  -0.42398  -0.42066  -0.41948
 Alpha  occ. eigenvalues --   -0.41644  -0.41257  -0.41154  -0.40796  -0.40446
 Alpha  occ. eigenvalues --   -0.40311  -0.39804  -0.39734  -0.39673  -0.39504
 Alpha  occ. eigenvalues --   -0.38726  -0.38350  -0.38323  -0.38241  -0.37471
 Alpha  occ. eigenvalues --   -0.37314  -0.37113  -0.36554  -0.36275  -0.36216
 Alpha  occ. eigenvalues --   -0.36022  -0.35870  -0.35592  -0.34047  -0.33610
 Alpha  occ. eigenvalues --   -0.32669  -0.32568  -0.31512  -0.30561  -0.26340
 Alpha  occ. eigenvalues --   -0.23142
 Alpha virt. eigenvalues --   -0.06943   0.00181   0.02587   0.04527   0.05266
 Alpha virt. eigenvalues --    0.07176   0.07368   0.07959   0.08056   0.09082
 Alpha virt. eigenvalues --    0.10580   0.10945   0.11944   0.12299   0.12808

 Mulliken charges:
               1
     1  Mg   0.962159
     2  C   -0.011605
     3  C   -0.099120
     4  C   -0.087823
     5  C   -0.083727
     6  N   -0.283828
     7  C   -0.034965
     8  C   -0.029062
     9  C   -0.127280
    10  C    0.049186
    11  C    0.019554
    12  C    0.048789
    13  C   -0.068433
    14  C    0.248566
    15  O   -0.245412
    16  O   -0.384544
    17  N   -0.459035
    18  C    0.187643
    19  C   -0.196447
    20  C   -0.059761
    21  C    0.170315
    22  C    0.086902
    23  C    0.066566
    24  O   -0.206486
    25  C   -0.015810
    26  N   -0.410369
    27  C    0.082037
    28  C   -0.077840
    29  C   -0.118463
    30  C    0.065494
    31  C    0.045341
    32  C   -0.008484
    33  C   -0.051057
    34  N   -0.417367
    35  C    0.116169
    36  C   -0.205133
    37  C   -0.075292
    38  C    0.122000
    39  C    0.083636
    40  C    0.150173
    41  O   -0.208172
    42  C   -0.070726
    43  C    0.234257
    44  O   -0.232241
    45  O   -0.380854
    46  C    0.125237
    47  C    0.233860
    48  C   -0.151382
    49  C   -0.211834
    50  C    0.038543
    51  C    0.023113
    52  C   -0.049025
    53  C    0.033528
    54  C   -0.168265
    55  C   -0.012381
    56  C    0.027139
    57  C   -0.070074
    58  C   -0.015174
    59  C   -0.192940
    60  C    0.003643
    61  C   -0.013355
    62  C   -0.007701
    63  C    0.007618
    64  C   -0.207698
    65  C   -0.013043
    66  C   -0.005807
    67  H    0.005520
    68  H   -0.050663
    69  H   -0.009938
    70  H    0.025923
    71  H    0.035208
    72  H    0.038874
    73  H    0.040019
    74  H    0.042748
    75  H    0.049771
    76  H    0.061945
    77  H    0.050659
    78  H    0.059960
    79  H    0.075262
    80  H    0.021827
    81  H    0.051717
    82  H    0.065926
    83  H    0.064035
    84  H    0.056540
    85  H    0.043153
    86  H    0.032105
    87  H    0.029487
    88  H    0.036181
    89  H    0.036931
    90  H    0.046369
    91  H    0.013542
    92  H    0.029850
    93  H    0.047383
    94  H    0.050039
    95  H    0.052724
    96  H    0.058674
    97  H    0.038619
    98  H    0.077715
    99  H    0.071704
   100  H    0.054540
   101  H    0.078392
   102  H    0.051694
   103  H    0.068530
   104  H    0.039258
   105  H    0.049971
   106  H    0.039209
   107  H    0.041536
   108  H    0.003359
   109  H    0.039054
   110  H    0.012324
   111  H    0.026613
   112  H    0.023811
   113  H    0.032141
   114  H    0.031938
   115  H    0.019308
   116  H    0.033179
   117  H    0.025097
   118  H    0.029539
   119  H    0.014156
   120  H    0.028452
   121  H    0.018512
   122  H    0.012729
   123  H    0.022465
   124  H    0.008011
   125  H    0.030790
   126  H    0.026037
   127  H    0.037030
   128  H    0.022488
   129  H    0.013034
   130  H    0.011437
   131  H    0.020770
   132  H    0.012770
   133  H    0.021557
   134  H    0.019232
   135  H    0.028300
   136  H    0.028248
   137  H    0.031421
   138  H    0.023363
   139  H    0.018014
   140  H    0.038427
 Sum of Mulliken charges =  -0.00000

 Dipole moment (field-independent basis, Debye):
    X=              0.6042    Y=              4.2891    Z=             -1.2061  Tot=              4.4963
 Quadrupole moment (field-independent basis, Debye-Ang):
   XX=           -364.6129   YY=           -431.8938   ZZ=           -388.8053
   XY=             47.5205   XZ=              1.7667   YZ=             19.0529

 Normal termination of Gaussian 16 at Thu May  5 08:02:09 2022.
