 Gaussian 16, Revision A.03,
 Gaussian 16:  ES64L-G16RevA.03 25-Dec-2016

 --------------------
 #p ZINDO=(nstates=5)
 --------------------

 -----------------------------
 step_751_chromophore_20 ZINDO
 -----------------------------
 Symbolic Z-matrix:
 Charge =  0 Multiplicity = 1

                         Standard orientation:
 ---------------------------------------------------------------------
 Center     Atomic      Atomic             Coordinates (Angstroms)
 Number     Number       Type             X           Y           Z
 ---------------------------------------------------------------------
      1         12           0        4.299551    1.163447   -0.425437
      2          6           0        3.572453   -2.335961   -0.690716
      3          6           0        1.704102    1.726361   -2.753715
      4          6           0        4.706736    4.377134   -0.032000
      5          6           0        6.448362    0.413943    2.131184
      6          7           0        2.708545   -0.196348   -1.504933
      7          6           0        2.740242   -1.577047   -1.531822
      8          6           0        1.733021   -2.065694   -2.604152
      9          6           0        1.396060   -0.746742   -3.386308
     10          6           0        1.993434    0.323147   -2.483634
     11          6           0        1.834164   -0.524141   -4.855118
     12          6           0        0.527847   -2.739324   -1.995479
     13          6           0        0.303152   -4.089374   -2.651316
     14          6           0       -0.671852   -5.064807   -1.991395
     15          8           0       -0.674636   -6.259557   -2.070427
     16          8           0       -1.731968   -4.404613   -1.415824
     17          7           0        3.319570    2.829473   -1.239519
     18          6           0        2.310797    2.852052   -2.148208
     19          6           0        1.976106    4.232645   -2.390867
     20          6           0        2.889666    5.091933   -1.699376
     21          6           0        3.668949    4.130878   -0.947216
     22          6           0        0.813118    4.671927   -3.165402
     23          6           0        2.893004    6.684420   -1.572689
     24          8           0        2.074252    7.363630   -2.140203
     25          6           0        3.889202    7.458071   -0.692841
     26          7           0        5.260203    2.218894    1.045201
     27          6           0        5.475524    3.560103    0.820325
     28          6           0        6.545670    4.084455    1.768660
     29          6           0        6.994241    2.828877    2.635125
     30          6           0        6.166421    1.727084    1.942308
     31          6           0        7.764959    4.676154    1.140261
     32          6           0        6.644473    2.952084    4.145393
     33          6           0        7.886585    3.069456    5.161020
     34          7           0        5.055415   -0.532554    0.442996
     35          6           0        6.002139   -0.665573    1.403666
     36          6           0        6.304674   -2.030035    1.573149
     37          6           0        5.414324   -2.696686    0.717712
     38          6           0        4.652429   -1.727126    0.112186
     39          6           0        7.297070   -2.518965    2.621703
     40          6           0        4.955773   -4.060692    0.336689
     41          8           0        5.343981   -5.146473    0.759677
     42          6           0        3.865192   -3.818827   -0.737354
     43          6           0        2.737351   -4.715907   -0.398308
     44          8           0        2.044085   -4.551467    0.579338
     45          8           0        2.845214   -5.886465   -1.132536
     46          6           0        2.063363   -7.037567   -0.681916
     47          6           0       -2.862983   -5.278154   -1.028842
     48          6           0       -4.002194   -4.427218   -0.465744
     49          6           0       -5.299759   -4.823328   -0.288226
     50          6           0       -5.681929   -6.250131   -0.255496
     51          6           0       -6.169020   -3.771118    0.396240
     52          6           0       -5.711220   -3.194153    1.795602
     53          6           0       -6.810374   -3.058254    2.820182
     54          6           0       -6.619108   -1.684937    3.635486
     55          6           0       -6.673735   -1.987126    5.158835
     56          6           0       -7.726624   -0.690504    3.285004
     57          6           0       -7.125808    0.721778    2.903321
     58          6           0       -6.936694    0.917793    1.334516
     59          6           0       -8.071828    1.638675    0.577854
     60          6           0       -8.015596    1.441777   -0.989341
     61          6           0       -8.183520    3.149541    1.016777
     62          6           0       -9.659338    3.656453    1.022898
     63          6           0       -9.920206    4.781572    0.008266
     64          6           0      -11.125404    4.519088   -0.900698
     65          6           0      -10.863173    5.208775   -2.264991
     66          6           0      -12.495362    4.886273   -0.176366
     67          1           0        1.013566    1.931698   -3.574059
     68          1           0        4.974941    5.432332    0.054192
     69          1           0        7.287505    0.239648    2.808750
     70          1           0        2.385996   -2.695353   -3.208111
     71          1           0        0.311542   -0.644089   -3.393483
     72          1           0        0.916191   -0.478502   -5.441036
     73          1           0        2.515068   -1.287625   -5.230735
     74          1           0        2.356722    0.418381   -5.021777
     75          1           0       -0.390540   -2.160677   -2.092134
     76          1           0        0.802060   -3.014955   -0.976964
     77          1           0        1.227466   -4.665102   -2.664430
     78          1           0        0.029928   -3.753613   -3.651708
     79          1           0        0.201775    5.451747   -2.710883
     80          1           0        0.236263    3.835268   -3.559791
     81          1           0        1.276480    5.084980   -4.061006
     82          1           0        4.909631    7.170474   -0.948203
     83          1           0        3.723506    7.232617    0.360156
     84          1           0        3.776619    8.539270   -0.772233
     85          1           0        6.064730    4.798255    2.438860
     86          1           0        8.046247    2.550083    2.568056
     87          1           0        8.075971    5.561441    1.694441
     88          1           0        7.513229    4.955858    0.117875
     89          1           0        8.637246    4.029486    1.236016
     90          1           0        5.934814    2.175606    4.429849
     91          1           0        6.098166    3.894840    4.113866
     92          1           0        8.777238    2.862641    4.567572
     93          1           0        7.778023    2.281629    5.905501
     94          1           0        7.924457    4.049498    5.636987
     95          1           0        7.555425   -3.574550    2.544921
     96          1           0        6.903095   -2.285864    3.610521
     97          1           0        8.179803   -1.950889    2.328252
     98          1           0        4.316690   -4.061449   -1.699706
     99          1           0        1.424100   -6.829959    0.175825
    100          1           0        2.919516   -7.586944   -0.291732
    101          1           0        1.665223   -7.542576   -1.561092
    102          1           0       -2.525691   -5.729905   -0.096153
    103          1           0       -3.058555   -6.018830   -1.804875
    104          1           0       -3.680968   -3.391941   -0.357623
    105          1           0       -6.400013   -6.378094   -1.065217
    106          1           0       -6.203525   -6.469029    0.676698
    107          1           0       -4.796099   -6.885798   -0.262754
    108          1           0       -7.135426   -4.249251    0.557728
    109          1           0       -6.372280   -2.989227   -0.334927
    110          1           0       -5.277025   -2.205010    1.653835
    111          1           0       -4.810073   -3.711093    2.124980
    112          1           0       -6.577187   -3.930845    3.430019
    113          1           0       -7.793414   -3.107063    2.352209
    114          1           0       -5.657168   -1.224806    3.411030
    115          1           0       -6.702635   -1.017968    5.657673
    116          1           0       -5.867141   -2.615489    5.536126
    117          1           0       -7.588126   -2.457639    5.520147
    118          1           0       -8.425216   -0.375767    4.059425
    119          1           0       -8.187721   -1.012889    2.351431
    120          1           0       -6.140790    0.820789    3.357849
    121          1           0       -7.828704    1.514821    3.161373
    122          1           0       -6.963115   -0.072911    0.880001
    123          1           0       -5.967898    1.402117    1.214872
    124          1           0       -8.995911    1.211374    0.966329
    125          1           0       -8.912758    0.853588   -1.176791
    126          1           0       -7.152334    0.819073   -1.222562
    127          1           0       -7.999897    2.301462   -1.659163
    128          1           0       -7.496145    3.697685    0.372153
    129          1           0       -7.856848    3.163107    2.056299
    130          1           0       -9.783547    4.079227    2.020339
    131          1           0      -10.390182    2.850811    0.954408
    132          1           0       -9.014208    4.917807   -0.582019
    133          1           0      -10.107362    5.658991    0.627102
    134          1           0      -11.128638    3.484103   -1.243878
    135          1           0      -11.842391    5.152942   -2.741153
    136          1           0      -10.126413    4.638999   -2.832124
    137          1           0      -10.411212    6.187661   -2.108175
    138          1           0      -13.052419    4.002059    0.132879
    139          1           0      -13.288929    5.234002   -0.838679
    140          1           0      -12.328132    5.552937    0.668493
 ---------------------------------------------------------------------

 SCF Done:  E(RZINDO/S) =  -474.438980305     A.U. after   19 cycles

 Excitation energies and oscillator strengths:

 Excited State   1:      Singlet-A      1.3300 eV  932.19 nm  f=0.5198  <S**2>=0.000
     175 ->178        -0.15799
     176 ->177         0.67314
 This state for optimization and/or second-order correction.
 Total Energy, E(CIS/TDA) =  -474.390102356
 Copying the excited state density for this state as the 1-particle RhoCI density.

 Excited State   2:      Singlet-A      1.9504 eV  635.69 nm  f=0.0305  <S**2>=0.000
     175 ->177         0.53130
     176 ->178         0.43246

 Excited State   3:      Singlet-A      2.9765 eV  416.54 nm  f=1.1134  <S**2>=0.000
     171 ->177         0.13511
     175 ->177        -0.40358
     176 ->178         0.52004

 Excited State   4:      Singlet-A      3.0790 eV  402.68 nm  f=0.0860  <S**2>=0.000
     167 ->179         0.12337
     168 ->179         0.10500
     170 ->177         0.14148
     170 ->179         0.12405
     170 ->180         0.21141
     176 ->179         0.45975
     176 ->180         0.21653
     176 ->183        -0.11265

 Excited State   5:      Singlet-A      3.0912 eV  401.09 nm  f=0.0340  <S**2>=0.000
     167 ->177        -0.19422
     167 ->178         0.13142
     167 ->179         0.33654
     167 ->180        -0.17834
     167 ->183         0.16173
     167 ->185         0.18096
     168 ->177        -0.14568
     168 ->179         0.22784
     168 ->180        -0.14835
     168 ->183         0.11544
     168 ->185         0.11397
     176 ->179        -0.15279

 The electronic state is 1-A.
 Alpha  occ. eigenvalues --   -1.87012  -1.82273  -1.81257  -1.74402  -1.72794
 Alpha  occ. eigenvalues --   -1.71884  -1.64708  -1.60172  -1.59986  -1.57528
 Alpha  occ. eigenvalues --   -1.54479  -1.50778  -1.49536  -1.47686  -1.46332
 Alpha  occ. eigenvalues --   -1.45387  -1.44407  -1.41279  -1.39674  -1.37351
 Alpha  occ. eigenvalues --   -1.36964  -1.33410  -1.32917  -1.32282  -1.29320
 Alpha  occ. eigenvalues --   -1.27333  -1.26711  -1.22362  -1.20351  -1.17753
 Alpha  occ. eigenvalues --   -1.17004  -1.16545  -1.15094  -1.14359  -1.13814
 Alpha  occ. eigenvalues --   -1.12857  -1.09882  -1.08845  -1.04915  -1.03098
 Alpha  occ. eigenvalues --   -1.01788  -0.99777  -0.97742  -0.97420  -0.96369
 Alpha  occ. eigenvalues --   -0.95931  -0.94385  -0.93521  -0.92761  -0.92209
 Alpha  occ. eigenvalues --   -0.91909  -0.91230  -0.89277  -0.88932  -0.85931
 Alpha  occ. eigenvalues --   -0.84546  -0.83821  -0.83562  -0.82222  -0.80161
 Alpha  occ. eigenvalues --   -0.78904  -0.77774  -0.77539  -0.76959  -0.76371
 Alpha  occ. eigenvalues --   -0.75777  -0.74910  -0.74159  -0.73601  -0.72847
 Alpha  occ. eigenvalues --   -0.72454  -0.72073  -0.71468  -0.70946  -0.70398
 Alpha  occ. eigenvalues --   -0.70009  -0.69584  -0.69117  -0.68560  -0.67861
 Alpha  occ. eigenvalues --   -0.67343  -0.66579  -0.66399  -0.65807  -0.65212
 Alpha  occ. eigenvalues --   -0.65101  -0.64990  -0.64169  -0.64049  -0.63396
 Alpha  occ. eigenvalues --   -0.63153  -0.63001  -0.62912  -0.62720  -0.62179
 Alpha  occ. eigenvalues --   -0.61427  -0.61065  -0.60931  -0.60278  -0.60246
 Alpha  occ. eigenvalues --   -0.59603  -0.59474  -0.59010  -0.58870  -0.58490
 Alpha  occ. eigenvalues --   -0.58214  -0.57576  -0.57188  -0.57109  -0.56481
 Alpha  occ. eigenvalues --   -0.56317  -0.55663  -0.55329  -0.54940  -0.54546
 Alpha  occ. eigenvalues --   -0.54193  -0.54036  -0.53171  -0.53036  -0.52791
 Alpha  occ. eigenvalues --   -0.52536  -0.51928  -0.51685  -0.51574  -0.51303
 Alpha  occ. eigenvalues --   -0.51025  -0.50643  -0.50396  -0.50115  -0.50045
 Alpha  occ. eigenvalues --   -0.49914  -0.49639  -0.49378  -0.49332  -0.49113
 Alpha  occ. eigenvalues --   -0.48275  -0.48176  -0.48126  -0.47670  -0.47335
 Alpha  occ. eigenvalues --   -0.47303  -0.47092  -0.46921  -0.46769  -0.46506
 Alpha  occ. eigenvalues --   -0.46365  -0.46185  -0.45800  -0.45726  -0.45235
 Alpha  occ. eigenvalues --   -0.45092  -0.44379  -0.44060  -0.43858  -0.43636
 Alpha  occ. eigenvalues --   -0.43477  -0.42917  -0.42365  -0.42112  -0.41961
 Alpha  occ. eigenvalues --   -0.41852  -0.41690  -0.39991  -0.39330  -0.38200
 Alpha  occ. eigenvalues --   -0.37687  -0.37090  -0.36570  -0.35037  -0.33976
 Alpha  occ. eigenvalues --   -0.33778  -0.32635  -0.31422  -0.30940  -0.27002
 Alpha  occ. eigenvalues --   -0.21856
 Alpha virt. eigenvalues --   -0.08249  -0.02104  -0.00400   0.01539   0.02126
 Alpha virt. eigenvalues --    0.02577   0.03015   0.03175   0.04212   0.04495
 Alpha virt. eigenvalues --    0.05213   0.06369   0.07099   0.07467   0.07846

 Mulliken charges:
               1
     1  Mg   0.426967
     2  C   -0.043353
     3  C   -0.099510
     4  C   -0.104640
     5  C   -0.051368
     6  N   -0.275695
     7  C    0.080955
     8  C    0.006048
     9  C   -0.000574
    10  C    0.184463
    11  C   -0.047381
    12  C   -0.019947
    13  C   -0.001430
    14  C    0.467905
    15  O   -0.506047
    16  O   -0.284655
    17  N   -0.344449
    18  C    0.142172
    19  C    0.074009
    20  C   -0.064137
    21  C    0.156589
    22  C   -0.038245
    23  C    0.329937
    24  O   -0.496883
    25  C   -0.022134
    26  N   -0.276671
    27  C    0.165920
    28  C    0.012373
    29  C   -0.011540
    30  C    0.082681
    31  C   -0.047614
    32  C   -0.044415
    33  C   -0.061697
    34  N   -0.302462
    35  C    0.064395
    36  C   -0.001332
    37  C   -0.070239
    38  C    0.101331
    39  C   -0.044264
    40  C    0.335415
    41  O   -0.520845
    42  C    0.067442
    43  C    0.487329
    44  O   -0.516979
    45  O   -0.281647
    46  C    0.066370
    47  C    0.095348
    48  C   -0.076952
    49  C   -0.029830
    50  C   -0.035685
    51  C   -0.027075
    52  C   -0.033692
    53  C   -0.038356
    54  C   -0.009106
    55  C   -0.059661
    56  C   -0.041305
    57  C   -0.056685
    58  C   -0.041972
    59  C   -0.018280
    60  C   -0.061803
    61  C   -0.042841
    62  C   -0.041494
    63  C   -0.031198
    64  C   -0.015875
    65  C   -0.061927
    66  C   -0.064101
    67  H    0.033770
    68  H    0.015929
    69  H    0.016773
    70  H    0.029132
    71  H    0.028707
    72  H    0.020275
    73  H    0.024898
    74  H    0.023973
    75  H    0.036157
    76  H    0.042360
    77  H    0.039323
    78  H    0.043670
    79  H    0.051623
    80  H    0.021515
    81  H    0.035399
    82  H    0.034049
    83  H    0.036993
    84  H    0.039487
    85  H    0.035296
    86  H    0.034405
    87  H    0.013376
    88  H    0.021774
    89  H    0.027996
    90  H    0.031601
    91  H    0.015146
    92  H    0.022569
    93  H    0.023742
    94  H    0.027038
    95  H    0.030238
    96  H    0.035702
    97  H    0.022986
    98  H    0.051999
    99  H    0.064197
   100  H    0.033263
   101  H    0.050211
   102  H    0.049722
   103  H    0.064864
   104  H    0.035716
   105  H    0.032641
   106  H    0.023445
   107  H    0.029688
   108  H    0.006161
   109  H    0.024132
   110  H    0.010812
   111  H    0.024263
   112  H    0.022504
   113  H    0.031720
   114  H    0.034409
   115  H    0.009721
   116  H    0.018803
   117  H    0.016206
   118  H    0.029670
   119  H    0.023394
   120  H    0.023516
   121  H    0.021787
   122  H    0.013326
   123  H    0.019055
   124  H    0.017177
   125  H    0.015075
   126  H    0.017143
   127  H    0.028574
   128  H    0.026093
   129  H    0.017543
   130  H    0.008389
   131  H    0.026056
   132  H    0.020407
   133  H    0.019783
   134  H    0.019713
   135  H    0.021409
   136  H    0.015624
   137  H    0.023318
   138  H    0.015635
   139  H    0.018484
   140  H    0.028792
 Sum of Mulliken charges =  -0.00000

 Dipole moment (field-independent basis, Debye):
    X=              1.0475    Y=              7.5861    Z=             -4.6362  Tot=              8.9521
 N-N= 4.421055006339D+03 E-N= 0.000000000000D+00  KE=-9.516956698931D+03
 Leave Link  601 at Thu May  5 08:15:25 2022, MaxMem=  6710886400 cpu:               0.8 elap:               0.0
 (Enter /sw/apps/gaussian-16.0/g16/l9999.exe)
 1\1\GINC-BP1-COMPUTE100\SP\RZINDO CIS\STO-3G\C55H74Mg1N4O6\OF15641\05-
 May-2022\0\\#p ZINDO=(nstates=5)\\step_751_chromophore_20 ZINDO\\0,1\M
 g,0,6.766,57.514,41.815\C,0,5.219,54.315,41.348\C,0,9.687,56.144,40.37
 8\C,0,8.157,60.463,41.945\C,0,3.71,58.735,42.756\N,0,7.327,55.447,40.8
 36\C,0,6.555,54.304,40.911\C,0,7.416,53.104,40.44\C,0,8.865,53.708,40.
 417\C,0,8.594,55.198,40.568\C,0,9.964,53.253,41.409\C,0,6.961,52.558,3
 9.109\C,0,6.766,51.056,39.205\C,0,6.027,50.345,38.071\O,0,5.411,49.32,

 Normal termination of Gaussian 16 at Thu May  5 08:15:25 2022.
