 Gaussian 16, Revision A.03,
 Gaussian 16:  ES64L-G16RevA.03 25-Dec-2016

 ------------------------------
 #p blyp/Def2SVP td=(nstates=5)
 ------------------------------

 ---------------------------------------------------
 step_1201_chromophore_19 TDDFT with blyp functional
 ---------------------------------------------------
 Symbolic Z-matrix:
 Charge =  0 Multiplicity = 1

                         Standard orientation:
 ---------------------------------------------------------------------
 Center     Atomic      Atomic             Coordinates (Angstroms)
 Number     Number       Type             X           Y           Z
 ---------------------------------------------------------------------
      1         12           0       -5.942152    0.382065   -0.232210
      2          6           0       -3.487907   -2.131346   -0.301874
      3          6           0       -3.335257    2.592596    0.259958
      4          6           0       -8.204117    2.720621    0.101395
      5          6           0       -8.437681   -2.066129   -0.505759
      6          7           0       -3.597915    0.269701   -0.004308
      7          6           0       -2.853669   -0.912422   -0.089710
      8          6           0       -1.321046   -0.581138    0.023701
      9          6           0       -1.366014    0.877631    0.638832
     10          6           0       -2.796048    1.316970    0.183847
     11          6           0       -1.139644    0.952962    2.232495
     12          6           0       -0.556576   -0.614812   -1.339327
     13          6           0        0.651480   -1.559249   -1.409535
     14          6           0        1.713796   -1.438531   -0.236387
     15          8           0        1.483292   -1.813445    0.937292
     16          8           0        2.902106   -0.983226   -0.696851
     17          7           0       -5.793194    2.381598    0.172468
     18          6           0       -4.603195    3.140913    0.198087
     19          6           0       -5.002341    4.582888    0.344713
     20          6           0       -6.408795    4.554576    0.532350
     21          6           0       -6.852175    3.147498    0.148493
     22          6           0       -4.000089    5.679015    0.625062
     23          6           0       -7.293503    5.766485    0.825283
     24          8           0       -8.533608    5.669306    1.069571
     25          6           0       -6.646132    7.127422    1.098935
     26          7           0       -8.112517    0.324873   -0.114672
     27          6           0       -8.762647    1.429137    0.064634
     28          6           0      -10.286228    1.223444    0.083064
     29          6           0      -10.387700   -0.411947   -0.155789
     30          6           0       -8.925851   -0.779743   -0.281430
     31          6           0      -10.890647    1.676283    1.497469
     32          6           0      -11.356879   -0.873087   -1.331290
     33          6           0      -10.816451   -0.836922   -2.750260
     34          7           0       -5.968532   -1.653133   -0.231480
     35          6           0       -7.094998   -2.475332   -0.450761
     36          6           0       -6.636052   -3.890284   -0.575122
     37          6           0       -5.226347   -3.792666   -0.513055
     38          6           0       -4.884150   -2.399206   -0.334102
     39          6           0       -7.526202   -5.115080   -0.810902
     40          6           0       -3.986720   -4.508214   -0.710193
     41          8           0       -3.861453   -5.716341   -0.881355
     42          6           0       -2.797157   -3.480214   -0.462372
     43          6           0       -2.107626   -4.005522    0.745623
     44          8           0       -2.516846   -3.948545    1.885948
     45          8           0       -0.919312   -4.577491    0.348380
     46          6           0       -0.037307   -4.911513    1.448587
     47          6           0        3.902905   -0.873578    0.347526
     48          6           0        5.265369   -0.555661   -0.346612
     49          6           0        6.476588   -0.342499    0.216149
     50          6           0        6.638368   -0.442068    1.727478
     51          6           0        7.715382   -0.255050   -0.721714
     52          6           0        8.512466    1.100641   -0.803775
     53          6           0        8.651126    1.558836   -2.261763
     54          6           0        9.958829    2.168516   -2.624781
     55          6           0        9.640817    3.077628   -3.843793
     56          6           0       11.145700    1.161821   -2.932748
     57          6           0       12.552400    1.721525   -2.598024
     58          6           0       13.552662    0.665483   -2.148099
     59          6           0       13.814252    0.654725   -0.625388
     60          6           0       15.172599   -0.051714   -0.238284
     61          6           0       12.637694    0.126935    0.196534
     62          6           0       12.346043    0.961244    1.438839
     63          6           0       12.356750    0.038961    2.668034
     64          6           0       11.002028   -0.698996    2.884463
     65          6           0       10.051779    0.278377    3.522288
     66          6           0       11.200033   -1.902060    3.834484
     67          1           0       -2.593810    3.393263    0.295810
     68          1           0       -8.992521    3.473657    0.165003
     69          1           0       -9.300110   -2.725528   -0.627790
     70          1           0       -0.919185   -1.230829    0.800705
     71          1           0       -0.629787    1.471253    0.098456
     72          1           0       -0.807639    0.092458    2.814628
     73          1           0       -2.158652    1.146770    2.568368
     74          1           0       -0.480166    1.791780    2.451270
     75          1           0       -0.330008    0.380533   -1.721387
     76          1           0       -1.325947   -1.088630   -1.949774
     77          1           0        1.171707   -1.457470   -2.362444
     78          1           0        0.201087   -2.551369   -1.393127
     79          1           0       -4.095402    6.534385   -0.043548
     80          1           0       -2.983038    5.326890    0.456858
     81          1           0       -4.045863    5.788136    1.708833
     82          1           0       -7.459282    7.824233    1.303311
     83          1           0       -6.015204    7.489679    0.287692
     84          1           0       -6.105898    6.941559    2.027223
     85          1           0      -10.671061    1.783588   -0.768064
     86          1           0      -10.734020   -0.911710    0.747991
     87          1           0      -11.673270    2.433831    1.449891
     88          1           0      -10.141517    2.195250    2.095673
     89          1           0      -11.259055    0.791843    2.016026
     90          1           0      -12.247538   -0.244926   -1.322819
     91          1           0      -11.710343   -1.851645   -1.007670
     92          1           0      -11.609271   -0.287038   -3.257860
     93          1           0      -10.868644   -1.820292   -3.215666
     94          1           0       -9.840862   -0.367271   -2.870508
     95          1           0       -8.198633   -5.176810    0.044485
     96          1           0       -6.875202   -5.983373   -0.705803
     97          1           0       -7.953531   -5.048750   -1.810985
     98          1           0       -2.230586   -3.586138   -1.387554
     99          1           0       -0.472584   -5.553490    2.214330
    100          1           0        0.145308   -3.962576    1.953482
    101          1           0        0.918281   -5.272823    1.068875
    102          1           0        4.001338   -1.711383    1.038668
    103          1           0        3.682772   -0.015427    0.983862
    104          1           0        5.202940   -0.549892   -1.435016
    105          1           0        7.003614    0.512096    2.107673
    106          1           0        7.445561   -1.155293    1.894117
    107          1           0        5.774724   -0.742576    2.321332
    108          1           0        7.450608   -0.713275   -1.674768
    109          1           0        8.348855   -1.030183   -0.292050
    110          1           0        9.533725    0.914418   -0.472446
    111          1           0        8.013907    1.843576   -0.180762
    112          1           0        7.876388    2.321063   -2.177789
    113          1           0        8.347278    0.837477   -3.021097
    114          1           0       10.233423    2.891076   -1.856918
    115          1           0        9.531853    4.099427   -3.478599
    116          1           0        8.623825    2.916397   -4.202022
    117          1           0       10.406802    3.090093   -4.618391
    118          1           0       11.112835    1.064744   -4.017457
    119          1           0       10.973190    0.144264   -2.581157
    120          1           0       12.512484    2.539592   -1.878181
    121          1           0       13.083043    2.141251   -3.452515
    122          1           0       14.490347    0.820017   -2.681861
    123          1           0       13.129745   -0.286585   -2.468106
    124          1           0       14.060390    1.694173   -0.410967
    125          1           0       15.471300   -0.651522   -1.097636
    126          1           0       15.110813   -0.675135    0.652894
    127          1           0       16.036592    0.557169    0.029424
    128          1           0       12.767582   -0.939090    0.383943
    129          1           0       11.673731    0.141309   -0.310107
    130          1           0       11.397690    1.498925    1.429486
    131          1           0       13.113800    1.710962    1.633077
    132          1           0       12.557307    0.679868    3.527380
    133          1           0       13.136942   -0.719574    2.726526
    134          1           0       10.641690   -1.063231    1.921837
    135          1           0        9.291568   -0.238210    4.108363
    136          1           0        9.448048    0.854136    2.820362
    137          1           0       10.535250    1.043379    4.130408
    138          1           0       12.202549   -2.320966    3.747070
    139          1           0       10.569712   -2.768713    3.635811
    140          1           0       11.084030   -1.749838    4.907431
 ---------------------------------------------------------------------

 SCF Done:  E(RB-LYP) =  -3007.38817053     A.U. after   21 cycles

 Excitation energies and oscillator strengths:

 Excited State   1:      Singlet-A      1.8328 eV  676.47 nm  f=0.2838  <S**2>=0.000
     245 -> 248       -0.17427
     246 -> 247        0.68500
     246 <- 247       -0.13509
 This state for optimization and/or second-order correction.
 Total Energy, E(TD-HF/TD-DFT) =  -3007.32081593
 Copying the excited state density for this state as the 1-particle RhoCI density.

 Excited State   2:      Singlet-A      1.9683 eV  629.90 nm  f=0.0049  <S**2>=0.000
     243 -> 247       -0.11417
     244 -> 247        0.67044
     245 -> 247       -0.18221

 Excited State   3:      Singlet-A      2.0045 eV  618.53 nm  f=0.0285  <S**2>=0.000
     243 -> 247        0.53937
     244 -> 247        0.20766
     245 -> 247        0.38317
     246 -> 248        0.10027

 Excited State   4:      Singlet-A      2.1020 eV  589.84 nm  f=0.0446  <S**2>=0.000
     243 -> 247       -0.43676
     245 -> 247        0.48636
     246 -> 248        0.21366
     246 -> 249        0.11852

 Excited State   5:      Singlet-A      2.5505 eV  486.12 nm  f=0.0000  <S**2>=0.000
     242 -> 247        0.70693

 The electronic state is 1-A.
 Alpha  occ. eigenvalues --  -46.27316 -18.84371 -18.81156 -18.77873 -18.76123
 Alpha  occ. eigenvalues --  -18.75419 -18.75184 -14.02764 -14.02509 -14.01421
 Alpha  occ. eigenvalues --  -14.01168 -10.05402 -10.03078 -10.00097  -9.98980
 Alpha  occ. eigenvalues --   -9.98838  -9.96229  -9.96207  -9.96084  -9.96070
 Alpha  occ. eigenvalues --   -9.95990  -9.95810  -9.95747  -9.95725  -9.94751
 Alpha  occ. eigenvalues --   -9.94435  -9.94406  -9.94145  -9.94099  -9.94033
 Alpha  occ. eigenvalues --   -9.93685  -9.93681  -9.93663  -9.93549  -9.93471
 Alpha  occ. eigenvalues --   -9.93391  -9.93332  -9.93310  -9.92896  -9.92763
 Alpha  occ. eigenvalues --   -9.92686  -9.92632  -9.92462  -9.92346  -9.92280
 Alpha  occ. eigenvalues --   -9.92184  -9.92181  -9.92104  -9.92095  -9.92056
 Alpha  occ. eigenvalues --   -9.92020  -9.92017  -9.91835  -9.91725  -9.91551
 Alpha  occ. eigenvalues --   -9.91298  -9.91204  -9.91153  -9.91049  -9.90990
 Alpha  occ. eigenvalues --   -9.90862  -9.90819  -9.90801  -9.90773  -9.90751
 Alpha  occ. eigenvalues --   -9.90692  -2.91944  -1.72372  -1.71842  -1.71642
 Alpha  occ. eigenvalues --   -0.99562  -0.97081  -0.90572  -0.90072  -0.89475
 Alpha  occ. eigenvalues --   -0.89078  -0.86695  -0.85770  -0.85494  -0.84689
 Alpha  occ. eigenvalues --   -0.74751  -0.73878  -0.73259  -0.72549  -0.72194
 Alpha  occ. eigenvalues --   -0.72111  -0.71400  -0.71300  -0.70330  -0.70011
 Alpha  occ. eigenvalues --   -0.69243  -0.68721  -0.68117  -0.67058  -0.66951
 Alpha  occ. eigenvalues --   -0.66373  -0.65590  -0.65203  -0.64653  -0.64516
 Alpha  occ. eigenvalues --   -0.64160  -0.62536  -0.61827  -0.61566  -0.60874
 Alpha  occ. eigenvalues --   -0.60453  -0.60150  -0.59599  -0.59420  -0.59347
 Alpha  occ. eigenvalues --   -0.58289  -0.57442  -0.56503  -0.55430  -0.55137
 Alpha  occ. eigenvalues --   -0.54039  -0.53202  -0.52904  -0.52274  -0.51830
 Alpha  occ. eigenvalues --   -0.51230  -0.50950  -0.50792  -0.50545  -0.50150
 Alpha  occ. eigenvalues --   -0.50034  -0.49533  -0.48917  -0.47904  -0.46460
 Alpha  occ. eigenvalues --   -0.46313  -0.45360  -0.45279  -0.44528  -0.44453
 Alpha  occ. eigenvalues --   -0.43273  -0.43030  -0.42472  -0.42460  -0.42035
 Alpha  occ. eigenvalues --   -0.42021  -0.41927  -0.41844  -0.41356  -0.41236
 Alpha  occ. eigenvalues --   -0.40781  -0.40742  -0.40472  -0.40357  -0.40255
 Alpha  occ. eigenvalues --   -0.40019  -0.39843  -0.39784  -0.39319  -0.39214
 Alpha  occ. eigenvalues --   -0.38860  -0.38714  -0.38420  -0.38348  -0.38116
 Alpha  occ. eigenvalues --   -0.37991  -0.37753  -0.37506  -0.37213  -0.37183
 Alpha  occ. eigenvalues --   -0.37025  -0.36617  -0.36611  -0.36552  -0.36295
 Alpha  occ. eigenvalues --   -0.36126  -0.35940  -0.35852  -0.35736  -0.35504
 Alpha  occ. eigenvalues --   -0.35391  -0.35052  -0.34853  -0.34805  -0.34740
 Alpha  occ. eigenvalues --   -0.34234  -0.34163  -0.33929  -0.33785  -0.33653
 Alpha  occ. eigenvalues --   -0.33504  -0.33407  -0.33195  -0.32972  -0.32809
 Alpha  occ. eigenvalues --   -0.32789  -0.32531  -0.32289  -0.32248  -0.32141
 Alpha  occ. eigenvalues --   -0.31886  -0.31783  -0.31603  -0.31427  -0.31392
 Alpha  occ. eigenvalues --   -0.31191  -0.31135  -0.30848  -0.30694  -0.30652
 Alpha  occ. eigenvalues --   -0.30404  -0.30185  -0.30155  -0.29953  -0.29701
 Alpha  occ. eigenvalues --   -0.29584  -0.29471  -0.29314  -0.29256  -0.29031
 Alpha  occ. eigenvalues --   -0.28864  -0.28732  -0.28658  -0.27827  -0.27638
 Alpha  occ. eigenvalues --   -0.27584  -0.27350  -0.26982  -0.26879  -0.26783
 Alpha  occ. eigenvalues --   -0.26570  -0.26467  -0.26246  -0.25774  -0.25182
 Alpha  occ. eigenvalues --   -0.25167  -0.24695  -0.24019  -0.23815  -0.23777
 Alpha  occ. eigenvalues --   -0.23067  -0.22385  -0.22119  -0.21489  -0.20943
 Alpha  occ. eigenvalues --   -0.20583  -0.20399  -0.18384  -0.18176  -0.17058
 Alpha  occ. eigenvalues --   -0.15543
 Alpha virt. eigenvalues --   -0.11027  -0.06715  -0.06123  -0.04706  -0.04341
 Alpha virt. eigenvalues --   -0.02385  -0.01729  -0.01511  -0.01286   0.00803
 Alpha virt. eigenvalues --    0.01135   0.01156   0.01881   0.02327   0.02793

 Mulliken charges:
               1
     1  Mg   0.683474
     2  C    0.051565
     3  C   -0.045059
     4  C   -0.022842
     5  C   -0.067169
     6  N   -0.176246
     7  C   -0.123548
     8  C    0.001080
     9  C    0.004356
    10  C   -0.020022
    11  C    0.123865
    12  C    0.134785
    13  C    0.132853
    14  C    0.105432
    15  O   -0.228078
    16  O   -0.230766
    17  N   -0.297186
    18  C    0.134485
    19  C   -0.151149
    20  C   -0.008745
    21  C    0.144028
    22  C    0.188625
    23  C   -0.059522
    24  O   -0.209092
    25  C    0.146904
    26  N   -0.182765
    27  C   -0.032393
    28  C   -0.001064
    29  C    0.068190
    30  C   -0.063413
    31  C    0.106606
    32  C    0.049735
    33  C    0.090299
    34  N   -0.265841
    35  C    0.178979
    36  C   -0.223456
    37  C    0.120714
    38  C    0.068560
    39  C    0.195407
    40  C   -0.111204
    41  O   -0.138444
    42  C    0.060850
    43  C    0.133561
    44  O   -0.171663
    45  O   -0.270746
    46  C    0.234193
    47  C    0.294516
    48  C   -0.133163
    49  C   -0.150258
    50  C    0.133429
    51  C    0.115135
    52  C    0.105050
    53  C    0.071256
    54  C   -0.069540
    55  C    0.108207
    56  C    0.126207
    57  C    0.088014
    58  C    0.086610
    59  C   -0.054942
    60  C    0.088297
    61  C    0.142397
    62  C    0.103161
    63  C    0.054198
    64  C   -0.057177
    65  C    0.106462
    66  C    0.094863
    67  H   -0.074464
    68  H   -0.048483
    69  H   -0.067851
    70  H    0.005014
    71  H   -0.044515
    72  H    0.019170
    73  H   -0.003882
    74  H   -0.005726
    75  H   -0.008009
    76  H   -0.022531
    77  H   -0.013789
    78  H    0.006602
    79  H    0.009662
    80  H   -0.025870
    81  H    0.018889
    82  H   -0.005958
    83  H    0.004250
    84  H    0.010717
    85  H   -0.010303
    86  H   -0.020887
    87  H   -0.004008
    88  H    0.007464
    89  H   -0.007732
    90  H   -0.018724
    91  H   -0.021018
    92  H   -0.017642
    93  H   -0.010869
    94  H    0.015482
    95  H    0.000907
    96  H    0.002632
    97  H    0.015083
    98  H   -0.008557
    99  H    0.009301
   100  H    0.006136
   101  H    0.006979
   102  H    0.019700
   103  H    0.001646
   104  H   -0.033816
   105  H    0.003155
   106  H   -0.001888
   107  H   -0.007468
   108  H   -0.029673
   109  H   -0.033459
   110  H   -0.018795
   111  H   -0.015742
   112  H   -0.036038
   113  H   -0.025907
   114  H   -0.041774
   115  H   -0.032566
   116  H   -0.022492
   117  H   -0.014356
   118  H   -0.040339
   119  H   -0.023717
   120  H   -0.032907
   121  H   -0.035022
   122  H   -0.044920
   123  H   -0.037916
   124  H   -0.036884
   125  H   -0.018788
   126  H   -0.023028
   127  H   -0.020712
   128  H   -0.030027
   129  H   -0.050611
   130  H   -0.033241
   131  H   -0.033429
   132  H   -0.048703
   133  H   -0.037327
   134  H   -0.031672
   135  H   -0.021572
   136  H   -0.023877
   137  H   -0.018266
   138  H   -0.034079
   139  H   -0.024354
   140  H   -0.017457
 Sum of Mulliken charges =  -0.00000

 Dipole moment (field-independent basis, Debye):
    X=              3.8406    Y=              4.3380    Z=             -2.0458  Tot=              6.1444
 Quadrupole moment (field-independent basis, Debye-Ang):
   XX=           -371.8938   YY=           -431.8399   ZZ=           -406.7131
   XY=              9.5676   XZ=             15.6088   YZ=             -0.2474

 Normal termination of Gaussian 16 at Wed May  4 01:54:19 2022.
