 Gaussian 16, Revision A.03,
 Gaussian 16:  ES64L-G16RevA.03 25-Dec-2016

 -----------------------------------
 #p cam-b3lyp/Def2SVP td=(nstates=5)
 -----------------------------------

 --------------------------------------------------------
 step_1201_chromophore_19 TDDFT with cam-b3lyp functional
 --------------------------------------------------------
 Symbolic Z-matrix:
 Charge =  0 Multiplicity = 1

                         Standard orientation:
 ---------------------------------------------------------------------
 Center     Atomic      Atomic             Coordinates (Angstroms)
 Number     Number       Type             X           Y           Z
 ---------------------------------------------------------------------
      1         12           0       -5.942152    0.382065   -0.232210
      2          6           0       -3.487907   -2.131346   -0.301874
      3          6           0       -3.335257    2.592596    0.259958
      4          6           0       -8.204117    2.720621    0.101395
      5          6           0       -8.437681   -2.066129   -0.505759
      6          7           0       -3.597915    0.269701   -0.004308
      7          6           0       -2.853669   -0.912422   -0.089710
      8          6           0       -1.321046   -0.581138    0.023701
      9          6           0       -1.366014    0.877631    0.638832
     10          6           0       -2.796048    1.316970    0.183847
     11          6           0       -1.139644    0.952962    2.232495
     12          6           0       -0.556576   -0.614812   -1.339327
     13          6           0        0.651480   -1.559249   -1.409535
     14          6           0        1.713796   -1.438531   -0.236387
     15          8           0        1.483292   -1.813445    0.937292
     16          8           0        2.902106   -0.983226   -0.696851
     17          7           0       -5.793194    2.381598    0.172468
     18          6           0       -4.603195    3.140913    0.198087
     19          6           0       -5.002341    4.582888    0.344713
     20          6           0       -6.408795    4.554576    0.532350
     21          6           0       -6.852175    3.147498    0.148493
     22          6           0       -4.000089    5.679015    0.625062
     23          6           0       -7.293503    5.766485    0.825283
     24          8           0       -8.533608    5.669306    1.069571
     25          6           0       -6.646132    7.127422    1.098935
     26          7           0       -8.112517    0.324873   -0.114672
     27          6           0       -8.762647    1.429137    0.064634
     28          6           0      -10.286228    1.223444    0.083064
     29          6           0      -10.387700   -0.411947   -0.155789
     30          6           0       -8.925851   -0.779743   -0.281430
     31          6           0      -10.890647    1.676283    1.497469
     32          6           0      -11.356879   -0.873087   -1.331290
     33          6           0      -10.816451   -0.836922   -2.750260
     34          7           0       -5.968532   -1.653133   -0.231480
     35          6           0       -7.094998   -2.475332   -0.450761
     36          6           0       -6.636052   -3.890284   -0.575122
     37          6           0       -5.226347   -3.792666   -0.513055
     38          6           0       -4.884150   -2.399206   -0.334102
     39          6           0       -7.526202   -5.115080   -0.810902
     40          6           0       -3.986720   -4.508214   -0.710193
     41          8           0       -3.861453   -5.716341   -0.881355
     42          6           0       -2.797157   -3.480214   -0.462372
     43          6           0       -2.107626   -4.005522    0.745623
     44          8           0       -2.516846   -3.948545    1.885948
     45          8           0       -0.919312   -4.577491    0.348380
     46          6           0       -0.037307   -4.911513    1.448587
     47          6           0        3.902905   -0.873578    0.347526
     48          6           0        5.265369   -0.555661   -0.346612
     49          6           0        6.476588   -0.342499    0.216149
     50          6           0        6.638368   -0.442068    1.727478
     51          6           0        7.715382   -0.255050   -0.721714
     52          6           0        8.512466    1.100641   -0.803775
     53          6           0        8.651126    1.558836   -2.261763
     54          6           0        9.958829    2.168516   -2.624781
     55          6           0        9.640817    3.077628   -3.843793
     56          6           0       11.145700    1.161821   -2.932748
     57          6           0       12.552400    1.721525   -2.598024
     58          6           0       13.552662    0.665483   -2.148099
     59          6           0       13.814252    0.654725   -0.625388
     60          6           0       15.172599   -0.051714   -0.238284
     61          6           0       12.637694    0.126935    0.196534
     62          6           0       12.346043    0.961244    1.438839
     63          6           0       12.356750    0.038961    2.668034
     64          6           0       11.002028   -0.698996    2.884463
     65          6           0       10.051779    0.278377    3.522288
     66          6           0       11.200033   -1.902060    3.834484
     67          1           0       -2.593810    3.393263    0.295810
     68          1           0       -8.992521    3.473657    0.165003
     69          1           0       -9.300110   -2.725528   -0.627790
     70          1           0       -0.919185   -1.230829    0.800705
     71          1           0       -0.629787    1.471253    0.098456
     72          1           0       -0.807639    0.092458    2.814628
     73          1           0       -2.158652    1.146770    2.568368
     74          1           0       -0.480166    1.791780    2.451270
     75          1           0       -0.330008    0.380533   -1.721387
     76          1           0       -1.325947   -1.088630   -1.949774
     77          1           0        1.171707   -1.457470   -2.362444
     78          1           0        0.201087   -2.551369   -1.393127
     79          1           0       -4.095402    6.534385   -0.043548
     80          1           0       -2.983038    5.326890    0.456858
     81          1           0       -4.045863    5.788136    1.708833
     82          1           0       -7.459282    7.824233    1.303311
     83          1           0       -6.015204    7.489679    0.287692
     84          1           0       -6.105898    6.941559    2.027223
     85          1           0      -10.671061    1.783588   -0.768064
     86          1           0      -10.734020   -0.911710    0.747991
     87          1           0      -11.673270    2.433831    1.449891
     88          1           0      -10.141517    2.195250    2.095673
     89          1           0      -11.259055    0.791843    2.016026
     90          1           0      -12.247538   -0.244926   -1.322819
     91          1           0      -11.710343   -1.851645   -1.007670
     92          1           0      -11.609271   -0.287038   -3.257860
     93          1           0      -10.868644   -1.820292   -3.215666
     94          1           0       -9.840862   -0.367271   -2.870508
     95          1           0       -8.198633   -5.176810    0.044485
     96          1           0       -6.875202   -5.983373   -0.705803
     97          1           0       -7.953531   -5.048750   -1.810985
     98          1           0       -2.230586   -3.586138   -1.387554
     99          1           0       -0.472584   -5.553490    2.214330
    100          1           0        0.145308   -3.962576    1.953482
    101          1           0        0.918281   -5.272823    1.068875
    102          1           0        4.001338   -1.711383    1.038668
    103          1           0        3.682772   -0.015427    0.983862
    104          1           0        5.202940   -0.549892   -1.435016
    105          1           0        7.003614    0.512096    2.107673
    106          1           0        7.445561   -1.155293    1.894117
    107          1           0        5.774724   -0.742576    2.321332
    108          1           0        7.450608   -0.713275   -1.674768
    109          1           0        8.348855   -1.030183   -0.292050
    110          1           0        9.533725    0.914418   -0.472446
    111          1           0        8.013907    1.843576   -0.180762
    112          1           0        7.876388    2.321063   -2.177789
    113          1           0        8.347278    0.837477   -3.021097
    114          1           0       10.233423    2.891076   -1.856918
    115          1           0        9.531853    4.099427   -3.478599
    116          1           0        8.623825    2.916397   -4.202022
    117          1           0       10.406802    3.090093   -4.618391
    118          1           0       11.112835    1.064744   -4.017457
    119          1           0       10.973190    0.144264   -2.581157
    120          1           0       12.512484    2.539592   -1.878181
    121          1           0       13.083043    2.141251   -3.452515
    122          1           0       14.490347    0.820017   -2.681861
    123          1           0       13.129745   -0.286585   -2.468106
    124          1           0       14.060390    1.694173   -0.410967
    125          1           0       15.471300   -0.651522   -1.097636
    126          1           0       15.110813   -0.675135    0.652894
    127          1           0       16.036592    0.557169    0.029424
    128          1           0       12.767582   -0.939090    0.383943
    129          1           0       11.673731    0.141309   -0.310107
    130          1           0       11.397690    1.498925    1.429486
    131          1           0       13.113800    1.710962    1.633077
    132          1           0       12.557307    0.679868    3.527380
    133          1           0       13.136942   -0.719574    2.726526
    134          1           0       10.641690   -1.063231    1.921837
    135          1           0        9.291568   -0.238210    4.108363
    136          1           0        9.448048    0.854136    2.820362
    137          1           0       10.535250    1.043379    4.130408
    138          1           0       12.202549   -2.320966    3.747070
    139          1           0       10.569712   -2.768713    3.635811
    140          1           0       11.084030   -1.749838    4.907431
 ---------------------------------------------------------------------

 SCF Done:  E(RCAM-B3LYP) =  -3007.17615913     A.U. after   17 cycles

 Excitation energies and oscillator strengths:

 Excited State   1:      Singlet-A      1.7953 eV  690.61 nm  f=0.3527  <S**2>=0.000
     245 -> 248       -0.18658
     246 -> 247        0.68311
     245 <- 248       -0.10546
 This state for optimization and/or second-order correction.
 Total Energy, E(TD-HF/TD-DFT) =  -3007.11018365
 Copying the excited state density for this state as the 1-particle RhoCI density.

 Excited State   2:      Singlet-A      2.3312 eV  531.86 nm  f=0.0745  <S**2>=0.000
     245 -> 247        0.62000
     246 -> 248        0.33052

 Excited State   3:      Singlet-A      3.4798 eV  356.30 nm  f=0.1245  <S**2>=0.000
     239 -> 247        0.17420
     239 -> 249        0.15646
     240 -> 247        0.44633
     240 -> 249        0.33933
     240 -> 250       -0.14196
     245 -> 247        0.11934
     246 -> 248       -0.23228

 Excited State   4:      Singlet-A      3.5322 eV  351.01 nm  f=0.6175  <S**2>=0.000
     240 -> 247        0.20739
     240 -> 249        0.14175
     241 -> 247       -0.19295
     245 -> 247       -0.27939
     246 -> 248        0.53847

 Excited State   5:      Singlet-A      3.5904 eV  345.32 nm  f=0.0256  <S**2>=0.000
     243 -> 247        0.46737
     243 -> 249       -0.23680
     243 -> 250       -0.26386
     243 -> 251        0.10007
     244 -> 247        0.28103
     244 -> 249       -0.12327
     244 -> 250       -0.12629

 The electronic state is 1-A.
 Alpha  occ. eigenvalues --  -46.88869 -19.27274 -19.23983 -19.20826 -19.19151
 Alpha  occ. eigenvalues --  -19.19044 -19.17982 -14.41863 -14.41103 -14.40034
 Alpha  occ. eigenvalues --  -14.39409 -10.40792 -10.38453 -10.35810 -10.34013
 Alpha  occ. eigenvalues --  -10.32897 -10.31157 -10.31086 -10.30883 -10.30356
 Alpha  occ. eigenvalues --  -10.30313 -10.30047 -10.29839 -10.29776 -10.29443
 Alpha  occ. eigenvalues --  -10.28648 -10.28308 -10.28277 -10.28153 -10.28127
 Alpha  occ. eigenvalues --  -10.28026 -10.27845 -10.27775 -10.27751 -10.27657
 Alpha  occ. eigenvalues --  -10.27598 -10.27482 -10.27472 -10.26858 -10.26556
 Alpha  occ. eigenvalues --  -10.26480 -10.26477 -10.26456 -10.26380 -10.26124
 Alpha  occ. eigenvalues --  -10.26098 -10.26038 -10.25907 -10.25804 -10.25741
 Alpha  occ. eigenvalues --  -10.25691 -10.25537 -10.25525 -10.25442 -10.25136
 Alpha  occ. eigenvalues --  -10.24926 -10.24853 -10.24782 -10.24686 -10.24630
 Alpha  occ. eigenvalues --  -10.24474 -10.24438 -10.24432 -10.24399 -10.24366
 Alpha  occ. eigenvalues --  -10.24314  -3.17403  -1.92306  -1.91857  -1.91703
 Alpha  occ. eigenvalues --   -1.17971  -1.15552  -1.08616  -1.07927  -1.07770
 Alpha  occ. eigenvalues --   -1.07337  -1.04395  -1.03563  -1.03074  -1.02079
 Alpha  occ. eigenvalues --   -0.91714  -0.90741  -0.90071  -0.89318  -0.89089
 Alpha  occ. eigenvalues --   -0.88861  -0.88015  -0.87983  -0.87034  -0.86549
 Alpha  occ. eigenvalues --   -0.85502  -0.84987  -0.84403  -0.83163  -0.82954
 Alpha  occ. eigenvalues --   -0.82483  -0.81735  -0.81275  -0.80511  -0.80263
 Alpha  occ. eigenvalues --   -0.80041  -0.78673  -0.77306  -0.76968  -0.76259
 Alpha  occ. eigenvalues --   -0.75827  -0.75447  -0.74862  -0.74615  -0.74602
 Alpha  occ. eigenvalues --   -0.73343  -0.72317  -0.71406  -0.70255  -0.69659
 Alpha  occ. eigenvalues --   -0.68625  -0.67768  -0.67296  -0.66830  -0.66084
 Alpha  occ. eigenvalues --   -0.65267  -0.65131  -0.64729  -0.64496  -0.64140
 Alpha  occ. eigenvalues --   -0.64052  -0.63515  -0.62788  -0.61534  -0.60270
 Alpha  occ. eigenvalues --   -0.59832  -0.58883  -0.58740  -0.58051  -0.57768
 Alpha  occ. eigenvalues --   -0.56647  -0.56366  -0.56004  -0.55506  -0.55168
 Alpha  occ. eigenvalues --   -0.54964  -0.54728  -0.54721  -0.54557  -0.54340
 Alpha  occ. eigenvalues --   -0.53826  -0.53393  -0.53344  -0.53193  -0.52995
 Alpha  occ. eigenvalues --   -0.52620  -0.52330  -0.52240  -0.51923  -0.51666
 Alpha  occ. eigenvalues --   -0.51523  -0.51252  -0.51108  -0.50713  -0.50589
 Alpha  occ. eigenvalues --   -0.50339  -0.50256  -0.49770  -0.49561  -0.49444
 Alpha  occ. eigenvalues --   -0.49171  -0.49097  -0.48785  -0.48642  -0.48619
 Alpha  occ. eigenvalues --   -0.48404  -0.48313  -0.48162  -0.47992  -0.47810
 Alpha  occ. eigenvalues --   -0.47597  -0.47433  -0.46856  -0.46727  -0.46520
 Alpha  occ. eigenvalues --   -0.46385  -0.46126  -0.45812  -0.45517  -0.45438
 Alpha  occ. eigenvalues --   -0.45325  -0.45092  -0.44828  -0.44544  -0.44511
 Alpha  occ. eigenvalues --   -0.44303  -0.44246  -0.44060  -0.43817  -0.43788
 Alpha  occ. eigenvalues --   -0.43565  -0.43450  -0.43191  -0.43018  -0.42875
 Alpha  occ. eigenvalues --   -0.42772  -0.42540  -0.42318  -0.42093  -0.41916
 Alpha  occ. eigenvalues --   -0.41815  -0.41549  -0.41367  -0.41352  -0.41250
 Alpha  occ. eigenvalues --   -0.41134  -0.40773  -0.40636  -0.40381  -0.40311
 Alpha  occ. eigenvalues --   -0.40062  -0.39842  -0.39636  -0.38742  -0.38456
 Alpha  occ. eigenvalues --   -0.38451  -0.38387  -0.37915  -0.37705  -0.37626
 Alpha  occ. eigenvalues --   -0.37452  -0.37403  -0.36922  -0.36690  -0.36215
 Alpha  occ. eigenvalues --   -0.35726  -0.35462  -0.35187  -0.34332  -0.34262
 Alpha  occ. eigenvalues --   -0.34022  -0.33779  -0.33085  -0.31682  -0.30963
 Alpha  occ. eigenvalues --   -0.30444  -0.30030  -0.29845  -0.29456  -0.23882
 Alpha  occ. eigenvalues --   -0.20772
 Alpha virt. eigenvalues --   -0.07837  -0.01516   0.00141   0.02307   0.02575
 Alpha virt. eigenvalues --    0.03437   0.05449   0.05947   0.06356   0.06499
 Alpha virt. eigenvalues --    0.07509   0.08190   0.08464   0.09038   0.09301

 Mulliken charges:
               1
     1  Mg   0.815606
     2  C    0.022169
     3  C   -0.066262
     4  C   -0.053219
     5  C   -0.071760
     6  N   -0.237175
     7  C   -0.085030
     8  C   -0.049392
     9  C   -0.040970
    10  C   -0.000304
    11  C    0.068425
    12  C    0.083138
    13  C    0.071631
    14  C    0.180009
    15  O   -0.271717
    16  O   -0.295578
    17  N   -0.387472
    18  C    0.149126
    19  C   -0.152702
    20  C   -0.061989
    21  C    0.175592
    22  C    0.121741
    23  C    0.014071
    24  O   -0.245535
    25  C    0.064865
    26  N   -0.259858
    27  C   -0.000986
    28  C   -0.058984
    29  C    0.017717
    30  C   -0.048110
    31  C    0.050944
    32  C   -0.001227
    33  C    0.024441
    34  N   -0.353958
    35  C    0.171323
    36  C   -0.216345
    37  C    0.043680
    38  C    0.101808
    39  C    0.141625
    40  C   -0.013875
    41  O   -0.180167
    42  C   -0.015852
    43  C    0.220388
    44  O   -0.207194
    45  O   -0.333778
    46  C    0.189919
    47  C    0.261804
    48  C   -0.149891
    49  C   -0.173519
    50  C    0.075886
    51  C    0.063201
    52  C    0.056593
    53  C    0.014871
    54  C   -0.125051
    55  C    0.048185
    56  C    0.065512
    57  C    0.035294
    58  C    0.035786
    59  C   -0.114301
    60  C    0.033710
    61  C    0.089906
    62  C    0.049575
    63  C    0.001084
    64  C   -0.116620
    65  C    0.048126
    66  C    0.035119
    67  H   -0.040972
    68  H   -0.009337
    69  H   -0.032180
    70  H    0.039050
    71  H   -0.009297
    72  H    0.045008
    73  H    0.021113
    74  H    0.017577
    75  H    0.019669
    76  H    0.010055
    77  H    0.022295
    78  H    0.035991
    79  H    0.037927
    80  H    0.005946
    81  H    0.047793
    82  H    0.031822
    83  H    0.031656
    84  H    0.037741
    85  H    0.022568
    86  H    0.013682
    87  H    0.020164
    88  H    0.032208
    89  H    0.016592
    90  H    0.008607
    91  H    0.005967
    92  H    0.005596
    93  H    0.013596
    94  H    0.037272
    95  H    0.024612
    96  H    0.030102
    97  H    0.037903
    98  H    0.034309
    99  H    0.034799
   100  H    0.028713
   101  H    0.031062
   102  H    0.047256
   103  H    0.028041
   104  H    0.000969
   105  H    0.023997
   106  H    0.019122
   107  H    0.017259
   108  H    0.001151
   109  H   -0.005477
   110  H    0.000198
   111  H    0.011043
   112  H   -0.004588
   113  H    0.002617
   114  H   -0.009719
   115  H   -0.006973
   116  H    0.003603
   117  H    0.009733
   118  H   -0.009700
   119  H    0.002757
   120  H   -0.005962
   121  H   -0.005552
   122  H   -0.013118
   123  H   -0.010124
   124  H   -0.005154
   125  H    0.004870
   126  H   -0.000060
   127  H    0.004160
   128  H   -0.000723
   129  H   -0.027700
   130  H   -0.005939
   131  H   -0.003426
   132  H   -0.018311
   133  H   -0.010208
   134  H   -0.003747
   135  H    0.003167
   136  H   -0.003791
   137  H    0.006959
   138  H   -0.009036
   139  H    0.001302
   140  H    0.007445
 Sum of Mulliken charges =  -0.00000

 Dipole moment (field-independent basis, Debye):
    X=              4.1893    Y=              5.8765    Z=             -1.9530  Tot=              7.4765
 Quadrupole moment (field-independent basis, Debye-Ang):
   XX=           -373.5570   YY=           -426.8350   ZZ=           -406.4673
   XY=              1.3710   XZ=             15.6442   YZ=              0.3826

 Normal termination of Gaussian 16 at Wed May  4 00:47:03 2022.
