 Gaussian 16, Revision A.03,
 Gaussian 16:  ES64L-G16RevA.03 25-Dec-2016

 ---------------------------------
 #p PBE1PBE/Def2SVP td=(nstates=5)
 ---------------------------------

 ------------------------------------------------------
 step_1201_chromophore_19 TDDFT with PBE1PBE functional
 ------------------------------------------------------
 Symbolic Z-matrix:
 Charge =  0 Multiplicity = 1

                         Standard orientation:
 ---------------------------------------------------------------------
 Center     Atomic      Atomic             Coordinates (Angstroms)
 Number     Number       Type             X           Y           Z
 ---------------------------------------------------------------------
      1         12           0       -5.942152    0.382065   -0.232210
      2          6           0       -3.487907   -2.131346   -0.301874
      3          6           0       -3.335257    2.592596    0.259958
      4          6           0       -8.204117    2.720621    0.101395
      5          6           0       -8.437681   -2.066129   -0.505759
      6          7           0       -3.597915    0.269701   -0.004308
      7          6           0       -2.853669   -0.912422   -0.089710
      8          6           0       -1.321046   -0.581138    0.023701
      9          6           0       -1.366014    0.877631    0.638832
     10          6           0       -2.796048    1.316970    0.183847
     11          6           0       -1.139644    0.952962    2.232495
     12          6           0       -0.556576   -0.614812   -1.339327
     13          6           0        0.651480   -1.559249   -1.409535
     14          6           0        1.713796   -1.438531   -0.236387
     15          8           0        1.483292   -1.813445    0.937292
     16          8           0        2.902106   -0.983226   -0.696851
     17          7           0       -5.793194    2.381598    0.172468
     18          6           0       -4.603195    3.140913    0.198087
     19          6           0       -5.002341    4.582888    0.344713
     20          6           0       -6.408795    4.554576    0.532350
     21          6           0       -6.852175    3.147498    0.148493
     22          6           0       -4.000089    5.679015    0.625062
     23          6           0       -7.293503    5.766485    0.825283
     24          8           0       -8.533608    5.669306    1.069571
     25          6           0       -6.646132    7.127422    1.098935
     26          7           0       -8.112517    0.324873   -0.114672
     27          6           0       -8.762647    1.429137    0.064634
     28          6           0      -10.286228    1.223444    0.083064
     29          6           0      -10.387700   -0.411947   -0.155789
     30          6           0       -8.925851   -0.779743   -0.281430
     31          6           0      -10.890647    1.676283    1.497469
     32          6           0      -11.356879   -0.873087   -1.331290
     33          6           0      -10.816451   -0.836922   -2.750260
     34          7           0       -5.968532   -1.653133   -0.231480
     35          6           0       -7.094998   -2.475332   -0.450761
     36          6           0       -6.636052   -3.890284   -0.575122
     37          6           0       -5.226347   -3.792666   -0.513055
     38          6           0       -4.884150   -2.399206   -0.334102
     39          6           0       -7.526202   -5.115080   -0.810902
     40          6           0       -3.986720   -4.508214   -0.710193
     41          8           0       -3.861453   -5.716341   -0.881355
     42          6           0       -2.797157   -3.480214   -0.462372
     43          6           0       -2.107626   -4.005522    0.745623
     44          8           0       -2.516846   -3.948545    1.885948
     45          8           0       -0.919312   -4.577491    0.348380
     46          6           0       -0.037307   -4.911513    1.448587
     47          6           0        3.902905   -0.873578    0.347526
     48          6           0        5.265369   -0.555661   -0.346612
     49          6           0        6.476588   -0.342499    0.216149
     50          6           0        6.638368   -0.442068    1.727478
     51          6           0        7.715382   -0.255050   -0.721714
     52          6           0        8.512466    1.100641   -0.803775
     53          6           0        8.651126    1.558836   -2.261763
     54          6           0        9.958829    2.168516   -2.624781
     55          6           0        9.640817    3.077628   -3.843793
     56          6           0       11.145700    1.161821   -2.932748
     57          6           0       12.552400    1.721525   -2.598024
     58          6           0       13.552662    0.665483   -2.148099
     59          6           0       13.814252    0.654725   -0.625388
     60          6           0       15.172599   -0.051714   -0.238284
     61          6           0       12.637694    0.126935    0.196534
     62          6           0       12.346043    0.961244    1.438839
     63          6           0       12.356750    0.038961    2.668034
     64          6           0       11.002028   -0.698996    2.884463
     65          6           0       10.051779    0.278377    3.522288
     66          6           0       11.200033   -1.902060    3.834484
     67          1           0       -2.593810    3.393263    0.295810
     68          1           0       -8.992521    3.473657    0.165003
     69          1           0       -9.300110   -2.725528   -0.627790
     70          1           0       -0.919185   -1.230829    0.800705
     71          1           0       -0.629787    1.471253    0.098456
     72          1           0       -0.807639    0.092458    2.814628
     73          1           0       -2.158652    1.146770    2.568368
     74          1           0       -0.480166    1.791780    2.451270
     75          1           0       -0.330008    0.380533   -1.721387
     76          1           0       -1.325947   -1.088630   -1.949774
     77          1           0        1.171707   -1.457470   -2.362444
     78          1           0        0.201087   -2.551369   -1.393127
     79          1           0       -4.095402    6.534385   -0.043548
     80          1           0       -2.983038    5.326890    0.456858
     81          1           0       -4.045863    5.788136    1.708833
     82          1           0       -7.459282    7.824233    1.303311
     83          1           0       -6.015204    7.489679    0.287692
     84          1           0       -6.105898    6.941559    2.027223
     85          1           0      -10.671061    1.783588   -0.768064
     86          1           0      -10.734020   -0.911710    0.747991
     87          1           0      -11.673270    2.433831    1.449891
     88          1           0      -10.141517    2.195250    2.095673
     89          1           0      -11.259055    0.791843    2.016026
     90          1           0      -12.247538   -0.244926   -1.322819
     91          1           0      -11.710343   -1.851645   -1.007670
     92          1           0      -11.609271   -0.287038   -3.257860
     93          1           0      -10.868644   -1.820292   -3.215666
     94          1           0       -9.840862   -0.367271   -2.870508
     95          1           0       -8.198633   -5.176810    0.044485
     96          1           0       -6.875202   -5.983373   -0.705803
     97          1           0       -7.953531   -5.048750   -1.810985
     98          1           0       -2.230586   -3.586138   -1.387554
     99          1           0       -0.472584   -5.553490    2.214330
    100          1           0        0.145308   -3.962576    1.953482
    101          1           0        0.918281   -5.272823    1.068875
    102          1           0        4.001338   -1.711383    1.038668
    103          1           0        3.682772   -0.015427    0.983862
    104          1           0        5.202940   -0.549892   -1.435016
    105          1           0        7.003614    0.512096    2.107673
    106          1           0        7.445561   -1.155293    1.894117
    107          1           0        5.774724   -0.742576    2.321332
    108          1           0        7.450608   -0.713275   -1.674768
    109          1           0        8.348855   -1.030183   -0.292050
    110          1           0        9.533725    0.914418   -0.472446
    111          1           0        8.013907    1.843576   -0.180762
    112          1           0        7.876388    2.321063   -2.177789
    113          1           0        8.347278    0.837477   -3.021097
    114          1           0       10.233423    2.891076   -1.856918
    115          1           0        9.531853    4.099427   -3.478599
    116          1           0        8.623825    2.916397   -4.202022
    117          1           0       10.406802    3.090093   -4.618391
    118          1           0       11.112835    1.064744   -4.017457
    119          1           0       10.973190    0.144264   -2.581157
    120          1           0       12.512484    2.539592   -1.878181
    121          1           0       13.083043    2.141251   -3.452515
    122          1           0       14.490347    0.820017   -2.681861
    123          1           0       13.129745   -0.286585   -2.468106
    124          1           0       14.060390    1.694173   -0.410967
    125          1           0       15.471300   -0.651522   -1.097636
    126          1           0       15.110813   -0.675135    0.652894
    127          1           0       16.036592    0.557169    0.029424
    128          1           0       12.767582   -0.939090    0.383943
    129          1           0       11.673731    0.141309   -0.310107
    130          1           0       11.397690    1.498925    1.429486
    131          1           0       13.113800    1.710962    1.633077
    132          1           0       12.557307    0.679868    3.527380
    133          1           0       13.136942   -0.719574    2.726526
    134          1           0       10.641690   -1.063231    1.921837
    135          1           0        9.291568   -0.238210    4.108363
    136          1           0        9.448048    0.854136    2.820362
    137          1           0       10.535250    1.043379    4.130408
    138          1           0       12.202549   -2.320966    3.747070
    139          1           0       10.569712   -2.768713    3.635811
    140          1           0       11.084030   -1.749838    4.907431
 ---------------------------------------------------------------------

 SCF Done:  E(RPBE1PBE) =  -3005.36356745     A.U. after   15 cycles

 Excitation energies and oscillator strengths:

 Excited State   1:      Singlet-A      1.9044 eV  651.02 nm  f=0.3470  <S**2>=0.000
     245 -> 248       -0.17946
     246 -> 247        0.68950
 This state for optimization and/or second-order correction.
 Total Energy, E(TD-HF/TD-DFT) =  -3005.29358026
 Copying the excited state density for this state as the 1-particle RhoCI density.

 Excited State   2:      Singlet-A      2.3147 eV  535.65 nm  f=0.0852  <S**2>=0.000
     245 -> 247        0.63836
     246 -> 248        0.29288

 Excited State   3:      Singlet-A      3.0409 eV  407.72 nm  f=0.0001  <S**2>=0.000
     244 -> 247        0.66452
     244 -> 249       -0.15228
     244 -> 250        0.13473

 Excited State   4:      Singlet-A      3.0858 eV  401.78 nm  f=0.0057  <S**2>=0.000
     241 -> 247        0.64123
     241 -> 249        0.22390

 Excited State   5:      Singlet-A      3.3165 eV  373.84 nm  f=0.2356  <S**2>=0.000
     245 -> 247       -0.19005
     245 -> 249       -0.11218
     246 -> 248        0.51612
     246 -> 249       -0.39075

 The electronic state is 1-A.
 Alpha  occ. eigenvalues --  -46.92274 -19.27945 -19.24687 -19.21123 -19.19420
 Alpha  occ. eigenvalues --  -19.19037 -19.18472 -14.41243 -14.40718 -14.39583
 Alpha  occ. eigenvalues --  -14.39200 -10.37851 -10.35505 -10.32726 -10.31406
 Alpha  occ. eigenvalues --  -10.30305 -10.28510 -10.28466 -10.28324 -10.28303
 Alpha  occ. eigenvalues --  -10.27852 -10.27804 -10.27612 -10.27348 -10.27104
 Alpha  occ. eigenvalues --  -10.26375 -10.26293 -10.25996 -10.25832 -10.25710
 Alpha  occ. eigenvalues --  -10.25637 -10.25615 -10.25599 -10.25559 -10.25388
 Alpha  occ. eigenvalues --  -10.25220 -10.25210 -10.25152 -10.24279 -10.24219
 Alpha  occ. eigenvalues --  -10.24216 -10.24056 -10.23823 -10.23681 -10.23656
 Alpha  occ. eigenvalues --  -10.23632 -10.23505 -10.23496 -10.23446 -10.23438
 Alpha  occ. eigenvalues --  -10.23223 -10.23201 -10.23194 -10.23097 -10.22637
 Alpha  occ. eigenvalues --  -10.22452 -10.22396 -10.22362 -10.22331 -10.22216
 Alpha  occ. eigenvalues --  -10.22169 -10.22000 -10.21869 -10.21826 -10.21775
 Alpha  occ. eigenvalues --  -10.21765  -3.14389  -1.87233  -1.86762  -1.86612
 Alpha  occ. eigenvalues --   -1.12800  -1.10367  -1.03593  -1.02758  -1.02235
 Alpha  occ. eigenvalues --   -1.02221  -0.99019  -0.98111  -0.97744  -0.96866
 Alpha  occ. eigenvalues --   -0.86171  -0.84819  -0.84159  -0.83473  -0.83262
 Alpha  occ. eigenvalues --   -0.83028  -0.82266  -0.82108  -0.81228  -0.80885
 Alpha  occ. eigenvalues --   -0.80007  -0.79177  -0.78559  -0.77441  -0.77274
 Alpha  occ. eigenvalues --   -0.76711  -0.75869  -0.75413  -0.74783  -0.74542
 Alpha  occ. eigenvalues --   -0.74334  -0.72711  -0.71639  -0.71324  -0.70420
 Alpha  occ. eigenvalues --   -0.69903  -0.69816  -0.69001  -0.68975  -0.68741
 Alpha  occ. eigenvalues --   -0.67634  -0.66857  -0.65822  -0.64533  -0.64076
 Alpha  occ. eigenvalues --   -0.62834  -0.62224  -0.61558  -0.61221  -0.60306
 Alpha  occ. eigenvalues --   -0.59698  -0.59536  -0.59297  -0.59067  -0.58748
 Alpha  occ. eigenvalues --   -0.58147  -0.57670  -0.56962  -0.56179  -0.54693
 Alpha  occ. eigenvalues --   -0.54244  -0.53414  -0.53336  -0.52531  -0.52413
 Alpha  occ. eigenvalues --   -0.51021  -0.50994  -0.50570  -0.50144  -0.49670
 Alpha  occ. eigenvalues --   -0.49527  -0.49260  -0.49071  -0.48934  -0.48836
 Alpha  occ. eigenvalues --   -0.48059  -0.47942  -0.47783  -0.47686  -0.47406
 Alpha  occ. eigenvalues --   -0.47250  -0.46974  -0.46831  -0.46535  -0.46185
 Alpha  occ. eigenvalues --   -0.46147  -0.45719  -0.45633  -0.45275  -0.45077
 Alpha  occ. eigenvalues --   -0.44949  -0.44854  -0.44352  -0.44095  -0.44065
 Alpha  occ. eigenvalues --   -0.43757  -0.43678  -0.43410  -0.43204  -0.43140
 Alpha  occ. eigenvalues --   -0.42986  -0.42894  -0.42705  -0.42589  -0.42360
 Alpha  occ. eigenvalues --   -0.42311  -0.42151  -0.41520  -0.41479  -0.41138
 Alpha  occ. eigenvalues --   -0.41080  -0.40767  -0.40510  -0.40253  -0.40147
 Alpha  occ. eigenvalues --   -0.40032  -0.39732  -0.39624  -0.39368  -0.39173
 Alpha  occ. eigenvalues --   -0.39022  -0.38967  -0.38864  -0.38661  -0.38469
 Alpha  occ. eigenvalues --   -0.38273  -0.38261  -0.38021  -0.37779  -0.37633
 Alpha  occ. eigenvalues --   -0.37490  -0.37381  -0.37144  -0.37045  -0.36801
 Alpha  occ. eigenvalues --   -0.36635  -0.36388  -0.36161  -0.36098  -0.35974
 Alpha  occ. eigenvalues --   -0.35810  -0.35706  -0.35398  -0.35128  -0.35091
 Alpha  occ. eigenvalues --   -0.34993  -0.34838  -0.34400  -0.33502  -0.33335
 Alpha  occ. eigenvalues --   -0.33319  -0.33250  -0.32872  -0.32773  -0.32444
 Alpha  occ. eigenvalues --   -0.32425  -0.32288  -0.31807  -0.31711  -0.31249
 Alpha  occ. eigenvalues --   -0.30574  -0.30406  -0.30093  -0.29382  -0.29157
 Alpha  occ. eigenvalues --   -0.29102  -0.28724  -0.28581  -0.27062  -0.26020
 Alpha  occ. eigenvalues --   -0.25550  -0.25472  -0.25305  -0.24848  -0.20773
 Alpha  occ. eigenvalues --   -0.18435
 Alpha virt. eigenvalues --   -0.10480  -0.05028  -0.03980  -0.02142  -0.01118
 Alpha virt. eigenvalues --   -0.00160   0.01254   0.01523   0.01640   0.03439
 Alpha virt. eigenvalues --    0.03960   0.03990   0.05036   0.05270   0.05683

 Mulliken charges:
               1
     1  Mg   0.961970
     2  C   -0.006361
     3  C   -0.077390
     4  C   -0.040101
     5  C   -0.060629
     6  N   -0.331958
     7  C   -0.000335
     8  C   -0.122776
     9  C   -0.111397
    10  C    0.041236
    11  C    0.012214
    12  C    0.034410
    13  C   -0.009486
    14  C    0.244377
    15  O   -0.302905
    16  O   -0.328094
    17  N   -0.500028
    18  C    0.169536
    19  C   -0.179479
    20  C   -0.097790
    21  C    0.204503
    22  C    0.055345
    23  C    0.057247
    24  O   -0.281321
    25  C   -0.012259
    26  N   -0.368635
    27  C    0.037031
    28  C   -0.136601
    29  C   -0.051581
    30  C   -0.006335
    31  C   -0.004129
    32  C   -0.063266
    33  C   -0.049583
    34  N   -0.486083
    35  C    0.183411
    36  C   -0.221211
    37  C   -0.006362
    38  C    0.161095
    39  C    0.080693
    40  C    0.080288
    41  O   -0.222629
    42  C   -0.122468
    43  C    0.311512
    44  O   -0.242676
    45  O   -0.366369
    46  C    0.132290
    47  C    0.220929
    48  C   -0.154147
    49  C   -0.222794
    50  C    0.013101
    51  C    0.005832
    52  C   -0.024981
    53  C   -0.037703
    54  C   -0.214200
    55  C   -0.010290
    56  C    0.007636
    57  C   -0.020442
    58  C   -0.022507
    59  C   -0.202083
    60  C   -0.022451
    61  C    0.027823
    62  C   -0.013634
    63  C   -0.058196
    64  C   -0.215941
    65  C   -0.009566
    66  C   -0.022147
    67  H   -0.006965
    68  H    0.023771
    69  H    0.001453
    70  H    0.081064
    71  H    0.027305
    72  H    0.068784
    73  H    0.050025
    74  H    0.044594
    75  H    0.050650
    76  H    0.045494
    77  H    0.054296
    78  H    0.071773
    79  H    0.063885
    80  H    0.033178
    81  H    0.074727
    82  H    0.058516
    83  H    0.057609
    84  H    0.065050
    85  H    0.058244
    86  H    0.051123
    87  H    0.047441
    88  H    0.059755
    89  H    0.042987
    90  H    0.042375
    91  H    0.037122
    92  H    0.034159
    93  H    0.041521
    94  H    0.065975
    95  H    0.053436
    96  H    0.059791
    97  H    0.066185
    98  H    0.070972
    99  H    0.057308
   100  H    0.053138
   101  H    0.053497
   102  H    0.072246
   103  H    0.055837
   104  H    0.031174
   105  H    0.052351
   106  H    0.047409
   107  H    0.043013
   108  H    0.031077
   109  H    0.028375
   110  H    0.047295
   111  H    0.043021
   112  H    0.030886
   113  H    0.033835
   114  H    0.028343
   115  H    0.021765
   116  H    0.031040
   117  H    0.036466
   118  H    0.024765
   119  H    0.031945
   120  H    0.025158
   121  H    0.027081
   122  H    0.019553
   123  H    0.024033
   124  H    0.032987
   125  H    0.032100
   126  H    0.027319
   127  H    0.031072
   128  H    0.031003
   129  H    0.015235
   130  H    0.028085
   131  H    0.029328
   132  H    0.015193
   133  H    0.022296
   134  H    0.035217
   135  H    0.031119
   136  H    0.025736
   137  H    0.033649
   138  H    0.018105
   139  H    0.029157
   140  H    0.034340
 Sum of Mulliken charges =  -0.00000

 Dipole moment (field-independent basis, Debye):
    X=              3.9698    Y=              5.1534    Z=             -2.0117  Tot=              6.8091
 Quadrupole moment (field-independent basis, Debye-Ang):
   XX=           -364.8887   YY=           -425.0734   ZZ=           -403.7230
   XY=              6.4565   XZ=             16.3999   YZ=              0.4198

 Normal termination of Gaussian 16 at Wed May  4 01:12:35 2022.
