 Gaussian 16, Revision A.03,
 Gaussian 16:  ES64L-G16RevA.03 25-Dec-2016

 --------------------------------
 #p wB97XD/Def2SVP td=(nstates=5)
 --------------------------------

 -----------------------------------------------------
 step_1201_chromophore_19 TDDFT with wB97XD functional
 -----------------------------------------------------
 Symbolic Z-matrix:
 Charge =  0 Multiplicity = 1

                         Standard orientation:
 ---------------------------------------------------------------------
 Center     Atomic      Atomic             Coordinates (Angstroms)
 Number     Number       Type             X           Y           Z
 ---------------------------------------------------------------------
      1         12           0       -5.942152    0.382065   -0.232210
      2          6           0       -3.487907   -2.131346   -0.301874
      3          6           0       -3.335257    2.592596    0.259958
      4          6           0       -8.204117    2.720621    0.101395
      5          6           0       -8.437681   -2.066129   -0.505759
      6          7           0       -3.597915    0.269701   -0.004308
      7          6           0       -2.853669   -0.912422   -0.089710
      8          6           0       -1.321046   -0.581138    0.023701
      9          6           0       -1.366014    0.877631    0.638832
     10          6           0       -2.796048    1.316970    0.183847
     11          6           0       -1.139644    0.952962    2.232495
     12          6           0       -0.556576   -0.614812   -1.339327
     13          6           0        0.651480   -1.559249   -1.409535
     14          6           0        1.713796   -1.438531   -0.236387
     15          8           0        1.483292   -1.813445    0.937292
     16          8           0        2.902106   -0.983226   -0.696851
     17          7           0       -5.793194    2.381598    0.172468
     18          6           0       -4.603195    3.140913    0.198087
     19          6           0       -5.002341    4.582888    0.344713
     20          6           0       -6.408795    4.554576    0.532350
     21          6           0       -6.852175    3.147498    0.148493
     22          6           0       -4.000089    5.679015    0.625062
     23          6           0       -7.293503    5.766485    0.825283
     24          8           0       -8.533608    5.669306    1.069571
     25          6           0       -6.646132    7.127422    1.098935
     26          7           0       -8.112517    0.324873   -0.114672
     27          6           0       -8.762647    1.429137    0.064634
     28          6           0      -10.286228    1.223444    0.083064
     29          6           0      -10.387700   -0.411947   -0.155789
     30          6           0       -8.925851   -0.779743   -0.281430
     31          6           0      -10.890647    1.676283    1.497469
     32          6           0      -11.356879   -0.873087   -1.331290
     33          6           0      -10.816451   -0.836922   -2.750260
     34          7           0       -5.968532   -1.653133   -0.231480
     35          6           0       -7.094998   -2.475332   -0.450761
     36          6           0       -6.636052   -3.890284   -0.575122
     37          6           0       -5.226347   -3.792666   -0.513055
     38          6           0       -4.884150   -2.399206   -0.334102
     39          6           0       -7.526202   -5.115080   -0.810902
     40          6           0       -3.986720   -4.508214   -0.710193
     41          8           0       -3.861453   -5.716341   -0.881355
     42          6           0       -2.797157   -3.480214   -0.462372
     43          6           0       -2.107626   -4.005522    0.745623
     44          8           0       -2.516846   -3.948545    1.885948
     45          8           0       -0.919312   -4.577491    0.348380
     46          6           0       -0.037307   -4.911513    1.448587
     47          6           0        3.902905   -0.873578    0.347526
     48          6           0        5.265369   -0.555661   -0.346612
     49          6           0        6.476588   -0.342499    0.216149
     50          6           0        6.638368   -0.442068    1.727478
     51          6           0        7.715382   -0.255050   -0.721714
     52          6           0        8.512466    1.100641   -0.803775
     53          6           0        8.651126    1.558836   -2.261763
     54          6           0        9.958829    2.168516   -2.624781
     55          6           0        9.640817    3.077628   -3.843793
     56          6           0       11.145700    1.161821   -2.932748
     57          6           0       12.552400    1.721525   -2.598024
     58          6           0       13.552662    0.665483   -2.148099
     59          6           0       13.814252    0.654725   -0.625388
     60          6           0       15.172599   -0.051714   -0.238284
     61          6           0       12.637694    0.126935    0.196534
     62          6           0       12.346043    0.961244    1.438839
     63          6           0       12.356750    0.038961    2.668034
     64          6           0       11.002028   -0.698996    2.884463
     65          6           0       10.051779    0.278377    3.522288
     66          6           0       11.200033   -1.902060    3.834484
     67          1           0       -2.593810    3.393263    0.295810
     68          1           0       -8.992521    3.473657    0.165003
     69          1           0       -9.300110   -2.725528   -0.627790
     70          1           0       -0.919185   -1.230829    0.800705
     71          1           0       -0.629787    1.471253    0.098456
     72          1           0       -0.807639    0.092458    2.814628
     73          1           0       -2.158652    1.146770    2.568368
     74          1           0       -0.480166    1.791780    2.451270
     75          1           0       -0.330008    0.380533   -1.721387
     76          1           0       -1.325947   -1.088630   -1.949774
     77          1           0        1.171707   -1.457470   -2.362444
     78          1           0        0.201087   -2.551369   -1.393127
     79          1           0       -4.095402    6.534385   -0.043548
     80          1           0       -2.983038    5.326890    0.456858
     81          1           0       -4.045863    5.788136    1.708833
     82          1           0       -7.459282    7.824233    1.303311
     83          1           0       -6.015204    7.489679    0.287692
     84          1           0       -6.105898    6.941559    2.027223
     85          1           0      -10.671061    1.783588   -0.768064
     86          1           0      -10.734020   -0.911710    0.747991
     87          1           0      -11.673270    2.433831    1.449891
     88          1           0      -10.141517    2.195250    2.095673
     89          1           0      -11.259055    0.791843    2.016026
     90          1           0      -12.247538   -0.244926   -1.322819
     91          1           0      -11.710343   -1.851645   -1.007670
     92          1           0      -11.609271   -0.287038   -3.257860
     93          1           0      -10.868644   -1.820292   -3.215666
     94          1           0       -9.840862   -0.367271   -2.870508
     95          1           0       -8.198633   -5.176810    0.044485
     96          1           0       -6.875202   -5.983373   -0.705803
     97          1           0       -7.953531   -5.048750   -1.810985
     98          1           0       -2.230586   -3.586138   -1.387554
     99          1           0       -0.472584   -5.553490    2.214330
    100          1           0        0.145308   -3.962576    1.953482
    101          1           0        0.918281   -5.272823    1.068875
    102          1           0        4.001338   -1.711383    1.038668
    103          1           0        3.682772   -0.015427    0.983862
    104          1           0        5.202940   -0.549892   -1.435016
    105          1           0        7.003614    0.512096    2.107673
    106          1           0        7.445561   -1.155293    1.894117
    107          1           0        5.774724   -0.742576    2.321332
    108          1           0        7.450608   -0.713275   -1.674768
    109          1           0        8.348855   -1.030183   -0.292050
    110          1           0        9.533725    0.914418   -0.472446
    111          1           0        8.013907    1.843576   -0.180762
    112          1           0        7.876388    2.321063   -2.177789
    113          1           0        8.347278    0.837477   -3.021097
    114          1           0       10.233423    2.891076   -1.856918
    115          1           0        9.531853    4.099427   -3.478599
    116          1           0        8.623825    2.916397   -4.202022
    117          1           0       10.406802    3.090093   -4.618391
    118          1           0       11.112835    1.064744   -4.017457
    119          1           0       10.973190    0.144264   -2.581157
    120          1           0       12.512484    2.539592   -1.878181
    121          1           0       13.083043    2.141251   -3.452515
    122          1           0       14.490347    0.820017   -2.681861
    123          1           0       13.129745   -0.286585   -2.468106
    124          1           0       14.060390    1.694173   -0.410967
    125          1           0       15.471300   -0.651522   -1.097636
    126          1           0       15.110813   -0.675135    0.652894
    127          1           0       16.036592    0.557169    0.029424
    128          1           0       12.767582   -0.939090    0.383943
    129          1           0       11.673731    0.141309   -0.310107
    130          1           0       11.397690    1.498925    1.429486
    131          1           0       13.113800    1.710962    1.633077
    132          1           0       12.557307    0.679868    3.527380
    133          1           0       13.136942   -0.719574    2.726526
    134          1           0       10.641690   -1.063231    1.921837
    135          1           0        9.291568   -0.238210    4.108363
    136          1           0        9.448048    0.854136    2.820362
    137          1           0       10.535250    1.043379    4.130408
    138          1           0       12.202549   -2.320966    3.747070
    139          1           0       10.569712   -2.768713    3.635811
    140          1           0       11.084030   -1.749838    4.907431
 ---------------------------------------------------------------------

 SCF Done:  E(RwB97XD) =  -3007.87837900     A.U. after   18 cycles

 Excitation energies and oscillator strengths:

 Excited State   1:      Singlet-A      1.7632 eV  703.19 nm  f=0.3518  <S**2>=0.000
     245 -> 248       -0.19041
     246 -> 247        0.68086
     245 <- 248       -0.11319
 This state for optimization and/or second-order correction.
 Total Energy, E(TD-HF/TD-DFT) =  -3007.81358410
 Copying the excited state density for this state as the 1-particle RhoCI density.

 Excited State   2:      Singlet-A      2.2833 eV  542.99 nm  f=0.0732  <S**2>=0.000
     245 -> 247        0.61842
     246 -> 248        0.33148

 Excited State   3:      Singlet-A      3.4782 eV  356.46 nm  f=0.0768  <S**2>=0.000
     239 -> 247        0.12213
     239 -> 249        0.12754
     240 -> 247        0.47181
     240 -> 249        0.38292
     240 -> 250        0.15955
     246 -> 248       -0.17634

 Excited State   4:      Singlet-A      3.5416 eV  350.08 nm  f=0.6829  <S**2>=0.000
     240 -> 247        0.16146
     240 -> 249        0.11531
     241 -> 247       -0.21650
     245 -> 247       -0.28725
     246 -> 248        0.55940
     245 <- 247        0.10300

 Excited State   5:      Singlet-A      3.6360 eV  340.99 nm  f=0.0117  <S**2>=0.000
     243 -> 247        0.37385
     243 -> 249       -0.21570
     243 -> 250        0.26269
     244 -> 247       -0.36837
     244 -> 249        0.19023
     244 -> 250       -0.21735

 The electronic state is 1-A.
 Alpha  occ. eigenvalues --  -46.95204 -19.32507 -19.29184 -19.25764 -19.24164
 Alpha  occ. eigenvalues --  -19.24055 -19.22969 -14.46503 -14.45637 -14.44648
 Alpha  occ. eigenvalues --  -14.43957 -10.44614 -10.42273 -10.39870 -10.37983
 Alpha  occ. eigenvalues --  -10.36800 -10.35333 -10.35207 -10.34977 -10.34378
 Alpha  occ. eigenvalues --  -10.34346 -10.34302 -10.33717 -10.33561 -10.33395
 Alpha  occ. eigenvalues --  -10.32744 -10.32513 -10.32195 -10.32186 -10.32066
 Alpha  occ. eigenvalues --  -10.32047 -10.31882 -10.31881 -10.31868 -10.31681
 Alpha  occ. eigenvalues --  -10.31565 -10.31512 -10.31502 -10.30945 -10.30488
 Alpha  occ. eigenvalues --  -10.30439 -10.30382 -10.30336 -10.30293 -10.30056
 Alpha  occ. eigenvalues --  -10.30003 -10.29981 -10.29840 -10.29792 -10.29735
 Alpha  occ. eigenvalues --  -10.29565 -10.29514 -10.29480 -10.29352 -10.28917
 Alpha  occ. eigenvalues --  -10.28836 -10.28761 -10.28712 -10.28622 -10.28543
 Alpha  occ. eigenvalues --  -10.28367 -10.28303 -10.28291 -10.28259 -10.28231
 Alpha  occ. eigenvalues --  -10.28204  -3.21180  -1.94773  -1.94301  -1.94148
 Alpha  occ. eigenvalues --   -1.20170  -1.17690  -1.10791  -1.10102  -1.10050
 Alpha  occ. eigenvalues --   -1.09507  -1.06407  -1.05600  -1.05102  -1.04076
 Alpha  occ. eigenvalues --   -0.93653  -0.92503  -0.91842  -0.91168  -0.91033
 Alpha  occ. eigenvalues --   -0.90696  -0.89887  -0.89781  -0.89014  -0.88438
 Alpha  occ. eigenvalues --   -0.87397  -0.86840  -0.86240  -0.85054  -0.84819
 Alpha  occ. eigenvalues --   -0.84378  -0.83682  -0.83157  -0.82386  -0.82171
 Alpha  occ. eigenvalues --   -0.81977  -0.80691  -0.79191  -0.78869  -0.78100
 Alpha  occ. eigenvalues --   -0.77611  -0.77377  -0.76682  -0.76522  -0.76430
 Alpha  occ. eigenvalues --   -0.75260  -0.74282  -0.73377  -0.72188  -0.71547
 Alpha  occ. eigenvalues --   -0.70487  -0.69769  -0.69173  -0.68854  -0.67944
 Alpha  occ. eigenvalues --   -0.67253  -0.67082  -0.66690  -0.66446  -0.66135
 Alpha  occ. eigenvalues --   -0.65847  -0.65341  -0.64613  -0.63502  -0.62336
 Alpha  occ. eigenvalues --   -0.61761  -0.60827  -0.60725  -0.59965  -0.59742
 Alpha  occ. eigenvalues --   -0.58544  -0.58366  -0.57985  -0.57484  -0.57096
 Alpha  occ. eigenvalues --   -0.56865  -0.56691  -0.56567  -0.56431  -0.56213
 Alpha  occ. eigenvalues --   -0.55804  -0.55323  -0.55204  -0.55109  -0.54856
 Alpha  occ. eigenvalues --   -0.54541  -0.54238  -0.54147  -0.53847  -0.53545
 Alpha  occ. eigenvalues --   -0.53464  -0.53185  -0.53003  -0.52715  -0.52474
 Alpha  occ. eigenvalues --   -0.52212  -0.52153  -0.51678  -0.51449  -0.51360
 Alpha  occ. eigenvalues --   -0.51067  -0.50989  -0.50716  -0.50623  -0.50500
 Alpha  occ. eigenvalues --   -0.50324  -0.50227  -0.50111  -0.49968  -0.49669
 Alpha  occ. eigenvalues --   -0.49545  -0.49363  -0.48745  -0.48636  -0.48394
 Alpha  occ. eigenvalues --   -0.48313  -0.48028  -0.47736  -0.47429  -0.47279
 Alpha  occ. eigenvalues --   -0.47243  -0.46940  -0.46704  -0.46451  -0.46377
 Alpha  occ. eigenvalues --   -0.46168  -0.46153  -0.45982  -0.45723  -0.45671
 Alpha  occ. eigenvalues --   -0.45455  -0.45380  -0.45127  -0.44994  -0.44784
 Alpha  occ. eigenvalues --   -0.44636  -0.44456  -0.44247  -0.43993  -0.43795
 Alpha  occ. eigenvalues --   -0.43778  -0.43495  -0.43373  -0.43224  -0.43198
 Alpha  occ. eigenvalues --   -0.42966  -0.42656  -0.42488  -0.42223  -0.42181
 Alpha  occ. eigenvalues --   -0.41948  -0.41737  -0.41481  -0.40573  -0.40350
 Alpha  occ. eigenvalues --   -0.40328  -0.40285  -0.39901  -0.39607  -0.39451
 Alpha  occ. eigenvalues --   -0.39440  -0.39303  -0.38759  -0.38707  -0.38156
 Alpha  occ. eigenvalues --   -0.37565  -0.37431  -0.37038  -0.36245  -0.36091
 Alpha  occ. eigenvalues --   -0.35988  -0.35719  -0.35297  -0.33887  -0.32984
 Alpha  occ. eigenvalues --   -0.32691  -0.32061  -0.31816  -0.31512  -0.25833
 Alpha  occ. eigenvalues --   -0.22608
 Alpha virt. eigenvalues --   -0.06160   0.00400   0.02161   0.04439   0.05592
 Alpha virt. eigenvalues --    0.05838   0.07912   0.08272   0.08521   0.09455
 Alpha virt. eigenvalues --    0.10554   0.10682   0.11902   0.12082   0.12430

 Mulliken charges:
               1
     1  Mg   0.952889
     2  C    0.001530
     3  C   -0.084280
     4  C   -0.065822
     5  C   -0.077651
     6  N   -0.298621
     7  C   -0.040081
     8  C   -0.092530
     9  C   -0.086532
    10  C    0.025116
    11  C    0.021732
    12  C    0.044132
    13  C    0.013903
    14  C    0.231674
    15  O   -0.299897
    16  O   -0.327174
    17  N   -0.471799
    18  C    0.166353
    19  C   -0.167990
    20  C   -0.094387
    21  C    0.199668
    22  C    0.069432
    23  C    0.053845
    24  O   -0.273363
    25  C    0.003159
    26  N   -0.333426
    27  C    0.028923
    28  C   -0.116004
    29  C   -0.027577
    30  C   -0.024150
    31  C    0.006790
    32  C   -0.048229
    33  C   -0.033236
    34  N   -0.445857
    35  C    0.175243
    36  C   -0.224003
    37  C   -0.001833
    38  C    0.136715
    39  C    0.093594
    40  C    0.061229
    41  O   -0.215545
    42  C   -0.083483
    43  C    0.286355
    44  O   -0.236752
    45  O   -0.364492
    46  C    0.147740
    47  C    0.233640
    48  C   -0.163417
    49  C   -0.208958
    50  C    0.028839
    51  C    0.024478
    52  C    0.007883
    53  C   -0.023702
    54  C   -0.181970
    55  C    0.000929
    56  C    0.020913
    57  C   -0.006966
    58  C   -0.004020
    59  C   -0.171271
    60  C   -0.012202
    61  C    0.052259
    62  C    0.003320
    63  C   -0.035325
    64  C   -0.183384
    65  C    0.002009
    66  C   -0.011789
    67  H   -0.015801
    68  H    0.017745
    69  H   -0.005326
    70  H    0.061281
    71  H    0.017421
    72  H    0.067159
    73  H    0.041921
    74  H    0.039667
    75  H    0.043468
    76  H    0.035170
    77  H    0.050610
    78  H    0.060894
    79  H    0.060797
    80  H    0.030397
    81  H    0.070457
    82  H    0.058583
    83  H    0.052489
    84  H    0.058788
    85  H    0.049513
    86  H    0.040201
    87  H    0.042286
    88  H    0.052619
    89  H    0.037883
    90  H    0.033551
    91  H    0.030150
    92  H    0.027856
    93  H    0.036239
    94  H    0.057684
    95  H    0.046701
    96  H    0.054799
    97  H    0.060198
    98  H    0.064307
    99  H    0.053831
   100  H    0.046405
   101  H    0.050829
   102  H    0.067154
   103  H    0.049776
   104  H    0.027757
   105  H    0.044519
   106  H    0.039534
   107  H    0.039164
   108  H    0.023289
   109  H    0.019132
   110  H    0.021254
   111  H    0.035755
   112  H    0.020828
   113  H    0.024733
   114  H    0.015273
   115  H    0.015856
   116  H    0.024294
   117  H    0.031084
   118  H    0.015489
   119  H    0.023255
   120  H    0.014535
   121  H    0.020377
   122  H    0.012660
   123  H    0.012996
   124  H    0.019052
   125  H    0.025806
   126  H    0.020581
   127  H    0.026416
   128  H    0.021478
   129  H   -0.009019
   130  H    0.017769
   131  H    0.021221
   132  H    0.005458
   133  H    0.010360
   134  H    0.022893
   135  H    0.024986
   136  H    0.015101
   137  H    0.027886
   138  H    0.011521
   139  H    0.023904
   140  H    0.028525
 Sum of Mulliken charges =  -0.00000

 Dipole moment (field-independent basis, Debye):
    X=              4.2574    Y=              6.1421    Z=             -1.9179  Tot=              7.7156
 Quadrupole moment (field-independent basis, Debye-Ang):
   XX=           -368.5147   YY=           -422.4040   ZZ=           -403.3137
   XY=              0.3439   XZ=             15.7175   YZ=              0.6182

 Normal termination of Gaussian 16 at Wed May  4 01:42:17 2022.
