 Gaussian 16, Revision A.03,
 Gaussian 16:  ES64L-G16RevA.03 25-Dec-2016

 --------------------
 #p ZINDO=(nstates=5)
 --------------------

 ------------------------------
 step_1201_chromophore_19 ZINDO
 ------------------------------
 Symbolic Z-matrix:
 Charge =  0 Multiplicity = 1

                         Standard orientation:
 ---------------------------------------------------------------------
 Center     Atomic      Atomic             Coordinates (Angstroms)
 Number     Number       Type             X           Y           Z
 ---------------------------------------------------------------------
      1         12           0       -5.942152    0.382065   -0.232210
      2          6           0       -3.487907   -2.131346   -0.301874
      3          6           0       -3.335257    2.592596    0.259958
      4          6           0       -8.204117    2.720621    0.101395
      5          6           0       -8.437681   -2.066129   -0.505759
      6          7           0       -3.597915    0.269701   -0.004308
      7          6           0       -2.853669   -0.912422   -0.089710
      8          6           0       -1.321046   -0.581138    0.023701
      9          6           0       -1.366014    0.877631    0.638832
     10          6           0       -2.796048    1.316970    0.183847
     11          6           0       -1.139644    0.952962    2.232495
     12          6           0       -0.556576   -0.614812   -1.339327
     13          6           0        0.651480   -1.559249   -1.409535
     14          6           0        1.713796   -1.438531   -0.236387
     15          8           0        1.483292   -1.813445    0.937292
     16          8           0        2.902106   -0.983226   -0.696851
     17          7           0       -5.793194    2.381598    0.172468
     18          6           0       -4.603195    3.140913    0.198087
     19          6           0       -5.002341    4.582888    0.344713
     20          6           0       -6.408795    4.554576    0.532350
     21          6           0       -6.852175    3.147498    0.148493
     22          6           0       -4.000089    5.679015    0.625062
     23          6           0       -7.293503    5.766485    0.825283
     24          8           0       -8.533608    5.669306    1.069571
     25          6           0       -6.646132    7.127422    1.098935
     26          7           0       -8.112517    0.324873   -0.114672
     27          6           0       -8.762647    1.429137    0.064634
     28          6           0      -10.286228    1.223444    0.083064
     29          6           0      -10.387700   -0.411947   -0.155789
     30          6           0       -8.925851   -0.779743   -0.281430
     31          6           0      -10.890647    1.676283    1.497469
     32          6           0      -11.356879   -0.873087   -1.331290
     33          6           0      -10.816451   -0.836922   -2.750260
     34          7           0       -5.968532   -1.653133   -0.231480
     35          6           0       -7.094998   -2.475332   -0.450761
     36          6           0       -6.636052   -3.890284   -0.575122
     37          6           0       -5.226347   -3.792666   -0.513055
     38          6           0       -4.884150   -2.399206   -0.334102
     39          6           0       -7.526202   -5.115080   -0.810902
     40          6           0       -3.986720   -4.508214   -0.710193
     41          8           0       -3.861453   -5.716341   -0.881355
     42          6           0       -2.797157   -3.480214   -0.462372
     43          6           0       -2.107626   -4.005522    0.745623
     44          8           0       -2.516846   -3.948545    1.885948
     45          8           0       -0.919312   -4.577491    0.348380
     46          6           0       -0.037307   -4.911513    1.448587
     47          6           0        3.902905   -0.873578    0.347526
     48          6           0        5.265369   -0.555661   -0.346612
     49          6           0        6.476588   -0.342499    0.216149
     50          6           0        6.638368   -0.442068    1.727478
     51          6           0        7.715382   -0.255050   -0.721714
     52          6           0        8.512466    1.100641   -0.803775
     53          6           0        8.651126    1.558836   -2.261763
     54          6           0        9.958829    2.168516   -2.624781
     55          6           0        9.640817    3.077628   -3.843793
     56          6           0       11.145700    1.161821   -2.932748
     57          6           0       12.552400    1.721525   -2.598024
     58          6           0       13.552662    0.665483   -2.148099
     59          6           0       13.814252    0.654725   -0.625388
     60          6           0       15.172599   -0.051714   -0.238284
     61          6           0       12.637694    0.126935    0.196534
     62          6           0       12.346043    0.961244    1.438839
     63          6           0       12.356750    0.038961    2.668034
     64          6           0       11.002028   -0.698996    2.884463
     65          6           0       10.051779    0.278377    3.522288
     66          6           0       11.200033   -1.902060    3.834484
     67          1           0       -2.593810    3.393263    0.295810
     68          1           0       -8.992521    3.473657    0.165003
     69          1           0       -9.300110   -2.725528   -0.627790
     70          1           0       -0.919185   -1.230829    0.800705
     71          1           0       -0.629787    1.471253    0.098456
     72          1           0       -0.807639    0.092458    2.814628
     73          1           0       -2.158652    1.146770    2.568368
     74          1           0       -0.480166    1.791780    2.451270
     75          1           0       -0.330008    0.380533   -1.721387
     76          1           0       -1.325947   -1.088630   -1.949774
     77          1           0        1.171707   -1.457470   -2.362444
     78          1           0        0.201087   -2.551369   -1.393127
     79          1           0       -4.095402    6.534385   -0.043548
     80          1           0       -2.983038    5.326890    0.456858
     81          1           0       -4.045863    5.788136    1.708833
     82          1           0       -7.459282    7.824233    1.303311
     83          1           0       -6.015204    7.489679    0.287692
     84          1           0       -6.105898    6.941559    2.027223
     85          1           0      -10.671061    1.783588   -0.768064
     86          1           0      -10.734020   -0.911710    0.747991
     87          1           0      -11.673270    2.433831    1.449891
     88          1           0      -10.141517    2.195250    2.095673
     89          1           0      -11.259055    0.791843    2.016026
     90          1           0      -12.247538   -0.244926   -1.322819
     91          1           0      -11.710343   -1.851645   -1.007670
     92          1           0      -11.609271   -0.287038   -3.257860
     93          1           0      -10.868644   -1.820292   -3.215666
     94          1           0       -9.840862   -0.367271   -2.870508
     95          1           0       -8.198633   -5.176810    0.044485
     96          1           0       -6.875202   -5.983373   -0.705803
     97          1           0       -7.953531   -5.048750   -1.810985
     98          1           0       -2.230586   -3.586138   -1.387554
     99          1           0       -0.472584   -5.553490    2.214330
    100          1           0        0.145308   -3.962576    1.953482
    101          1           0        0.918281   -5.272823    1.068875
    102          1           0        4.001338   -1.711383    1.038668
    103          1           0        3.682772   -0.015427    0.983862
    104          1           0        5.202940   -0.549892   -1.435016
    105          1           0        7.003614    0.512096    2.107673
    106          1           0        7.445561   -1.155293    1.894117
    107          1           0        5.774724   -0.742576    2.321332
    108          1           0        7.450608   -0.713275   -1.674768
    109          1           0        8.348855   -1.030183   -0.292050
    110          1           0        9.533725    0.914418   -0.472446
    111          1           0        8.013907    1.843576   -0.180762
    112          1           0        7.876388    2.321063   -2.177789
    113          1           0        8.347278    0.837477   -3.021097
    114          1           0       10.233423    2.891076   -1.856918
    115          1           0        9.531853    4.099427   -3.478599
    116          1           0        8.623825    2.916397   -4.202022
    117          1           0       10.406802    3.090093   -4.618391
    118          1           0       11.112835    1.064744   -4.017457
    119          1           0       10.973190    0.144264   -2.581157
    120          1           0       12.512484    2.539592   -1.878181
    121          1           0       13.083043    2.141251   -3.452515
    122          1           0       14.490347    0.820017   -2.681861
    123          1           0       13.129745   -0.286585   -2.468106
    124          1           0       14.060390    1.694173   -0.410967
    125          1           0       15.471300   -0.651522   -1.097636
    126          1           0       15.110813   -0.675135    0.652894
    127          1           0       16.036592    0.557169    0.029424
    128          1           0       12.767582   -0.939090    0.383943
    129          1           0       11.673731    0.141309   -0.310107
    130          1           0       11.397690    1.498925    1.429486
    131          1           0       13.113800    1.710962    1.633077
    132          1           0       12.557307    0.679868    3.527380
    133          1           0       13.136942   -0.719574    2.726526
    134          1           0       10.641690   -1.063231    1.921837
    135          1           0        9.291568   -0.238210    4.108363
    136          1           0        9.448048    0.854136    2.820362
    137          1           0       10.535250    1.043379    4.130408
    138          1           0       12.202549   -2.320966    3.747070
    139          1           0       10.569712   -2.768713    3.635811
    140          1           0       11.084030   -1.749838    4.907431
 ---------------------------------------------------------------------

 SCF Done:  E(RZINDO/S) =  -474.053756114     A.U. after   19 cycles

 Excitation energies and oscillator strengths:

 Excited State   1:      Singlet-A      1.3347 eV  928.96 nm  f=0.5393  <S**2>=0.000
     175 ->178        -0.17137
     176 ->177         0.66965
 This state for optimization and/or second-order correction.
 Total Energy, E(CIS/TDA) =  -474.004708496
 Copying the excited state density for this state as the 1-particle RhoCI density.

 Excited State   2:      Singlet-A      1.9724 eV  628.60 nm  f=0.0087  <S**2>=0.000
     175 ->177         0.50830
     176 ->178         0.46111

 Excited State   3:      Singlet-A      2.8880 eV  429.31 nm  f=0.0344  <S**2>=0.000
     167 ->177         0.18722
     167 ->179        -0.29096
     167 ->181         0.11495
     167 ->186        -0.11772
     168 ->177         0.25824
     168 ->179        -0.36651
     168 ->181         0.14515
     168 ->186        -0.14798
     170 ->177        -0.10856
     170 ->179         0.11402

 Excited State   4:      Singlet-A      2.9469 eV  420.73 nm  f=0.0967  <S**2>=0.000
     175 ->177        -0.12175
     176 ->178         0.21661
     176 ->179         0.51668
     176 ->181         0.33003

 Excited State   5:      Singlet-A      2.9989 eV  413.44 nm  f=0.2928  <S**2>=0.000
     171 ->177         0.25131
     171 ->178         0.12522
     171 ->179         0.18908
     171 ->181         0.38176
     171 ->186         0.14091
     171 ->188         0.10870
     171 ->189         0.12415
     175 ->177        -0.21588
     176 ->178         0.22531
     176 ->179        -0.14344

 The electronic state is 1-A.
 Alpha  occ. eigenvalues --   -1.81752  -1.80708  -1.78999  -1.73264  -1.72268
 Alpha  occ. eigenvalues --   -1.69426  -1.66726  -1.61611  -1.57124  -1.56187
 Alpha  occ. eigenvalues --   -1.55979  -1.51042  -1.48287  -1.47270  -1.46049
 Alpha  occ. eigenvalues --   -1.42478  -1.41956  -1.40581  -1.40031  -1.37121
 Alpha  occ. eigenvalues --   -1.33805  -1.33351  -1.32442  -1.31245  -1.28993
 Alpha  occ. eigenvalues --   -1.28185  -1.24095  -1.21708  -1.19913  -1.17187
 Alpha  occ. eigenvalues --   -1.16846  -1.16200  -1.14757  -1.14128  -1.12505
 Alpha  occ. eigenvalues --   -1.12240  -1.12022  -1.11192  -1.04946  -1.02936
 Alpha  occ. eigenvalues --   -1.02304  -1.01239  -0.98637  -0.97897  -0.97315
 Alpha  occ. eigenvalues --   -0.96500  -0.94644  -0.93468  -0.93054  -0.92719
 Alpha  occ. eigenvalues --   -0.90490  -0.89728  -0.89048  -0.87748  -0.87337
 Alpha  occ. eigenvalues --   -0.86082  -0.85013  -0.83194  -0.81460  -0.79786
 Alpha  occ. eigenvalues --   -0.79655  -0.78437  -0.78210  -0.76082  -0.75780
 Alpha  occ. eigenvalues --   -0.75442  -0.75145  -0.74473  -0.73919  -0.73323
 Alpha  occ. eigenvalues --   -0.73137  -0.71625  -0.71551  -0.71452  -0.71170
 Alpha  occ. eigenvalues --   -0.69829  -0.69425  -0.69015  -0.68874  -0.68408
 Alpha  occ. eigenvalues --   -0.67829  -0.67543  -0.66903  -0.66229  -0.65531
 Alpha  occ. eigenvalues --   -0.65166  -0.64651  -0.63989  -0.63677  -0.63359
 Alpha  occ. eigenvalues --   -0.63119  -0.63057  -0.63008  -0.62413  -0.61686
 Alpha  occ. eigenvalues --   -0.61563  -0.61078  -0.60805  -0.60261  -0.59898
 Alpha  occ. eigenvalues --   -0.59809  -0.59283  -0.58819  -0.58249  -0.58027
 Alpha  occ. eigenvalues --   -0.57814  -0.57785  -0.57340  -0.57057  -0.56506
 Alpha  occ. eigenvalues --   -0.56275  -0.55076  -0.54954  -0.54521  -0.54320
 Alpha  occ. eigenvalues --   -0.54105  -0.53690  -0.53457  -0.53182  -0.52909
 Alpha  occ. eigenvalues --   -0.52527  -0.52235  -0.52044  -0.51819  -0.51386
 Alpha  occ. eigenvalues --   -0.51148  -0.50516  -0.50182  -0.50131  -0.49819
 Alpha  occ. eigenvalues --   -0.49784  -0.49467  -0.49423  -0.49117  -0.48934
 Alpha  occ. eigenvalues --   -0.48604  -0.48592  -0.48102  -0.48031  -0.47858
 Alpha  occ. eigenvalues --   -0.47273  -0.47135  -0.47016  -0.46949  -0.46895
 Alpha  occ. eigenvalues --   -0.46290  -0.45894  -0.45404  -0.45258  -0.45135
 Alpha  occ. eigenvalues --   -0.44974  -0.44859  -0.44689  -0.44370  -0.44039
 Alpha  occ. eigenvalues --   -0.43734  -0.43362  -0.42705  -0.42448  -0.42054
 Alpha  occ. eigenvalues --   -0.41613  -0.41473  -0.40779  -0.39094  -0.38880
 Alpha  occ. eigenvalues --   -0.37626  -0.36782  -0.36175  -0.34790  -0.33943
 Alpha  occ. eigenvalues --   -0.33484  -0.32567  -0.32258  -0.31589  -0.26633
 Alpha  occ. eigenvalues --   -0.21318
 Alpha virt. eigenvalues --   -0.07673  -0.01764  -0.00812   0.00875   0.01165
 Alpha virt. eigenvalues --    0.02351   0.02974   0.04008   0.04566   0.05190
 Alpha virt. eigenvalues --    0.05880   0.06762   0.07039   0.07610   0.08227

 Mulliken charges:
               1
     1  Mg   0.430189
     2  C   -0.021903
     3  C   -0.068356
     4  C   -0.101219
     5  C   -0.059796
     6  N   -0.287244
     7  C    0.078257
     8  C    0.000007
     9  C    0.003193
    10  C    0.164500
    11  C   -0.052102
    12  C   -0.018229
    13  C    0.005815
    14  C    0.460464
    15  O   -0.528971
    16  O   -0.243918
    17  N   -0.315723
    18  C    0.116530
    19  C    0.024552
    20  C   -0.037843
    21  C    0.168562
    22  C   -0.041921
    23  C    0.317790
    24  O   -0.530071
    25  C   -0.029476
    26  N   -0.266640
    27  C    0.184483
    28  C   -0.007328
    29  C   -0.006468
    30  C    0.077333
    31  C   -0.053503
    32  C   -0.027324
    33  C   -0.054478
    34  N   -0.294151
    35  C    0.054495
    36  C    0.005826
    37  C   -0.065521
    38  C    0.103661
    39  C   -0.039766
    40  C    0.326150
    41  O   -0.534177
    42  C    0.052508
    43  C    0.500672
    44  O   -0.515634
    45  O   -0.270402
    46  C    0.073052
    47  C    0.103991
    48  C   -0.098753
    49  C   -0.017005
    50  C   -0.042160
    51  C   -0.028092
    52  C   -0.032716
    53  C   -0.030401
    54  C   -0.009635
    55  C   -0.065998
    56  C   -0.032724
    57  C   -0.035781
    58  C   -0.032019
    59  C   -0.006869
    60  C   -0.067207
    61  C   -0.023866
    62  C   -0.032184
    63  C   -0.037229
    64  C    0.000267
    65  C   -0.050833
    66  C   -0.060722
    67  H    0.009132
    68  H    0.039417
    69  H    0.029851
    70  H    0.049375
    71  H    0.022803
    72  H    0.044237
    73  H    0.022584
    74  H    0.020136
    75  H    0.031138
    76  H    0.021385
    77  H    0.031214
    78  H    0.046003
    79  H    0.041440
    80  H    0.017591
    81  H    0.044940
    82  H    0.039429
    83  H    0.038315
    84  H    0.043442
    85  H    0.041925
    86  H    0.032250
    87  H    0.023794
    88  H    0.027928
    89  H    0.025686
    90  H    0.014585
    91  H    0.019149
    92  H    0.012669
    93  H    0.021221
    94  H    0.034152
    95  H    0.032344
    96  H    0.031110
    97  H    0.038833
    98  H    0.051168
    99  H    0.051519
   100  H    0.037245
   101  H    0.032688
   102  H    0.062514
   103  H    0.042013
   104  H    0.027321
   105  H    0.024910
   106  H    0.024027
   107  H    0.030796
   108  H    0.027819
   109  H    0.015212
   110  H    0.019937
   111  H    0.029412
   112  H    0.011540
   113  H    0.027721
   114  H    0.020304
   115  H    0.006740
   116  H    0.021203
   117  H    0.023596
   118  H    0.013698
   119  H    0.028466
   120  H    0.019754
   121  H    0.016061
   122  H    0.015022
   123  H    0.016339
   124  H    0.017637
   125  H    0.016246
   126  H    0.015923
   127  H    0.019059
   128  H    0.023716
   129  H    0.011978
   130  H    0.023929
   131  H    0.014367
   132  H    0.007101
   133  H    0.019854
   134  H    0.026903
   135  H    0.010495
   136  H    0.006947
   137  H    0.022893
   138  H    0.008456
   139  H    0.012546
   140  H    0.020907
 Sum of Mulliken charges =  -0.00000

 Dipole moment (field-independent basis, Debye):
    X=              5.6578    Y=             10.2457    Z=             -3.6936  Tot=             12.2731
 N-N= 4.303045944362D+03 E-N= 0.000000000000D+00  KE=-9.280513006764D+03
 Leave Link  601 at Wed May  4 01:54:26 2022, MaxMem=  6710886400 cpu:               1.0 elap:               0.1
 (Enter /sw/apps/gaussian-16.0/g16/l9999.exe)
 1\1\GINC-BP1-COMPUTE067\SP\RZINDO CIS\STO-3G\C55H74Mg1N4O6\OF15641\04-
 May-2022\0\\#p ZINDO=(nstates=5)\\step_1201_chromophore_19 ZINDO\\0,1\
 Mg,0,25.989,51.141,26.918\C,0,23.886,52.035,29.587\C,0,28.17,49.977,29
 .329\C,0,28.091,50.53,24.488\C,0,23.728,52.596,24.667\N,0,26.066,51.02
 8,29.272\C,0,25.04,51.468,30.116\C,0,25.412,51.15,31.61\C,0,26.971,50.
 897,31.492\C,0,27.066,50.506,29.981\C,0,27.898,52.151,31.898\C,0,24.66
 5,49.913,32.206\C,0,23.857,50.168,33.486\C,0,24.613,50.918,34.663\O,0,

 Normal termination of Gaussian 16 at Wed May  4 01:54:26 2022.
