 Gaussian 16, Revision A.03,
 Gaussian 16:  ES64L-G16RevA.03 25-Dec-2016

 ------------------------------
 #p blyp/Def2SVP td=(nstates=5)
 ------------------------------

 ---------------------------------------------------
 step_1351_chromophore_19 TDDFT with blyp functional
 ---------------------------------------------------
 Symbolic Z-matrix:
 Charge =  0 Multiplicity = 1

                         Standard orientation:
 ---------------------------------------------------------------------
 Center     Atomic      Atomic             Coordinates (Angstroms)
 Number     Number       Type             X           Y           Z
 ---------------------------------------------------------------------
      1         12           0       -5.840404    0.397591   -0.289107
      2          6           0       -3.471005   -2.168675   -0.370830
      3          6           0       -3.342188    2.505880    0.743695
      4          6           0       -8.201240    2.650762    0.451675
      5          6           0       -8.402813   -2.073190   -0.706903
      6          7           0       -3.691214    0.240245    0.151361
      7          6           0       -2.947628   -0.937670    0.021602
      8          6           0       -1.494505   -0.641460    0.232822
      9          6           0       -1.545484    0.743891    1.041219
     10          6           0       -2.930638    1.212771    0.639375
     11          6           0       -1.136328    0.862950    2.488878
     12          6           0       -0.613386   -0.666745   -1.038056
     13          6           0        0.491543   -1.693272   -1.082002
     14          6           0        1.631738   -1.699353   -0.068950
     15          8           0        1.452845   -1.814404    1.104352
     16          8           0        2.863940   -1.580136   -0.731349
     17          7           0       -5.750887    2.394379    0.276782
     18          6           0       -4.636601    3.112379    0.661977
     19          6           0       -5.020937    4.435536    0.809082
     20          6           0       -6.378056    4.596531    0.659483
     21          6           0       -6.885561    3.154098    0.442392
     22          6           0       -3.995319    5.527920    1.029259
     23          6           0       -7.221590    5.807358    0.748156
     24          8           0       -8.445961    5.645533    0.619037
     25          6           0       -6.700390    7.224907    0.955640
     26          7           0       -7.909593    0.264398   -0.080610
     27          6           0       -8.631855    1.402689    0.249227
     28          6           0      -10.114266    1.013314    0.267981
     29          6           0      -10.219763   -0.293699   -0.446328
     30          6           0       -8.789736   -0.749592   -0.425447
     31          6           0      -10.718774    1.124898    1.758989
     32          6           0      -10.772018   -0.269287   -1.912278
     33          6           0       -9.869064    0.399063   -2.993795
     34          7           0       -5.972265   -1.673500   -0.576322
     35          6           0       -7.069523   -2.552683   -0.775079
     36          6           0       -6.596236   -3.912894   -0.888232
     37          6           0       -5.229555   -3.793532   -0.715967
     38          6           0       -4.835254   -2.406115   -0.545438
     39          6           0       -7.435460   -5.077683   -1.128579
     40          6           0       -3.981715   -4.591743   -0.669262
     41          8           0       -3.843662   -5.848251   -0.689903
     42          6           0       -2.764045   -3.517297   -0.441339
     43          6           0       -1.978904   -3.877472    0.766670
     44          8           0       -2.217425   -3.466916    1.860494
     45          8           0       -1.029917   -4.798800    0.439653
     46          6           0       -0.211973   -5.349769    1.592366
     47          6           0        3.927245   -1.465120    0.332583
     48          6           0        5.207574   -1.103078   -0.351390
     49          6           0        6.438120   -0.669032    0.100726
     50          6           0        6.705522   -0.758996    1.625827
     51          6           0        7.588473   -0.396941   -0.830345
     52          6           0        8.069265    1.054961   -0.993261
     53          6           0        8.704429    1.186108   -2.436816
     54          6           0        9.663263    2.362558   -2.588419
     55          6           0        8.909270    3.615967   -2.988736
     56          6           0       10.826006    2.053901   -3.562102
     57          6           0       12.217318    2.238823   -2.794396
     58          6           0       12.925677    0.844035   -2.535439
     59          6           0       13.207090    0.668194   -0.995681
     60          6           0       14.566267    0.017229   -0.685947
     61          6           0       12.044979    0.076424   -0.284606
     62          6           0       11.810648    0.897515    1.054151
     63          6           0       11.181297    0.028706    2.129833
     64          6           0       12.161069   -0.385711    3.320361
     65          6           0       11.996041   -1.799082    3.733578
     66          6           0       11.996223    0.582105    4.467844
     67          1           0       -2.456072    3.080432    1.021440
     68          1           0       -9.028225    3.329481    0.669251
     69          1           0       -9.238482   -2.737021   -0.940362
     70          1           0       -1.193525   -1.351132    1.004380
     71          1           0       -0.839235    1.434490    0.581130
     72          1           0       -1.757188    1.513530    3.105147
     73          1           0       -0.085438    1.149105    2.535707
     74          1           0       -1.343474   -0.115900    2.921235
     75          1           0       -0.139531    0.308944   -1.143013
     76          1           0       -1.191886   -0.634441   -1.960796
     77          1           0        0.836323   -1.829251   -2.107253
     78          1           0       -0.020176   -2.645912   -0.948322
     79          1           0       -4.112023    6.070548    1.968271
     80          1           0       -4.087962    6.178969    0.159412
     81          1           0       -2.993386    5.116291    1.145085
     82          1           0       -6.365871    7.227869    1.992606
     83          1           0       -7.465663    7.967428    0.730640
     84          1           0       -5.895570    7.460553    0.258168
     85          1           0      -10.655240    1.729900   -0.349889
     86          1           0      -10.862949   -0.927583    0.163385
     87          1           0       -9.955330    1.078552    2.534336
     88          1           0      -11.482188    0.349335    1.826453
     89          1           0      -11.138871    2.127357    1.845334
     90          1           0      -11.808262    0.060394   -1.984559
     91          1           0      -10.657882   -1.327837   -2.148446
     92          1           0      -10.575202    0.806113   -3.718839
     93          1           0       -9.408731   -0.372980   -3.610993
     94          1           0       -9.231837    1.189302   -2.598358
     95          1           0       -6.821333   -5.968534   -0.992366
     96          1           0       -7.951695   -4.985157   -2.083574
     97          1           0       -8.218959   -5.149396   -0.373565
     98          1           0       -2.035383   -3.462394   -1.249516
     99          1           0        0.605868   -4.630077    1.619903
    100          1           0        0.206521   -6.319526    1.323153
    101          1           0       -0.776960   -5.348552    2.524522
    102          1           0        3.995228   -2.357918    0.953721
    103          1           0        3.722613   -0.618225    0.986643
    104          1           0        5.065115   -1.034139   -1.429263
    105          1           0        5.838566   -0.773181    2.286593
    106          1           0        7.444750   -0.024463    1.946001
    107          1           0        7.137237   -1.748643    1.770612
    108          1           0        7.358886   -0.878473   -1.780967
    109          1           0        8.379330   -1.052973   -0.465411
    110          1           0        8.656939    1.409274   -0.145233
    111          1           0        7.253960    1.770071   -1.100014
    112          1           0        7.873065    1.290161   -3.132850
    113          1           0        9.161413    0.233889   -2.706999
    114          1           0       10.153650    2.471496   -1.621669
    115          1           0        8.014665    3.649878   -2.366948
    116          1           0        8.625189    3.747326   -4.032845
    117          1           0        9.540446    4.473361   -2.756516
    118          1           0       10.887449    2.745048   -4.402035
    119          1           0       10.797329    1.036948   -3.954501
    120          1           0       12.070268    2.727245   -1.830268
    121          1           0       12.862205    2.739960   -3.515237
    122          1           0       13.843671    0.676670   -3.098714
    123          1           0       12.291682    0.035919   -2.901094
    124          1           0       13.296044    1.682792   -0.607644
    125          1           0       14.461919   -0.913408   -0.128457
    126          1           0       15.190375    0.626112   -0.032022
    127          1           0       15.081585   -0.149035   -1.631871
    128          1           0       12.107548   -1.011774   -0.293468
    129          1           0       11.212572    0.292300   -0.954804
    130          1           0       11.311691    1.835322    0.811003
    131          1           0       12.805970    1.209238    1.369955
    132          1           0       10.780340   -0.846814    1.620164
    133          1           0       10.308705    0.555703    2.515298
    134          1           0       13.130406   -0.248779    2.843716
    135          1           0       10.928636   -2.005430    3.652704
    136          1           0       12.285071   -1.917188    4.778624
    137          1           0       12.758925   -2.329751    3.165314
    138          1           0       11.473801    0.138524    5.315781
    139          1           0       11.433767    1.469108    4.174061
    140          1           0       12.955332    0.966707    4.812856
 ---------------------------------------------------------------------

 SCF Done:  E(RB-LYP) =  -3007.38093822     A.U. after   21 cycles

 Excitation energies and oscillator strengths:

 Excited State   1:      Singlet-A      1.7745 eV  698.68 nm  f=0.3145  <S**2>=0.000
     245 -> 248        0.16455
     246 -> 247        0.69459
     246 <- 247       -0.15953
 This state for optimization and/or second-order correction.
 Total Energy, E(TD-HF/TD-DFT) =  -3007.31572483
 Copying the excited state density for this state as the 1-particle RhoCI density.

 Excited State   2:      Singlet-A      1.8152 eV  683.05 nm  f=0.0030  <S**2>=0.000
     244 -> 247        0.69097
     245 -> 247       -0.14327

 Excited State   3:      Singlet-A      1.9856 eV  624.42 nm  f=0.0030  <S**2>=0.000
     243 -> 247        0.69310
     245 -> 247        0.12520

 Excited State   4:      Singlet-A      2.0574 eV  602.64 nm  f=0.0739  <S**2>=0.000
     240 -> 247        0.10313
     243 -> 247       -0.13509
     244 -> 247        0.13601
     245 -> 247        0.61495
     246 -> 248       -0.23994

 Excited State   5:      Singlet-A      2.2826 eV  543.16 nm  f=0.0000  <S**2>=0.000
     242 -> 247        0.70710

 The electronic state is 1-A.
 Alpha  occ. eigenvalues --  -46.26011 -18.83090 -18.81481 -18.78492 -18.76136
 Alpha  occ. eigenvalues --  -18.75842 -18.74537 -14.02702 -14.02352 -14.00806
 Alpha  occ. eigenvalues --  -14.00478 -10.04917 -10.03058 -10.00191  -9.99241
 Alpha  occ. eigenvalues --   -9.98422  -9.97448  -9.96067  -9.96036  -9.95952
 Alpha  occ. eigenvalues --   -9.95343  -9.95273  -9.95164  -9.95147  -9.94312
 Alpha  occ. eigenvalues --   -9.94040  -9.93794  -9.93479  -9.93370  -9.93251
 Alpha  occ. eigenvalues --   -9.93227  -9.93186  -9.92983  -9.92872  -9.92769
 Alpha  occ. eigenvalues --   -9.92641  -9.92605  -9.92561  -9.92544  -9.92484
 Alpha  occ. eigenvalues --   -9.92465  -9.92242  -9.92229  -9.92193  -9.92143
 Alpha  occ. eigenvalues --   -9.92092  -9.91919  -9.91821  -9.91778  -9.91751
 Alpha  occ. eigenvalues --   -9.91728  -9.91701  -9.91666  -9.91580  -9.91391
 Alpha  occ. eigenvalues --   -9.91305  -9.91239  -9.91143  -9.91039  -9.91029
 Alpha  occ. eigenvalues --   -9.91021  -9.90991  -9.90914  -9.90836  -9.90716
 Alpha  occ. eigenvalues --   -9.90615  -2.90739  -1.71167  -1.70632  -1.70433
 Alpha  occ. eigenvalues --   -0.98617  -0.97446  -0.91548  -0.90024  -0.89926
 Alpha  occ. eigenvalues --   -0.88873  -0.86131  -0.85160  -0.84768  -0.84021
 Alpha  occ. eigenvalues --   -0.74766  -0.73773  -0.73262  -0.72818  -0.72272
 Alpha  occ. eigenvalues --   -0.72222  -0.71509  -0.71320  -0.70725  -0.70378
 Alpha  occ. eigenvalues --   -0.70052  -0.69251  -0.68165  -0.67074  -0.66809
 Alpha  occ. eigenvalues --   -0.66587  -0.65542  -0.65161  -0.64906  -0.64438
 Alpha  occ. eigenvalues --   -0.64130  -0.62505  -0.62053  -0.61596  -0.60666
 Alpha  occ. eigenvalues --   -0.60557  -0.60398  -0.59801  -0.59793  -0.59012
 Alpha  occ. eigenvalues --   -0.58353  -0.57536  -0.56347  -0.56041  -0.54697
 Alpha  occ. eigenvalues --   -0.53859  -0.53625  -0.52733  -0.52689  -0.51211
 Alpha  occ. eigenvalues --   -0.50959  -0.50712  -0.50375  -0.50232  -0.50024
 Alpha  occ. eigenvalues --   -0.49757  -0.49456  -0.48707  -0.47303  -0.46634
 Alpha  occ. eigenvalues --   -0.46181  -0.45558  -0.45320  -0.44720  -0.43883
 Alpha  occ. eigenvalues --   -0.43836  -0.43347  -0.42906  -0.42684  -0.42206
 Alpha  occ. eigenvalues --   -0.41890  -0.41870  -0.41765  -0.41513  -0.41111
 Alpha  occ. eigenvalues --   -0.40945  -0.40426  -0.40350  -0.40179  -0.40029
 Alpha  occ. eigenvalues --   -0.39910  -0.39786  -0.39713  -0.39268  -0.39193
 Alpha  occ. eigenvalues --   -0.39140  -0.38940  -0.38419  -0.38324  -0.37968
 Alpha  occ. eigenvalues --   -0.37830  -0.37652  -0.37573  -0.37445  -0.37300
 Alpha  occ. eigenvalues --   -0.37199  -0.37081  -0.36999  -0.36675  -0.36424
 Alpha  occ. eigenvalues --   -0.36127  -0.36085  -0.36021  -0.35915  -0.35397
 Alpha  occ. eigenvalues --   -0.35359  -0.35095  -0.34979  -0.34719  -0.34576
 Alpha  occ. eigenvalues --   -0.34440  -0.34376  -0.34102  -0.34078  -0.33826
 Alpha  occ. eigenvalues --   -0.33629  -0.33474  -0.33386  -0.33272  -0.33240
 Alpha  occ. eigenvalues --   -0.32991  -0.32965  -0.32643  -0.32497  -0.32272
 Alpha  occ. eigenvalues --   -0.32152  -0.32011  -0.31630  -0.31566  -0.31282
 Alpha  occ. eigenvalues --   -0.31216  -0.31070  -0.31010  -0.30626  -0.30566
 Alpha  occ. eigenvalues --   -0.30155  -0.30033  -0.29807  -0.29750  -0.29639
 Alpha  occ. eigenvalues --   -0.29413  -0.29264  -0.29240  -0.29082  -0.28961
 Alpha  occ. eigenvalues --   -0.28697  -0.28272  -0.28109  -0.27889  -0.27727
 Alpha  occ. eigenvalues --   -0.27324  -0.27189  -0.27071  -0.26834  -0.26737
 Alpha  occ. eigenvalues --   -0.26376  -0.26033  -0.25721  -0.25711  -0.25573
 Alpha  occ. eigenvalues --   -0.25211  -0.24602  -0.24375  -0.23951  -0.23407
 Alpha  occ. eigenvalues --   -0.23158  -0.22776  -0.21985  -0.21600  -0.20497
 Alpha  occ. eigenvalues --   -0.20121  -0.19713  -0.18515  -0.17921  -0.17233
 Alpha  occ. eigenvalues --   -0.15410
 Alpha virt. eigenvalues --   -0.11325  -0.06646  -0.05910  -0.04471  -0.03570
 Alpha virt. eigenvalues --   -0.02123  -0.02033  -0.01316  -0.00879   0.00884
 Alpha virt. eigenvalues --    0.01445   0.01618   0.02146   0.02384   0.02977

 Mulliken charges:
               1
     1  Mg   0.692851
     2  C    0.009371
     3  C   -0.059726
     4  C   -0.041731
     5  C   -0.075661
     6  N   -0.206605
     7  C   -0.072889
     8  C    0.014390
     9  C   -0.024607
    10  C   -0.026176
    11  C    0.158390
    12  C    0.173388
    13  C    0.142834
    14  C    0.094303
    15  O   -0.163281
    16  O   -0.291848
    17  N   -0.306394
    18  C    0.177314
    19  C   -0.135732
    20  C    0.069034
    21  C    0.108881
    22  C    0.173956
    23  C   -0.115050
    24  O   -0.191990
    25  C    0.153067
    26  N   -0.260400
    27  C    0.051957
    28  C    0.010788
    29  C    0.063743
    30  C    0.001864
    31  C    0.122343
    32  C    0.073656
    33  C    0.070949
    34  N   -0.278970
    35  C    0.121228
    36  C   -0.174770
    37  C    0.085460
    38  C    0.077438
    39  C    0.194262
    40  C    0.003603
    41  O   -0.167075
    42  C    0.055284
    43  C    0.097190
    44  O   -0.158740
    45  O   -0.287377
    46  C    0.210576
    47  C    0.314286
    48  C   -0.137717
    49  C   -0.135714
    50  C    0.109478
    51  C    0.144342
    52  C    0.080554
    53  C    0.044630
    54  C   -0.033176
    55  C    0.121828
    56  C    0.107296
    57  C    0.044695
    58  C    0.095416
    59  C   -0.139378
    60  C    0.133650
    61  C    0.122974
    62  C    0.038962
    63  C    0.099818
    64  C   -0.113461
    65  C    0.150882
    66  C    0.122925
    67  H   -0.076161
    68  H   -0.047783
    69  H   -0.061309
    70  H   -0.001514
    71  H   -0.041849
    72  H   -0.014369
    73  H   -0.000768
    74  H    0.001177
    75  H   -0.036057
    76  H   -0.024503
    77  H   -0.026017
    78  H   -0.011565
    79  H   -0.006533
    80  H    0.011097
    81  H   -0.025152
    82  H    0.013052
    83  H   -0.006368
    84  H   -0.005287
    85  H   -0.037083
    86  H   -0.048735
    87  H    0.004680
    88  H   -0.006093
    89  H    0.002224
    90  H   -0.007287
    91  H   -0.033416
    92  H   -0.021837
    93  H   -0.008360
    94  H    0.024815
    95  H    0.007655
    96  H    0.001793
    97  H   -0.010226
    98  H   -0.004919
    99  H    0.016168
   100  H    0.024259
   101  H    0.034611
   102  H    0.011906
   103  H    0.012306
   104  H   -0.030392
   105  H   -0.010811
   106  H   -0.002743
   107  H    0.000705
   108  H   -0.033541
   109  H   -0.025580
   110  H   -0.014807
   111  H   -0.027964
   112  H   -0.031935
   113  H   -0.027400
   114  H   -0.037131
   115  H   -0.024136
   116  H   -0.008732
   117  H   -0.025212
   118  H   -0.041972
   119  H   -0.031936
   120  H   -0.004218
   121  H   -0.028125
   122  H   -0.046572
   123  H   -0.039839
   124  H   -0.035462
   125  H   -0.028244
   126  H   -0.019935
   127  H   -0.020681
   128  H   -0.030540
   129  H   -0.041350
   130  H   -0.025166
   131  H   -0.025166
   132  H   -0.034496
   133  H   -0.037078
   134  H   -0.039431
   135  H   -0.005138
   136  H   -0.029393
   137  H   -0.014154
   138  H   -0.019548
   139  H   -0.026934
   140  H   -0.018883
 Sum of Mulliken charges =  -0.00000

 Dipole moment (field-independent basis, Debye):
    X=              3.9683    Y=              2.8158    Z=             -1.0837  Tot=              4.9850
 Quadrupole moment (field-independent basis, Debye-Ang):
   XX=           -377.3571   YY=           -425.2088   ZZ=           -402.4533
   XY=              9.0751   XZ=             13.4937   YZ=             -0.9912

 Normal termination of Gaussian 16 at Wed May  4 04:46:56 2022.
