 Gaussian 16, Revision A.03,
 Gaussian 16:  ES64L-G16RevA.03 25-Dec-2016

 -----------------------------------
 #p cam-b3lyp/Def2SVP td=(nstates=5)
 -----------------------------------

 --------------------------------------------------------
 step_1351_chromophore_19 TDDFT with cam-b3lyp functional
 --------------------------------------------------------
 Symbolic Z-matrix:
 Charge =  0 Multiplicity = 1

                         Standard orientation:
 ---------------------------------------------------------------------
 Center     Atomic      Atomic             Coordinates (Angstroms)
 Number     Number       Type             X           Y           Z
 ---------------------------------------------------------------------
      1         12           0       -5.840404    0.397591   -0.289107
      2          6           0       -3.471005   -2.168675   -0.370830
      3          6           0       -3.342188    2.505880    0.743695
      4          6           0       -8.201240    2.650762    0.451675
      5          6           0       -8.402813   -2.073190   -0.706903
      6          7           0       -3.691214    0.240245    0.151361
      7          6           0       -2.947628   -0.937670    0.021602
      8          6           0       -1.494505   -0.641460    0.232822
      9          6           0       -1.545484    0.743891    1.041219
     10          6           0       -2.930638    1.212771    0.639375
     11          6           0       -1.136328    0.862950    2.488878
     12          6           0       -0.613386   -0.666745   -1.038056
     13          6           0        0.491543   -1.693272   -1.082002
     14          6           0        1.631738   -1.699353   -0.068950
     15          8           0        1.452845   -1.814404    1.104352
     16          8           0        2.863940   -1.580136   -0.731349
     17          7           0       -5.750887    2.394379    0.276782
     18          6           0       -4.636601    3.112379    0.661977
     19          6           0       -5.020937    4.435536    0.809082
     20          6           0       -6.378056    4.596531    0.659483
     21          6           0       -6.885561    3.154098    0.442392
     22          6           0       -3.995319    5.527920    1.029259
     23          6           0       -7.221590    5.807358    0.748156
     24          8           0       -8.445961    5.645533    0.619037
     25          6           0       -6.700390    7.224907    0.955640
     26          7           0       -7.909593    0.264398   -0.080610
     27          6           0       -8.631855    1.402689    0.249227
     28          6           0      -10.114266    1.013314    0.267981
     29          6           0      -10.219763   -0.293699   -0.446328
     30          6           0       -8.789736   -0.749592   -0.425447
     31          6           0      -10.718774    1.124898    1.758989
     32          6           0      -10.772018   -0.269287   -1.912278
     33          6           0       -9.869064    0.399063   -2.993795
     34          7           0       -5.972265   -1.673500   -0.576322
     35          6           0       -7.069523   -2.552683   -0.775079
     36          6           0       -6.596236   -3.912894   -0.888232
     37          6           0       -5.229555   -3.793532   -0.715967
     38          6           0       -4.835254   -2.406115   -0.545438
     39          6           0       -7.435460   -5.077683   -1.128579
     40          6           0       -3.981715   -4.591743   -0.669262
     41          8           0       -3.843662   -5.848251   -0.689903
     42          6           0       -2.764045   -3.517297   -0.441339
     43          6           0       -1.978904   -3.877472    0.766670
     44          8           0       -2.217425   -3.466916    1.860494
     45          8           0       -1.029917   -4.798800    0.439653
     46          6           0       -0.211973   -5.349769    1.592366
     47          6           0        3.927245   -1.465120    0.332583
     48          6           0        5.207574   -1.103078   -0.351390
     49          6           0        6.438120   -0.669032    0.100726
     50          6           0        6.705522   -0.758996    1.625827
     51          6           0        7.588473   -0.396941   -0.830345
     52          6           0        8.069265    1.054961   -0.993261
     53          6           0        8.704429    1.186108   -2.436816
     54          6           0        9.663263    2.362558   -2.588419
     55          6           0        8.909270    3.615967   -2.988736
     56          6           0       10.826006    2.053901   -3.562102
     57          6           0       12.217318    2.238823   -2.794396
     58          6           0       12.925677    0.844035   -2.535439
     59          6           0       13.207090    0.668194   -0.995681
     60          6           0       14.566267    0.017229   -0.685947
     61          6           0       12.044979    0.076424   -0.284606
     62          6           0       11.810648    0.897515    1.054151
     63          6           0       11.181297    0.028706    2.129833
     64          6           0       12.161069   -0.385711    3.320361
     65          6           0       11.996041   -1.799082    3.733578
     66          6           0       11.996223    0.582105    4.467844
     67          1           0       -2.456072    3.080432    1.021440
     68          1           0       -9.028225    3.329481    0.669251
     69          1           0       -9.238482   -2.737021   -0.940362
     70          1           0       -1.193525   -1.351132    1.004380
     71          1           0       -0.839235    1.434490    0.581130
     72          1           0       -1.757188    1.513530    3.105147
     73          1           0       -0.085438    1.149105    2.535707
     74          1           0       -1.343474   -0.115900    2.921235
     75          1           0       -0.139531    0.308944   -1.143013
     76          1           0       -1.191886   -0.634441   -1.960796
     77          1           0        0.836323   -1.829251   -2.107253
     78          1           0       -0.020176   -2.645912   -0.948322
     79          1           0       -4.112023    6.070548    1.968271
     80          1           0       -4.087962    6.178969    0.159412
     81          1           0       -2.993386    5.116291    1.145085
     82          1           0       -6.365871    7.227869    1.992606
     83          1           0       -7.465663    7.967428    0.730640
     84          1           0       -5.895570    7.460553    0.258168
     85          1           0      -10.655240    1.729900   -0.349889
     86          1           0      -10.862949   -0.927583    0.163385
     87          1           0       -9.955330    1.078552    2.534336
     88          1           0      -11.482188    0.349335    1.826453
     89          1           0      -11.138871    2.127357    1.845334
     90          1           0      -11.808262    0.060394   -1.984559
     91          1           0      -10.657882   -1.327837   -2.148446
     92          1           0      -10.575202    0.806113   -3.718839
     93          1           0       -9.408731   -0.372980   -3.610993
     94          1           0       -9.231837    1.189302   -2.598358
     95          1           0       -6.821333   -5.968534   -0.992366
     96          1           0       -7.951695   -4.985157   -2.083574
     97          1           0       -8.218959   -5.149396   -0.373565
     98          1           0       -2.035383   -3.462394   -1.249516
     99          1           0        0.605868   -4.630077    1.619903
    100          1           0        0.206521   -6.319526    1.323153
    101          1           0       -0.776960   -5.348552    2.524522
    102          1           0        3.995228   -2.357918    0.953721
    103          1           0        3.722613   -0.618225    0.986643
    104          1           0        5.065115   -1.034139   -1.429263
    105          1           0        5.838566   -0.773181    2.286593
    106          1           0        7.444750   -0.024463    1.946001
    107          1           0        7.137237   -1.748643    1.770612
    108          1           0        7.358886   -0.878473   -1.780967
    109          1           0        8.379330   -1.052973   -0.465411
    110          1           0        8.656939    1.409274   -0.145233
    111          1           0        7.253960    1.770071   -1.100014
    112          1           0        7.873065    1.290161   -3.132850
    113          1           0        9.161413    0.233889   -2.706999
    114          1           0       10.153650    2.471496   -1.621669
    115          1           0        8.014665    3.649878   -2.366948
    116          1           0        8.625189    3.747326   -4.032845
    117          1           0        9.540446    4.473361   -2.756516
    118          1           0       10.887449    2.745048   -4.402035
    119          1           0       10.797329    1.036948   -3.954501
    120          1           0       12.070268    2.727245   -1.830268
    121          1           0       12.862205    2.739960   -3.515237
    122          1           0       13.843671    0.676670   -3.098714
    123          1           0       12.291682    0.035919   -2.901094
    124          1           0       13.296044    1.682792   -0.607644
    125          1           0       14.461919   -0.913408   -0.128457
    126          1           0       15.190375    0.626112   -0.032022
    127          1           0       15.081585   -0.149035   -1.631871
    128          1           0       12.107548   -1.011774   -0.293468
    129          1           0       11.212572    0.292300   -0.954804
    130          1           0       11.311691    1.835322    0.811003
    131          1           0       12.805970    1.209238    1.369955
    132          1           0       10.780340   -0.846814    1.620164
    133          1           0       10.308705    0.555703    2.515298
    134          1           0       13.130406   -0.248779    2.843716
    135          1           0       10.928636   -2.005430    3.652704
    136          1           0       12.285071   -1.917188    4.778624
    137          1           0       12.758925   -2.329751    3.165314
    138          1           0       11.473801    0.138524    5.315781
    139          1           0       11.433767    1.469108    4.174061
    140          1           0       12.955332    0.966707    4.812856
 ---------------------------------------------------------------------

 SCF Done:  E(RCAM-B3LYP) =  -3007.17841019     A.U. after   17 cycles

 Excitation energies and oscillator strengths:

 Excited State   1:      Singlet-A      1.6526 eV  750.24 nm  f=0.3979  <S**2>=0.000
     245 -> 248        0.16581
     246 -> 247        0.68940
     245 <- 248        0.10518
 This state for optimization and/or second-order correction.
 Total Energy, E(TD-HF/TD-DFT) =  -3007.11767866
 Copying the excited state density for this state as the 1-particle RhoCI density.

 Excited State   2:      Singlet-A      2.2728 eV  545.52 nm  f=0.1048  <S**2>=0.000
     245 -> 247        0.63201
     246 -> 248       -0.30059

 Excited State   3:      Singlet-A      3.3792 eV  366.90 nm  f=0.0013  <S**2>=0.000
     240 -> 247        0.18048
     240 -> 249       -0.12072
     243 -> 247        0.65638

 Excited State   4:      Singlet-A      3.4083 eV  363.78 nm  f=0.0195  <S**2>=0.000
     240 -> 247        0.50409
     240 -> 249       -0.32793
     240 -> 250        0.13934
     242 -> 247        0.17771
     243 -> 247       -0.20584
     246 -> 248        0.13639

 Excited State   5:      Singlet-A      3.4527 eV  359.10 nm  f=0.3016  <S**2>=0.000
     240 -> 247       -0.16398
     240 -> 249        0.10225
     242 -> 247        0.34682
     245 -> 247        0.20907
     246 -> 248        0.52685

 The electronic state is 1-A.
 Alpha  occ. eigenvalues --  -46.87483 -19.26000 -19.24438 -19.21571 -19.19306
 Alpha  occ. eigenvalues --  -19.19089 -19.17773 -14.41619 -14.41116 -14.39270
 Alpha  occ. eigenvalues --  -14.38889 -10.40270 -10.38507 -10.35813 -10.34460
 Alpha  occ. eigenvalues --  -10.32529 -10.31549 -10.30573 -10.30543 -10.30328
 Alpha  occ. eigenvalues --  -10.29652 -10.29526 -10.29512 -10.29357 -10.28626
 Alpha  occ. eigenvalues --  -10.28556 -10.27677 -10.27589 -10.27533 -10.27457
 Alpha  occ. eigenvalues --  -10.27385 -10.27205 -10.27168 -10.27133 -10.26658
 Alpha  occ. eigenvalues --  -10.26556 -10.26498 -10.26442 -10.26439 -10.26416
 Alpha  occ. eigenvalues --  -10.26342 -10.26242 -10.26201 -10.26190 -10.25959
 Alpha  occ. eigenvalues --  -10.25816 -10.25786 -10.25587 -10.25479 -10.25422
 Alpha  occ. eigenvalues --  -10.25401 -10.25385 -10.25384 -10.25308 -10.25230
 Alpha  occ. eigenvalues --  -10.25186 -10.25109 -10.24749 -10.24738 -10.24725
 Alpha  occ. eigenvalues --  -10.24719 -10.24715 -10.24581 -10.24370 -10.24280
 Alpha  occ. eigenvalues --  -10.24221  -3.16118  -1.91021  -1.90587  -1.90404
 Alpha  occ. eigenvalues --   -1.17175  -1.16106  -1.09418  -1.08414  -1.07900
 Alpha  occ. eigenvalues --   -1.07225  -1.03877  -1.02763  -1.02322  -1.01485
 Alpha  occ. eigenvalues --   -0.91908  -0.90663  -0.90096  -0.89600  -0.88977
 Alpha  occ. eigenvalues --   -0.88953  -0.88140  -0.87891  -0.87342  -0.86892
 Alpha  occ. eigenvalues --   -0.86640  -0.85623  -0.84424  -0.83247  -0.82901
 Alpha  occ. eigenvalues --   -0.82643  -0.81628  -0.81135  -0.80687  -0.80431
 Alpha  occ. eigenvalues --   -0.79931  -0.78192  -0.77747  -0.77062  -0.76045
 Alpha  occ. eigenvalues --   -0.75931  -0.75815  -0.75127  -0.75053  -0.74267
 Alpha  occ. eigenvalues --   -0.73443  -0.72558  -0.71189  -0.70890  -0.69279
 Alpha  occ. eigenvalues --   -0.68489  -0.68282  -0.67178  -0.67088  -0.65373
 Alpha  occ. eigenvalues --   -0.65173  -0.64855  -0.64453  -0.64127  -0.63814
 Alpha  occ. eigenvalues --   -0.63772  -0.63369  -0.62632  -0.60968  -0.60295
 Alpha  occ. eigenvalues --   -0.59802  -0.59087  -0.58710  -0.58084  -0.57524
 Alpha  occ. eigenvalues --   -0.57290  -0.56697  -0.56251  -0.55782  -0.55489
 Alpha  occ. eigenvalues --   -0.55068  -0.54919  -0.54628  -0.54585  -0.53878
 Alpha  occ. eigenvalues --   -0.53765  -0.53612  -0.53151  -0.52993  -0.52735
 Alpha  occ. eigenvalues --   -0.52542  -0.52443  -0.52179  -0.52082  -0.51799
 Alpha  occ. eigenvalues --   -0.51583  -0.51408  -0.50969  -0.50843  -0.50291
 Alpha  occ. eigenvalues --   -0.50203  -0.50141  -0.50045  -0.49745  -0.49509
 Alpha  occ. eigenvalues --   -0.49428  -0.49291  -0.49195  -0.49067  -0.48770
 Alpha  occ. eigenvalues --   -0.48487  -0.48316  -0.48073  -0.47808  -0.47799
 Alpha  occ. eigenvalues --   -0.47640  -0.47246  -0.46910  -0.46667  -0.46436
 Alpha  occ. eigenvalues --   -0.46383  -0.46299  -0.46072  -0.45802  -0.45703
 Alpha  occ. eigenvalues --   -0.45417  -0.45252  -0.45086  -0.45020  -0.44950
 Alpha  occ. eigenvalues --   -0.44778  -0.44571  -0.44401  -0.44195  -0.44163
 Alpha  occ. eigenvalues --   -0.43731  -0.43693  -0.43251  -0.43147  -0.42991
 Alpha  occ. eigenvalues --   -0.42888  -0.42506  -0.42354  -0.42270  -0.42071
 Alpha  occ. eigenvalues --   -0.41756  -0.41432  -0.41423  -0.41003  -0.40879
 Alpha  occ. eigenvalues --   -0.40661  -0.40361  -0.40289  -0.40266  -0.40153
 Alpha  occ. eigenvalues --   -0.39707  -0.39269  -0.39099  -0.38833  -0.38583
 Alpha  occ. eigenvalues --   -0.38499  -0.38294  -0.38087  -0.37915  -0.37568
 Alpha  occ. eigenvalues --   -0.37144  -0.37082  -0.36465  -0.36411  -0.36302
 Alpha  occ. eigenvalues --   -0.36183  -0.36105  -0.35066  -0.34845  -0.34375
 Alpha  occ. eigenvalues --   -0.34141  -0.33808  -0.32445  -0.31281  -0.30434
 Alpha  occ. eigenvalues --   -0.30393  -0.29873  -0.29413  -0.29257  -0.24097
 Alpha  occ. eigenvalues --   -0.20585
 Alpha virt. eigenvalues --   -0.08462  -0.01298   0.00530   0.02364   0.02985
 Alpha virt. eigenvalues --    0.04157   0.05304   0.06025   0.06545   0.07460
 Alpha virt. eigenvalues --    0.07536   0.08572   0.08619   0.08665   0.09193

 Mulliken charges:
               1
     1  Mg   0.825824
     2  C   -0.012532
     3  C   -0.072753
     4  C   -0.061881
     5  C   -0.083211
     6  N   -0.276278
     7  C   -0.023874
     8  C   -0.054385
     9  C   -0.067116
    10  C   -0.005985
    11  C    0.098273
    12  C    0.117575
    13  C    0.072697
    14  C    0.173599
    15  O   -0.202472
    16  O   -0.356540
    17  N   -0.393102
    18  C    0.181813
    19  C   -0.143258
    20  C   -0.000363
    21  C    0.137187
    22  C    0.119813
    23  C   -0.039591
    24  O   -0.233672
    25  C    0.076908
    26  N   -0.331514
    27  C    0.066438
    28  C   -0.048423
    29  C    0.004080
    30  C    0.019175
    31  C    0.070671
    32  C    0.024038
    33  C    0.007352
    34  N   -0.366474
    35  C    0.128420
    36  C   -0.169319
    37  C    0.003525
    38  C    0.112620
    39  C    0.135357
    40  C    0.103003
    41  O   -0.205150
    42  C   -0.016765
    43  C    0.179273
    44  O   -0.194395
    45  O   -0.351399
    46  C    0.174377
    47  C    0.280639
    48  C   -0.155145
    49  C   -0.157688
    50  C    0.054064
    51  C    0.083149
    52  C    0.031147
    53  C   -0.006704
    54  C   -0.091448
    55  C    0.066201
    56  C    0.054245
    57  C   -0.010404
    58  C    0.047192
    59  C   -0.197481
    60  C    0.076015
    61  C    0.073854
    62  C   -0.008557
    63  C    0.046348
    64  C   -0.165947
    65  C    0.085444
    66  C    0.058823
    67  H   -0.041884
    68  H   -0.006536
    69  H   -0.025706
    70  H    0.035592
    71  H   -0.007057
    72  H    0.013135
    73  H    0.022803
    74  H    0.025301
    75  H   -0.004053
    76  H    0.009753
    77  H    0.013092
    78  H    0.013591
    79  H    0.020009
    80  H    0.035104
    81  H    0.003831
    82  H    0.039410
    83  H    0.029192
    84  H    0.022436
    85  H   -0.000340
    86  H   -0.010306
    87  H    0.029453
    88  H    0.016063
    89  H    0.024746
    90  H    0.020179
    91  H   -0.005605
    92  H    0.003718
    93  H    0.016299
    94  H    0.044042
    95  H    0.036549
    96  H    0.027909
    97  H    0.016784
    98  H    0.037096
    99  H    0.037019
   100  H    0.047616
   101  H    0.059802
   102  H    0.039283
   103  H    0.038876
   104  H    0.004011
   105  H    0.013436
   106  H    0.018397
   107  H    0.024410
   108  H   -0.000813
   109  H    0.001997
   110  H    0.007833
   111  H    0.000178
   112  H   -0.002219
   113  H   -0.001579
   114  H   -0.009800
   115  H   -0.001239
   116  H    0.015366
   117  H    0.000043
   118  H   -0.010990
   119  H   -0.003041
   120  H    0.018555
   121  H    0.002512
   122  H   -0.016119
   123  H   -0.012776
   124  H   -0.002410
   125  H   -0.004517
   126  H    0.004085
   127  H    0.003653
   128  H   -0.001772
   129  H   -0.018980
   130  H    0.001240
   131  H    0.000614
   132  H   -0.007617
   133  H   -0.010684
   134  H   -0.008864
   135  H    0.017502
   136  H   -0.002812
   137  H    0.010333
   138  H    0.005187
   139  H   -0.002000
   140  H    0.006377
 Sum of Mulliken charges =  -0.00000

 Dipole moment (field-independent basis, Debye):
    X=              4.1691    Y=              3.2557    Z=             -1.0767  Tot=              5.3982
 Quadrupole moment (field-independent basis, Debye-Ang):
   XX=           -377.1162   YY=           -420.6396   ZZ=           -402.0168
   XY=              6.9890   XZ=             13.6926   YZ=             -0.3121

 Normal termination of Gaussian 16 at Wed May  4 03:48:12 2022.
