 Gaussian 16, Revision A.03,
 Gaussian 16:  ES64L-G16RevA.03 25-Dec-2016

 ---------------------------------
 #p PBE1PBE/Def2SVP td=(nstates=5)
 ---------------------------------

 ------------------------------------------------------
 step_1351_chromophore_19 TDDFT with PBE1PBE functional
 ------------------------------------------------------
 Symbolic Z-matrix:
 Charge =  0 Multiplicity = 1

                         Standard orientation:
 ---------------------------------------------------------------------
 Center     Atomic      Atomic             Coordinates (Angstroms)
 Number     Number       Type             X           Y           Z
 ---------------------------------------------------------------------
      1         12           0       -5.840404    0.397591   -0.289107
      2          6           0       -3.471005   -2.168675   -0.370830
      3          6           0       -3.342188    2.505880    0.743695
      4          6           0       -8.201240    2.650762    0.451675
      5          6           0       -8.402813   -2.073190   -0.706903
      6          7           0       -3.691214    0.240245    0.151361
      7          6           0       -2.947628   -0.937670    0.021602
      8          6           0       -1.494505   -0.641460    0.232822
      9          6           0       -1.545484    0.743891    1.041219
     10          6           0       -2.930638    1.212771    0.639375
     11          6           0       -1.136328    0.862950    2.488878
     12          6           0       -0.613386   -0.666745   -1.038056
     13          6           0        0.491543   -1.693272   -1.082002
     14          6           0        1.631738   -1.699353   -0.068950
     15          8           0        1.452845   -1.814404    1.104352
     16          8           0        2.863940   -1.580136   -0.731349
     17          7           0       -5.750887    2.394379    0.276782
     18          6           0       -4.636601    3.112379    0.661977
     19          6           0       -5.020937    4.435536    0.809082
     20          6           0       -6.378056    4.596531    0.659483
     21          6           0       -6.885561    3.154098    0.442392
     22          6           0       -3.995319    5.527920    1.029259
     23          6           0       -7.221590    5.807358    0.748156
     24          8           0       -8.445961    5.645533    0.619037
     25          6           0       -6.700390    7.224907    0.955640
     26          7           0       -7.909593    0.264398   -0.080610
     27          6           0       -8.631855    1.402689    0.249227
     28          6           0      -10.114266    1.013314    0.267981
     29          6           0      -10.219763   -0.293699   -0.446328
     30          6           0       -8.789736   -0.749592   -0.425447
     31          6           0      -10.718774    1.124898    1.758989
     32          6           0      -10.772018   -0.269287   -1.912278
     33          6           0       -9.869064    0.399063   -2.993795
     34          7           0       -5.972265   -1.673500   -0.576322
     35          6           0       -7.069523   -2.552683   -0.775079
     36          6           0       -6.596236   -3.912894   -0.888232
     37          6           0       -5.229555   -3.793532   -0.715967
     38          6           0       -4.835254   -2.406115   -0.545438
     39          6           0       -7.435460   -5.077683   -1.128579
     40          6           0       -3.981715   -4.591743   -0.669262
     41          8           0       -3.843662   -5.848251   -0.689903
     42          6           0       -2.764045   -3.517297   -0.441339
     43          6           0       -1.978904   -3.877472    0.766670
     44          8           0       -2.217425   -3.466916    1.860494
     45          8           0       -1.029917   -4.798800    0.439653
     46          6           0       -0.211973   -5.349769    1.592366
     47          6           0        3.927245   -1.465120    0.332583
     48          6           0        5.207574   -1.103078   -0.351390
     49          6           0        6.438120   -0.669032    0.100726
     50          6           0        6.705522   -0.758996    1.625827
     51          6           0        7.588473   -0.396941   -0.830345
     52          6           0        8.069265    1.054961   -0.993261
     53          6           0        8.704429    1.186108   -2.436816
     54          6           0        9.663263    2.362558   -2.588419
     55          6           0        8.909270    3.615967   -2.988736
     56          6           0       10.826006    2.053901   -3.562102
     57          6           0       12.217318    2.238823   -2.794396
     58          6           0       12.925677    0.844035   -2.535439
     59          6           0       13.207090    0.668194   -0.995681
     60          6           0       14.566267    0.017229   -0.685947
     61          6           0       12.044979    0.076424   -0.284606
     62          6           0       11.810648    0.897515    1.054151
     63          6           0       11.181297    0.028706    2.129833
     64          6           0       12.161069   -0.385711    3.320361
     65          6           0       11.996041   -1.799082    3.733578
     66          6           0       11.996223    0.582105    4.467844
     67          1           0       -2.456072    3.080432    1.021440
     68          1           0       -9.028225    3.329481    0.669251
     69          1           0       -9.238482   -2.737021   -0.940362
     70          1           0       -1.193525   -1.351132    1.004380
     71          1           0       -0.839235    1.434490    0.581130
     72          1           0       -1.757188    1.513530    3.105147
     73          1           0       -0.085438    1.149105    2.535707
     74          1           0       -1.343474   -0.115900    2.921235
     75          1           0       -0.139531    0.308944   -1.143013
     76          1           0       -1.191886   -0.634441   -1.960796
     77          1           0        0.836323   -1.829251   -2.107253
     78          1           0       -0.020176   -2.645912   -0.948322
     79          1           0       -4.112023    6.070548    1.968271
     80          1           0       -4.087962    6.178969    0.159412
     81          1           0       -2.993386    5.116291    1.145085
     82          1           0       -6.365871    7.227869    1.992606
     83          1           0       -7.465663    7.967428    0.730640
     84          1           0       -5.895570    7.460553    0.258168
     85          1           0      -10.655240    1.729900   -0.349889
     86          1           0      -10.862949   -0.927583    0.163385
     87          1           0       -9.955330    1.078552    2.534336
     88          1           0      -11.482188    0.349335    1.826453
     89          1           0      -11.138871    2.127357    1.845334
     90          1           0      -11.808262    0.060394   -1.984559
     91          1           0      -10.657882   -1.327837   -2.148446
     92          1           0      -10.575202    0.806113   -3.718839
     93          1           0       -9.408731   -0.372980   -3.610993
     94          1           0       -9.231837    1.189302   -2.598358
     95          1           0       -6.821333   -5.968534   -0.992366
     96          1           0       -7.951695   -4.985157   -2.083574
     97          1           0       -8.218959   -5.149396   -0.373565
     98          1           0       -2.035383   -3.462394   -1.249516
     99          1           0        0.605868   -4.630077    1.619903
    100          1           0        0.206521   -6.319526    1.323153
    101          1           0       -0.776960   -5.348552    2.524522
    102          1           0        3.995228   -2.357918    0.953721
    103          1           0        3.722613   -0.618225    0.986643
    104          1           0        5.065115   -1.034139   -1.429263
    105          1           0        5.838566   -0.773181    2.286593
    106          1           0        7.444750   -0.024463    1.946001
    107          1           0        7.137237   -1.748643    1.770612
    108          1           0        7.358886   -0.878473   -1.780967
    109          1           0        8.379330   -1.052973   -0.465411
    110          1           0        8.656939    1.409274   -0.145233
    111          1           0        7.253960    1.770071   -1.100014
    112          1           0        7.873065    1.290161   -3.132850
    113          1           0        9.161413    0.233889   -2.706999
    114          1           0       10.153650    2.471496   -1.621669
    115          1           0        8.014665    3.649878   -2.366948
    116          1           0        8.625189    3.747326   -4.032845
    117          1           0        9.540446    4.473361   -2.756516
    118          1           0       10.887449    2.745048   -4.402035
    119          1           0       10.797329    1.036948   -3.954501
    120          1           0       12.070268    2.727245   -1.830268
    121          1           0       12.862205    2.739960   -3.515237
    122          1           0       13.843671    0.676670   -3.098714
    123          1           0       12.291682    0.035919   -2.901094
    124          1           0       13.296044    1.682792   -0.607644
    125          1           0       14.461919   -0.913408   -0.128457
    126          1           0       15.190375    0.626112   -0.032022
    127          1           0       15.081585   -0.149035   -1.631871
    128          1           0       12.107548   -1.011774   -0.293468
    129          1           0       11.212572    0.292300   -0.954804
    130          1           0       11.311691    1.835322    0.811003
    131          1           0       12.805970    1.209238    1.369955
    132          1           0       10.780340   -0.846814    1.620164
    133          1           0       10.308705    0.555703    2.515298
    134          1           0       13.130406   -0.248779    2.843716
    135          1           0       10.928636   -2.005430    3.652704
    136          1           0       12.285071   -1.917188    4.778624
    137          1           0       12.758925   -2.329751    3.165314
    138          1           0       11.473801    0.138524    5.315781
    139          1           0       11.433767    1.469108    4.174061
    140          1           0       12.955332    0.966707    4.812856
 ---------------------------------------------------------------------

 SCF Done:  E(RPBE1PBE) =  -3005.36695448     A.U. after   15 cycles

 Excitation energies and oscillator strengths:

 Excited State   1:      Singlet-A      1.8139 eV  683.54 nm  f=0.3828  <S**2>=0.000
     245 -> 248        0.15617
     246 -> 247        0.69749
     246 <- 247       -0.11733
 This state for optimization and/or second-order correction.
 Total Energy, E(TD-HF/TD-DFT) =  -3005.30029664
 Copying the excited state density for this state as the 1-particle RhoCI density.

 Excited State   2:      Singlet-A      2.2737 eV  545.30 nm  f=0.1031  <S**2>=0.000
     245 -> 247        0.64374
     246 -> 248       -0.27074

 Excited State   3:      Singlet-A      2.9660 eV  418.02 nm  f=0.0002  <S**2>=0.000
     240 -> 247       -0.11410
     241 -> 247        0.62409
     241 -> 249       -0.19061
     242 -> 247       -0.10901
     243 -> 247        0.18681

 Excited State   4:      Singlet-A      2.9738 eV  416.92 nm  f=0.0003  <S**2>=0.000
     242 -> 247        0.58625
     242 -> 248        0.10884
     242 -> 250        0.11814
     243 -> 247        0.32717

 Excited State   5:      Singlet-A      3.0549 eV  405.85 nm  f=0.0012  <S**2>=0.000
     241 -> 247       -0.22251
     242 -> 247       -0.31948
     243 -> 247        0.58164

 The electronic state is 1-A.
 Alpha  occ. eigenvalues --  -46.90893 -19.26703 -19.25065 -19.21778 -19.19465
 Alpha  occ. eigenvalues --  -19.19305 -19.18000 -14.41087 -14.40711 -14.38951
 Alpha  occ. eigenvalues --  -14.38587 -10.37272 -10.35441 -10.32965 -10.31583
 Alpha  occ. eigenvalues --  -10.29935 -10.28751 -10.28318 -10.28258 -10.28113
 Alpha  occ. eigenvalues --  -10.27330 -10.27292 -10.27240 -10.27057 -10.26336
 Alpha  occ. eigenvalues --  -10.26139 -10.25296 -10.25287 -10.25262 -10.25042
 Alpha  occ. eigenvalues --  -10.25028 -10.24985 -10.24933 -10.24722 -10.24498
 Alpha  occ. eigenvalues --  -10.24258 -10.24233 -10.24178 -10.24137 -10.23951
 Alpha  occ. eigenvalues --  -10.23892 -10.23744 -10.23568 -10.23515 -10.23486
 Alpha  occ. eigenvalues --  -10.23356 -10.23339 -10.23179 -10.23135 -10.23035
 Alpha  occ. eigenvalues --  -10.23003 -10.22933 -10.22926 -10.22890 -10.22849
 Alpha  occ. eigenvalues --  -10.22695 -10.22685 -10.22448 -10.22357 -10.22335
 Alpha  occ. eigenvalues --  -10.22285 -10.22121 -10.22106 -10.21727 -10.21638
 Alpha  occ. eigenvalues --  -10.21609  -3.13104  -1.85949  -1.85493  -1.85312
 Alpha  occ. eigenvalues --   -1.11937  -1.10813  -1.04287  -1.03126  -1.02696
 Alpha  occ. eigenvalues --   -1.01911  -0.98464  -0.97383  -0.96992  -0.96155
 Alpha  occ. eigenvalues --   -0.86214  -0.84745  -0.84212  -0.83796  -0.83295
 Alpha  occ. eigenvalues --   -0.83088  -0.82273  -0.82237  -0.81672  -0.81239
 Alpha  occ. eigenvalues --   -0.80954  -0.79878  -0.78597  -0.77557  -0.77122
 Alpha  occ. eigenvalues --   -0.76863  -0.75842  -0.75304  -0.74994  -0.74667
 Alpha  occ. eigenvalues --   -0.74118  -0.72485  -0.72030  -0.71361  -0.70154
 Alpha  occ. eigenvalues --   -0.70133  -0.70048  -0.69396  -0.69257  -0.68438
 Alpha  occ. eigenvalues --   -0.67841  -0.66920  -0.65627  -0.65169  -0.63644
 Alpha  occ. eigenvalues --   -0.62857  -0.62550  -0.61706  -0.61297  -0.59864
 Alpha  occ. eigenvalues --   -0.59407  -0.59364  -0.58647  -0.58573  -0.58408
 Alpha  occ. eigenvalues --   -0.57913  -0.57867  -0.56818  -0.55543  -0.54698
 Alpha  occ. eigenvalues --   -0.54332  -0.53638  -0.53280  -0.52682  -0.51983
 Alpha  occ. eigenvalues --   -0.51811  -0.51233  -0.50637  -0.50361  -0.49947
 Alpha  occ. eigenvalues --   -0.49647  -0.49497  -0.49113  -0.48967  -0.48423
 Alpha  occ. eigenvalues --   -0.48193  -0.48135  -0.47680  -0.47483  -0.47208
 Alpha  occ. eigenvalues --   -0.47018  -0.46872  -0.46767  -0.46586  -0.46404
 Alpha  occ. eigenvalues --   -0.46103  -0.45925  -0.45439  -0.45391  -0.44912
 Alpha  occ. eigenvalues --   -0.44788  -0.44699  -0.44615  -0.44274  -0.44058
 Alpha  occ. eigenvalues --   -0.44034  -0.43910  -0.43806  -0.43682  -0.43355
 Alpha  occ. eigenvalues --   -0.43095  -0.42919  -0.42649  -0.42455  -0.42448
 Alpha  occ. eigenvalues --   -0.42279  -0.41901  -0.41516  -0.41288  -0.41050
 Alpha  occ. eigenvalues --   -0.41026  -0.40939  -0.40752  -0.40554  -0.40443
 Alpha  occ. eigenvalues --   -0.40152  -0.40032  -0.39851  -0.39706  -0.39674
 Alpha  occ. eigenvalues --   -0.39504  -0.39253  -0.39207  -0.38952  -0.38881
 Alpha  occ. eigenvalues --   -0.38569  -0.38374  -0.38080  -0.37829  -0.37677
 Alpha  occ. eigenvalues --   -0.37674  -0.37357  -0.37102  -0.37062  -0.36979
 Alpha  occ. eigenvalues --   -0.36539  -0.36242  -0.36152  -0.35903  -0.35756
 Alpha  occ. eigenvalues --   -0.35580  -0.35216  -0.35094  -0.35040  -0.34944
 Alpha  occ. eigenvalues --   -0.34460  -0.34217  -0.34048  -0.33584  -0.33425
 Alpha  occ. eigenvalues --   -0.33379  -0.33225  -0.33046  -0.32682  -0.32374
 Alpha  occ. eigenvalues --   -0.32116  -0.31968  -0.31481  -0.31468  -0.31146
 Alpha  occ. eigenvalues --   -0.31066  -0.31056  -0.29945  -0.29803  -0.29330
 Alpha  occ. eigenvalues --   -0.29053  -0.28919  -0.27997  -0.26933  -0.25511
 Alpha  occ. eigenvalues --   -0.25315  -0.25092  -0.25052  -0.24569  -0.20976
 Alpha  occ. eigenvalues --   -0.18279
 Alpha virt. eigenvalues --   -0.10920  -0.04883  -0.03656  -0.01976  -0.00377
 Alpha virt. eigenvalues --    0.00178   0.00953   0.01614   0.02032   0.03992
 Alpha virt. eigenvalues --    0.04235   0.04391   0.04942   0.05311   0.05908

 Mulliken charges:
               1
     1  Mg   0.974154
     2  C   -0.019393
     3  C   -0.074080
     4  C   -0.050677
     5  C   -0.072894
     6  N   -0.383114
     7  C    0.047727
     8  C   -0.132964
     9  C   -0.135939
    10  C    0.038601
    11  C    0.039545
    12  C    0.071229
    13  C   -0.016780
    14  C    0.240364
    15  O   -0.234839
    16  O   -0.385823
    17  N   -0.504694
    18  C    0.209032
    19  C   -0.180468
    20  C   -0.050014
    21  C    0.173455
    22  C    0.065646
    23  C    0.009625
    24  O   -0.268302
    25  C    0.005852
    26  N   -0.434847
    27  C    0.088248
    28  C   -0.119900
    29  C   -0.073720
    30  C    0.057458
    31  C    0.013359
    32  C   -0.040056
    33  C   -0.066406
    34  N   -0.490570
    35  C    0.151560
    36  C   -0.194114
    37  C   -0.048758
    38  C    0.167984
    39  C    0.079189
    40  C    0.195082
    41  O   -0.247870
    42  C   -0.119898
    43  C    0.264578
    44  O   -0.230422
    45  O   -0.382619
    46  C    0.117703
    47  C    0.235758
    48  C   -0.158612
    49  C   -0.204689
    50  C   -0.008285
    51  C    0.017232
    52  C   -0.033146
    53  C   -0.059279
    54  C   -0.186915
    55  C    0.004815
    56  C    0.008203
    57  C   -0.079929
    58  C   -0.003880
    59  C   -0.286148
    60  C    0.020053
    61  C    0.010839
    62  C   -0.071804
    63  C   -0.010711
    64  C   -0.257319
    65  C    0.019730
    66  C   -0.001681
    67  H   -0.008942
    68  H    0.025262
    69  H    0.005019
    70  H    0.080179
    71  H    0.030827
    72  H    0.040959
    73  H    0.049577
    74  H    0.052953
    75  H    0.029413
    76  H    0.041270
    77  H    0.045399
    78  H    0.054917
    79  H    0.047603
    80  H    0.062682
    81  H    0.032203
    82  H    0.066228
    83  H    0.056001
    84  H    0.048649
    85  H    0.037987
    86  H    0.027321
    87  H    0.056930
    88  H    0.043605
    89  H    0.051769
    90  H    0.051314
    91  H    0.030790
    92  H    0.033153
    93  H    0.044207
    94  H    0.073652
    95  H    0.064735
    96  H    0.055395
    97  H    0.044746
    98  H    0.074398
    99  H    0.060874
   100  H    0.068878
   101  H    0.080066
   102  H    0.065361
   103  H    0.065753
   104  H    0.034896
   105  H    0.039718
   106  H    0.047638
   107  H    0.052660
   108  H    0.030201
   109  H    0.036173
   110  H    0.039853
   111  H    0.034152
   112  H    0.031508
   113  H    0.028004
   114  H    0.030739
   115  H    0.028318
   116  H    0.042209
   117  H    0.029371
   118  H    0.021707
   119  H    0.028512
   120  H    0.048726
   121  H    0.036748
   122  H    0.015568
   123  H    0.019458
   124  H    0.037772
   125  H    0.022821
   126  H    0.030868
   127  H    0.030639
   128  H    0.028421
   129  H    0.029450
   130  H    0.032944
   131  H    0.033890
   132  H    0.026300
   133  H    0.022859
   134  H    0.030023
   135  H    0.044477
   136  H    0.026346
   137  H    0.038384
   138  H    0.032279
   139  H    0.025497
   140  H    0.034274
 Sum of Mulliken charges =  -0.00000

 Dipole moment (field-independent basis, Debye):
    X=              4.0332    Y=              3.2496    Z=             -1.1096  Tot=              5.2970
 Quadrupole moment (field-independent basis, Debye-Ang):
   XX=           -370.1331   YY=           -418.6546   ZZ=           -399.1417
   XY=              7.8809   XZ=             14.0526   YZ=             -0.2795

 Normal termination of Gaussian 16 at Wed May  4 04:05:20 2022.
