 Gaussian 16, Revision A.03,
 Gaussian 16:  ES64L-G16RevA.03 25-Dec-2016

 --------------------------------
 #p wB97XD/Def2SVP td=(nstates=5)
 --------------------------------

 -----------------------------------------------------
 step_1351_chromophore_19 TDDFT with wB97XD functional
 -----------------------------------------------------
 Symbolic Z-matrix:
 Charge =  0 Multiplicity = 1

                         Standard orientation:
 ---------------------------------------------------------------------
 Center     Atomic      Atomic             Coordinates (Angstroms)
 Number     Number       Type             X           Y           Z
 ---------------------------------------------------------------------
      1         12           0       -5.840404    0.397591   -0.289107
      2          6           0       -3.471005   -2.168675   -0.370830
      3          6           0       -3.342188    2.505880    0.743695
      4          6           0       -8.201240    2.650762    0.451675
      5          6           0       -8.402813   -2.073190   -0.706903
      6          7           0       -3.691214    0.240245    0.151361
      7          6           0       -2.947628   -0.937670    0.021602
      8          6           0       -1.494505   -0.641460    0.232822
      9          6           0       -1.545484    0.743891    1.041219
     10          6           0       -2.930638    1.212771    0.639375
     11          6           0       -1.136328    0.862950    2.488878
     12          6           0       -0.613386   -0.666745   -1.038056
     13          6           0        0.491543   -1.693272   -1.082002
     14          6           0        1.631738   -1.699353   -0.068950
     15          8           0        1.452845   -1.814404    1.104352
     16          8           0        2.863940   -1.580136   -0.731349
     17          7           0       -5.750887    2.394379    0.276782
     18          6           0       -4.636601    3.112379    0.661977
     19          6           0       -5.020937    4.435536    0.809082
     20          6           0       -6.378056    4.596531    0.659483
     21          6           0       -6.885561    3.154098    0.442392
     22          6           0       -3.995319    5.527920    1.029259
     23          6           0       -7.221590    5.807358    0.748156
     24          8           0       -8.445961    5.645533    0.619037
     25          6           0       -6.700390    7.224907    0.955640
     26          7           0       -7.909593    0.264398   -0.080610
     27          6           0       -8.631855    1.402689    0.249227
     28          6           0      -10.114266    1.013314    0.267981
     29          6           0      -10.219763   -0.293699   -0.446328
     30          6           0       -8.789736   -0.749592   -0.425447
     31          6           0      -10.718774    1.124898    1.758989
     32          6           0      -10.772018   -0.269287   -1.912278
     33          6           0       -9.869064    0.399063   -2.993795
     34          7           0       -5.972265   -1.673500   -0.576322
     35          6           0       -7.069523   -2.552683   -0.775079
     36          6           0       -6.596236   -3.912894   -0.888232
     37          6           0       -5.229555   -3.793532   -0.715967
     38          6           0       -4.835254   -2.406115   -0.545438
     39          6           0       -7.435460   -5.077683   -1.128579
     40          6           0       -3.981715   -4.591743   -0.669262
     41          8           0       -3.843662   -5.848251   -0.689903
     42          6           0       -2.764045   -3.517297   -0.441339
     43          6           0       -1.978904   -3.877472    0.766670
     44          8           0       -2.217425   -3.466916    1.860494
     45          8           0       -1.029917   -4.798800    0.439653
     46          6           0       -0.211973   -5.349769    1.592366
     47          6           0        3.927245   -1.465120    0.332583
     48          6           0        5.207574   -1.103078   -0.351390
     49          6           0        6.438120   -0.669032    0.100726
     50          6           0        6.705522   -0.758996    1.625827
     51          6           0        7.588473   -0.396941   -0.830345
     52          6           0        8.069265    1.054961   -0.993261
     53          6           0        8.704429    1.186108   -2.436816
     54          6           0        9.663263    2.362558   -2.588419
     55          6           0        8.909270    3.615967   -2.988736
     56          6           0       10.826006    2.053901   -3.562102
     57          6           0       12.217318    2.238823   -2.794396
     58          6           0       12.925677    0.844035   -2.535439
     59          6           0       13.207090    0.668194   -0.995681
     60          6           0       14.566267    0.017229   -0.685947
     61          6           0       12.044979    0.076424   -0.284606
     62          6           0       11.810648    0.897515    1.054151
     63          6           0       11.181297    0.028706    2.129833
     64          6           0       12.161069   -0.385711    3.320361
     65          6           0       11.996041   -1.799082    3.733578
     66          6           0       11.996223    0.582105    4.467844
     67          1           0       -2.456072    3.080432    1.021440
     68          1           0       -9.028225    3.329481    0.669251
     69          1           0       -9.238482   -2.737021   -0.940362
     70          1           0       -1.193525   -1.351132    1.004380
     71          1           0       -0.839235    1.434490    0.581130
     72          1           0       -1.757188    1.513530    3.105147
     73          1           0       -0.085438    1.149105    2.535707
     74          1           0       -1.343474   -0.115900    2.921235
     75          1           0       -0.139531    0.308944   -1.143013
     76          1           0       -1.191886   -0.634441   -1.960796
     77          1           0        0.836323   -1.829251   -2.107253
     78          1           0       -0.020176   -2.645912   -0.948322
     79          1           0       -4.112023    6.070548    1.968271
     80          1           0       -4.087962    6.178969    0.159412
     81          1           0       -2.993386    5.116291    1.145085
     82          1           0       -6.365871    7.227869    1.992606
     83          1           0       -7.465663    7.967428    0.730640
     84          1           0       -5.895570    7.460553    0.258168
     85          1           0      -10.655240    1.729900   -0.349889
     86          1           0      -10.862949   -0.927583    0.163385
     87          1           0       -9.955330    1.078552    2.534336
     88          1           0      -11.482188    0.349335    1.826453
     89          1           0      -11.138871    2.127357    1.845334
     90          1           0      -11.808262    0.060394   -1.984559
     91          1           0      -10.657882   -1.327837   -2.148446
     92          1           0      -10.575202    0.806113   -3.718839
     93          1           0       -9.408731   -0.372980   -3.610993
     94          1           0       -9.231837    1.189302   -2.598358
     95          1           0       -6.821333   -5.968534   -0.992366
     96          1           0       -7.951695   -4.985157   -2.083574
     97          1           0       -8.218959   -5.149396   -0.373565
     98          1           0       -2.035383   -3.462394   -1.249516
     99          1           0        0.605868   -4.630077    1.619903
    100          1           0        0.206521   -6.319526    1.323153
    101          1           0       -0.776960   -5.348552    2.524522
    102          1           0        3.995228   -2.357918    0.953721
    103          1           0        3.722613   -0.618225    0.986643
    104          1           0        5.065115   -1.034139   -1.429263
    105          1           0        5.838566   -0.773181    2.286593
    106          1           0        7.444750   -0.024463    1.946001
    107          1           0        7.137237   -1.748643    1.770612
    108          1           0        7.358886   -0.878473   -1.780967
    109          1           0        8.379330   -1.052973   -0.465411
    110          1           0        8.656939    1.409274   -0.145233
    111          1           0        7.253960    1.770071   -1.100014
    112          1           0        7.873065    1.290161   -3.132850
    113          1           0        9.161413    0.233889   -2.706999
    114          1           0       10.153650    2.471496   -1.621669
    115          1           0        8.014665    3.649878   -2.366948
    116          1           0        8.625189    3.747326   -4.032845
    117          1           0        9.540446    4.473361   -2.756516
    118          1           0       10.887449    2.745048   -4.402035
    119          1           0       10.797329    1.036948   -3.954501
    120          1           0       12.070268    2.727245   -1.830268
    121          1           0       12.862205    2.739960   -3.515237
    122          1           0       13.843671    0.676670   -3.098714
    123          1           0       12.291682    0.035919   -2.901094
    124          1           0       13.296044    1.682792   -0.607644
    125          1           0       14.461919   -0.913408   -0.128457
    126          1           0       15.190375    0.626112   -0.032022
    127          1           0       15.081585   -0.149035   -1.631871
    128          1           0       12.107548   -1.011774   -0.293468
    129          1           0       11.212572    0.292300   -0.954804
    130          1           0       11.311691    1.835322    0.811003
    131          1           0       12.805970    1.209238    1.369955
    132          1           0       10.780340   -0.846814    1.620164
    133          1           0       10.308705    0.555703    2.515298
    134          1           0       13.130406   -0.248779    2.843716
    135          1           0       10.928636   -2.005430    3.652704
    136          1           0       12.285071   -1.917188    4.778624
    137          1           0       12.758925   -2.329751    3.165314
    138          1           0       11.473801    0.138524    5.315781
    139          1           0       11.433767    1.469108    4.174061
    140          1           0       12.955332    0.966707    4.812856
 ---------------------------------------------------------------------

 SCF Done:  E(RwB97XD) =  -3007.87988525     A.U. after   17 cycles

 Excitation energies and oscillator strengths:

 Excited State   1:      Singlet-A      1.5917 eV  778.96 nm  f=0.3966  <S**2>=0.000
     245 -> 248        0.17186
     246 -> 247        0.68694
     245 <- 248        0.11463
 This state for optimization and/or second-order correction.
 Total Energy, E(TD-HF/TD-DFT) =  -3007.82139255
 Copying the excited state density for this state as the 1-particle RhoCI density.

 Excited State   2:      Singlet-A      2.2151 eV  559.73 nm  f=0.1028  <S**2>=0.000
     245 -> 247        0.63088
     246 -> 248       -0.30170

 Excited State   3:      Singlet-A      3.3980 eV  364.87 nm  f=0.0012  <S**2>=0.000
     240 -> 247        0.14066
     243 -> 247        0.66494

 Excited State   4:      Singlet-A      3.4330 eV  361.16 nm  f=0.0375  <S**2>=0.000
     240 -> 247        0.47346
     240 -> 249       -0.33685
     240 -> 250        0.13884
     242 -> 247        0.23168
     243 -> 247       -0.15542
     246 -> 248        0.18564

 Excited State   5:      Singlet-A      3.4667 eV  357.64 nm  f=0.2928  <S**2>=0.000
     240 -> 247       -0.22852
     240 -> 249        0.14718
     242 -> 247        0.32143
     245 -> 247        0.20064
     246 -> 248        0.50886

 The electronic state is 1-A.
 Alpha  occ. eigenvalues --  -46.93828 -19.31250 -19.29652 -19.26451 -19.24211
 Alpha  occ. eigenvalues --  -19.24171 -19.22806 -14.46219 -14.45726 -14.43882
 Alpha  occ. eigenvalues --  -14.43493 -10.44056 -10.42320 -10.39885 -10.38422
 Alpha  occ. eigenvalues --  -10.36431 -10.35287 -10.34601 -10.34592 -10.34329
 Alpha  occ. eigenvalues --  -10.33633 -10.33555 -10.33521 -10.33382 -10.32622
 Alpha  occ. eigenvalues --  -10.32602 -10.31647 -10.31644 -10.31622 -10.31483
 Alpha  occ. eigenvalues --  -10.31374 -10.31285 -10.31237 -10.31211 -10.30676
 Alpha  occ. eigenvalues --  -10.30579 -10.30520 -10.30436 -10.30436 -10.30394
 Alpha  occ. eigenvalues --  -10.30385 -10.30147 -10.30102 -10.30022 -10.29904
 Alpha  occ. eigenvalues --  -10.29740 -10.29677 -10.29468 -10.29455 -10.29447
 Alpha  occ. eigenvalues --  -10.29321 -10.29312 -10.29251 -10.29250 -10.29197
 Alpha  occ. eigenvalues --  -10.29061 -10.29061 -10.28714 -10.28696 -10.28664
 Alpha  occ. eigenvalues --  -10.28637 -10.28559 -10.28509 -10.28168 -10.28077
 Alpha  occ. eigenvalues --  -10.28042  -3.19885  -1.93480  -1.93026  -1.92845
 Alpha  occ. eigenvalues --   -1.19305  -1.18243  -1.11620  -1.10618  -1.10083
 Alpha  occ. eigenvalues --   -1.09476  -1.05871  -1.04760  -1.04352  -1.03512
 Alpha  occ. eigenvalues --   -0.93859  -0.92423  -0.91881  -0.91434  -0.90869
 Alpha  occ. eigenvalues --   -0.90755  -0.89925  -0.89797  -0.89281  -0.88821
 Alpha  occ. eigenvalues --   -0.88587  -0.87501  -0.86261  -0.85178  -0.84757
 Alpha  occ. eigenvalues --   -0.84493  -0.83532  -0.82996  -0.82616  -0.82351
 Alpha  occ. eigenvalues --   -0.81785  -0.80120  -0.79685  -0.78961  -0.77829
 Alpha  occ. eigenvalues --   -0.77804  -0.77723  -0.76978  -0.76937  -0.76107
 Alpha  occ. eigenvalues --   -0.75398  -0.74503  -0.73145  -0.72795  -0.71191
 Alpha  occ. eigenvalues --   -0.70440  -0.70188  -0.69196  -0.68946  -0.67337
 Alpha  occ. eigenvalues --   -0.67038  -0.66845  -0.66253  -0.66106  -0.65802
 Alpha  occ. eigenvalues --   -0.65580  -0.65322  -0.64459  -0.62956  -0.62210
 Alpha  occ. eigenvalues --   -0.61765  -0.61075  -0.60686  -0.60048  -0.59465
 Alpha  occ. eigenvalues --   -0.59293  -0.58637  -0.58120  -0.57747  -0.57405
 Alpha  occ. eigenvalues --   -0.57012  -0.56879  -0.56514  -0.56476  -0.55817
 Alpha  occ. eigenvalues --   -0.55618  -0.55532  -0.55048  -0.54923  -0.54608
 Alpha  occ. eigenvalues --   -0.54454  -0.54302  -0.54076  -0.53997  -0.53703
 Alpha  occ. eigenvalues --   -0.53457  -0.53295  -0.52881  -0.52759  -0.52207
 Alpha  occ. eigenvalues --   -0.52154  -0.52027  -0.51971  -0.51613  -0.51388
 Alpha  occ. eigenvalues --   -0.51339  -0.51180  -0.51085  -0.51005  -0.50699
 Alpha  occ. eigenvalues --   -0.50416  -0.50245  -0.49939  -0.49707  -0.49674
 Alpha  occ. eigenvalues --   -0.49581  -0.49168  -0.48779  -0.48556  -0.48351
 Alpha  occ. eigenvalues --   -0.48244  -0.48188  -0.48027  -0.47723  -0.47596
 Alpha  occ. eigenvalues --   -0.47329  -0.47176  -0.47010  -0.46879  -0.46868
 Alpha  occ. eigenvalues --   -0.46655  -0.46436  -0.46306  -0.46130  -0.46052
 Alpha  occ. eigenvalues --   -0.45633  -0.45559  -0.45188  -0.45049  -0.44897
 Alpha  occ. eigenvalues --   -0.44850  -0.44421  -0.44263  -0.44199  -0.44008
 Alpha  occ. eigenvalues --   -0.43711  -0.43427  -0.43282  -0.42933  -0.42790
 Alpha  occ. eigenvalues --   -0.42576  -0.42223  -0.42180  -0.42117  -0.42012
 Alpha  occ. eigenvalues --   -0.41548  -0.41194  -0.41001  -0.40644  -0.40507
 Alpha  occ. eigenvalues --   -0.40419  -0.40182  -0.39976  -0.39743  -0.39410
 Alpha  occ. eigenvalues --   -0.39006  -0.38983  -0.38516  -0.38386  -0.38146
 Alpha  occ. eigenvalues --   -0.38124  -0.38021  -0.36969  -0.36706  -0.36217
 Alpha  occ. eigenvalues --   -0.36070  -0.35819  -0.34681  -0.33489  -0.32417
 Alpha  occ. eigenvalues --   -0.32309  -0.32035  -0.31582  -0.31305  -0.26018
 Alpha  occ. eigenvalues --   -0.22378
 Alpha virt. eigenvalues --   -0.06818   0.00644   0.02582   0.04479   0.06062
 Alpha virt. eigenvalues --    0.06468   0.07628   0.08317   0.08788   0.10553
 Alpha virt. eigenvalues --    0.10840   0.10857   0.11659   0.11972   0.12554

 Mulliken charges:
               1
     1  Mg   0.962307
     2  C   -0.023031
     3  C   -0.085905
     4  C   -0.071163
     5  C   -0.092813
     6  N   -0.347522
     7  C    0.017406
     8  C   -0.099481
     9  C   -0.108615
    10  C    0.021471
    11  C    0.048130
    12  C    0.076336
    13  C    0.013430
    14  C    0.228451
    15  O   -0.231793
    16  O   -0.386251
    17  N   -0.474224
    18  C    0.199160
    19  C   -0.164258
    20  C   -0.044647
    21  C    0.162648
    22  C    0.075990
    23  C    0.004854
    24  O   -0.263648
    25  C    0.016856
    26  N   -0.402907
    27  C    0.081855
    28  C   -0.099719
    29  C   -0.047145
    30  C    0.046419
    31  C    0.024519
    32  C   -0.023268
    33  C   -0.048447
    34  N   -0.453484
    35  C    0.141885
    36  C   -0.183675
    37  C   -0.043693
    38  C    0.149171
    39  C    0.087731
    40  C    0.174970
    41  O   -0.237951
    42  C   -0.082316
    43  C    0.241794
    44  O   -0.223990
    45  O   -0.381064
    46  C    0.133801
    47  C    0.250856
    48  C   -0.168521
    49  C   -0.191288
    50  C    0.006380
    51  C    0.038318
    52  C   -0.015404
    53  C   -0.041860
    54  C   -0.146862
    55  C    0.017680
    56  C    0.016564
    57  C   -0.056749
    58  C    0.013064
    59  C   -0.249914
    60  C    0.029470
    61  C    0.037167
    62  C   -0.048538
    63  C    0.006442
    64  C   -0.224059
    65  C    0.031894
    66  C    0.008248
    67  H   -0.017782
    68  H    0.021568
    69  H    0.000682
    70  H    0.058126
    71  H    0.018251
    72  H    0.035433
    73  H    0.045505
    74  H    0.047351
    75  H    0.020803
    76  H    0.035730
    77  H    0.042193
    78  H    0.035469
    79  H    0.042748
    80  H    0.056407
    81  H    0.027871
    82  H    0.061191
    83  H    0.055339
    84  H    0.043291
    85  H    0.027285
    86  H    0.017946
    87  H    0.051283
    88  H    0.037368
    89  H    0.046087
    90  H    0.045504
    91  H    0.018544
    92  H    0.027461
    93  H    0.038463
    94  H    0.063185
    95  H    0.061429
    96  H    0.051007
    97  H    0.039566
    98  H    0.066374
    99  H    0.056788
   100  H    0.065943
   101  H    0.076700
   102  H    0.060995
   103  H    0.058694
   104  H    0.030553
   105  H    0.034998
   106  H    0.041319
   107  H    0.045722
   108  H    0.022379
   109  H    0.026983
   110  H    0.029948
   111  H    0.023917
   112  H    0.022753
   113  H    0.017437
   114  H    0.008305
   115  H    0.020282
   116  H    0.036897
   117  H    0.023210
   118  H    0.014804
   119  H    0.018548
   120  H    0.035688
   121  H    0.029896
   122  H    0.008029
   123  H    0.007665
   124  H    0.020186
   125  H    0.016350
   126  H    0.025785
   127  H    0.024484
   128  H    0.021144
   129  H   -0.002420
   130  H    0.024896
   131  H    0.019547
   132  H    0.014009
   133  H    0.012586
   134  H    0.016103
   135  H    0.038145
   136  H    0.020142
   137  H    0.033292
   138  H    0.026432
   139  H    0.018788
   140  H    0.029340
 Sum of Mulliken charges =  -0.00000

 Dipole moment (field-independent basis, Debye):
    X=              4.1822    Y=              3.3325    Z=             -1.0953  Tot=              5.4586
 Quadrupole moment (field-independent basis, Debye-Ang):
   XX=           -371.9514   YY=           -416.3871   ZZ=           -398.7214
   XY=              6.8734   XZ=             14.1914   YZ=             -0.2126

 Normal termination of Gaussian 16 at Wed May  4 04:35:12 2022.
