 Gaussian 16, Revision A.03,
 Gaussian 16:  ES64L-G16RevA.03 25-Dec-2016

 --------------------
 #p ZINDO=(nstates=5)
 --------------------

 ------------------------------
 step_1351_chromophore_19 ZINDO
 ------------------------------
 Symbolic Z-matrix:
 Charge =  0 Multiplicity = 1

                         Standard orientation:
 ---------------------------------------------------------------------
 Center     Atomic      Atomic             Coordinates (Angstroms)
 Number     Number       Type             X           Y           Z
 ---------------------------------------------------------------------
      1         12           0       -5.840404    0.397591   -0.289107
      2          6           0       -3.471005   -2.168675   -0.370830
      3          6           0       -3.342188    2.505880    0.743695
      4          6           0       -8.201240    2.650762    0.451675
      5          6           0       -8.402813   -2.073190   -0.706903
      6          7           0       -3.691214    0.240245    0.151361
      7          6           0       -2.947628   -0.937670    0.021602
      8          6           0       -1.494505   -0.641460    0.232822
      9          6           0       -1.545484    0.743891    1.041219
     10          6           0       -2.930638    1.212771    0.639375
     11          6           0       -1.136328    0.862950    2.488878
     12          6           0       -0.613386   -0.666745   -1.038056
     13          6           0        0.491543   -1.693272   -1.082002
     14          6           0        1.631738   -1.699353   -0.068950
     15          8           0        1.452845   -1.814404    1.104352
     16          8           0        2.863940   -1.580136   -0.731349
     17          7           0       -5.750887    2.394379    0.276782
     18          6           0       -4.636601    3.112379    0.661977
     19          6           0       -5.020937    4.435536    0.809082
     20          6           0       -6.378056    4.596531    0.659483
     21          6           0       -6.885561    3.154098    0.442392
     22          6           0       -3.995319    5.527920    1.029259
     23          6           0       -7.221590    5.807358    0.748156
     24          8           0       -8.445961    5.645533    0.619037
     25          6           0       -6.700390    7.224907    0.955640
     26          7           0       -7.909593    0.264398   -0.080610
     27          6           0       -8.631855    1.402689    0.249227
     28          6           0      -10.114266    1.013314    0.267981
     29          6           0      -10.219763   -0.293699   -0.446328
     30          6           0       -8.789736   -0.749592   -0.425447
     31          6           0      -10.718774    1.124898    1.758989
     32          6           0      -10.772018   -0.269287   -1.912278
     33          6           0       -9.869064    0.399063   -2.993795
     34          7           0       -5.972265   -1.673500   -0.576322
     35          6           0       -7.069523   -2.552683   -0.775079
     36          6           0       -6.596236   -3.912894   -0.888232
     37          6           0       -5.229555   -3.793532   -0.715967
     38          6           0       -4.835254   -2.406115   -0.545438
     39          6           0       -7.435460   -5.077683   -1.128579
     40          6           0       -3.981715   -4.591743   -0.669262
     41          8           0       -3.843662   -5.848251   -0.689903
     42          6           0       -2.764045   -3.517297   -0.441339
     43          6           0       -1.978904   -3.877472    0.766670
     44          8           0       -2.217425   -3.466916    1.860494
     45          8           0       -1.029917   -4.798800    0.439653
     46          6           0       -0.211973   -5.349769    1.592366
     47          6           0        3.927245   -1.465120    0.332583
     48          6           0        5.207574   -1.103078   -0.351390
     49          6           0        6.438120   -0.669032    0.100726
     50          6           0        6.705522   -0.758996    1.625827
     51          6           0        7.588473   -0.396941   -0.830345
     52          6           0        8.069265    1.054961   -0.993261
     53          6           0        8.704429    1.186108   -2.436816
     54          6           0        9.663263    2.362558   -2.588419
     55          6           0        8.909270    3.615967   -2.988736
     56          6           0       10.826006    2.053901   -3.562102
     57          6           0       12.217318    2.238823   -2.794396
     58          6           0       12.925677    0.844035   -2.535439
     59          6           0       13.207090    0.668194   -0.995681
     60          6           0       14.566267    0.017229   -0.685947
     61          6           0       12.044979    0.076424   -0.284606
     62          6           0       11.810648    0.897515    1.054151
     63          6           0       11.181297    0.028706    2.129833
     64          6           0       12.161069   -0.385711    3.320361
     65          6           0       11.996041   -1.799082    3.733578
     66          6           0       11.996223    0.582105    4.467844
     67          1           0       -2.456072    3.080432    1.021440
     68          1           0       -9.028225    3.329481    0.669251
     69          1           0       -9.238482   -2.737021   -0.940362
     70          1           0       -1.193525   -1.351132    1.004380
     71          1           0       -0.839235    1.434490    0.581130
     72          1           0       -1.757188    1.513530    3.105147
     73          1           0       -0.085438    1.149105    2.535707
     74          1           0       -1.343474   -0.115900    2.921235
     75          1           0       -0.139531    0.308944   -1.143013
     76          1           0       -1.191886   -0.634441   -1.960796
     77          1           0        0.836323   -1.829251   -2.107253
     78          1           0       -0.020176   -2.645912   -0.948322
     79          1           0       -4.112023    6.070548    1.968271
     80          1           0       -4.087962    6.178969    0.159412
     81          1           0       -2.993386    5.116291    1.145085
     82          1           0       -6.365871    7.227869    1.992606
     83          1           0       -7.465663    7.967428    0.730640
     84          1           0       -5.895570    7.460553    0.258168
     85          1           0      -10.655240    1.729900   -0.349889
     86          1           0      -10.862949   -0.927583    0.163385
     87          1           0       -9.955330    1.078552    2.534336
     88          1           0      -11.482188    0.349335    1.826453
     89          1           0      -11.138871    2.127357    1.845334
     90          1           0      -11.808262    0.060394   -1.984559
     91          1           0      -10.657882   -1.327837   -2.148446
     92          1           0      -10.575202    0.806113   -3.718839
     93          1           0       -9.408731   -0.372980   -3.610993
     94          1           0       -9.231837    1.189302   -2.598358
     95          1           0       -6.821333   -5.968534   -0.992366
     96          1           0       -7.951695   -4.985157   -2.083574
     97          1           0       -8.218959   -5.149396   -0.373565
     98          1           0       -2.035383   -3.462394   -1.249516
     99          1           0        0.605868   -4.630077    1.619903
    100          1           0        0.206521   -6.319526    1.323153
    101          1           0       -0.776960   -5.348552    2.524522
    102          1           0        3.995228   -2.357918    0.953721
    103          1           0        3.722613   -0.618225    0.986643
    104          1           0        5.065115   -1.034139   -1.429263
    105          1           0        5.838566   -0.773181    2.286593
    106          1           0        7.444750   -0.024463    1.946001
    107          1           0        7.137237   -1.748643    1.770612
    108          1           0        7.358886   -0.878473   -1.780967
    109          1           0        8.379330   -1.052973   -0.465411
    110          1           0        8.656939    1.409274   -0.145233
    111          1           0        7.253960    1.770071   -1.100014
    112          1           0        7.873065    1.290161   -3.132850
    113          1           0        9.161413    0.233889   -2.706999
    114          1           0       10.153650    2.471496   -1.621669
    115          1           0        8.014665    3.649878   -2.366948
    116          1           0        8.625189    3.747326   -4.032845
    117          1           0        9.540446    4.473361   -2.756516
    118          1           0       10.887449    2.745048   -4.402035
    119          1           0       10.797329    1.036948   -3.954501
    120          1           0       12.070268    2.727245   -1.830268
    121          1           0       12.862205    2.739960   -3.515237
    122          1           0       13.843671    0.676670   -3.098714
    123          1           0       12.291682    0.035919   -2.901094
    124          1           0       13.296044    1.682792   -0.607644
    125          1           0       14.461919   -0.913408   -0.128457
    126          1           0       15.190375    0.626112   -0.032022
    127          1           0       15.081585   -0.149035   -1.631871
    128          1           0       12.107548   -1.011774   -0.293468
    129          1           0       11.212572    0.292300   -0.954804
    130          1           0       11.311691    1.835322    0.811003
    131          1           0       12.805970    1.209238    1.369955
    132          1           0       10.780340   -0.846814    1.620164
    133          1           0       10.308705    0.555703    2.515298
    134          1           0       13.130406   -0.248779    2.843716
    135          1           0       10.928636   -2.005430    3.652704
    136          1           0       12.285071   -1.917188    4.778624
    137          1           0       12.758925   -2.329751    3.165314
    138          1           0       11.473801    0.138524    5.315781
    139          1           0       11.433767    1.469108    4.174061
    140          1           0       12.955332    0.966707    4.812856
 ---------------------------------------------------------------------

 SCF Done:  E(RZINDO/S) =  -474.379249013     A.U. after   18 cycles

 Excitation energies and oscillator strengths:

 Excited State   1:      Singlet-A      1.2060 eV 1028.07 nm  f=0.6584  <S**2>=0.000
     175 ->178         0.18100
     176 ->177         0.66572
 This state for optimization and/or second-order correction.
 Total Energy, E(CIS/TDA) =  -474.334929757
 Copying the excited state density for this state as the 1-particle RhoCI density.

 Excited State   2:      Singlet-A      1.9713 eV  628.96 nm  f=0.0279  <S**2>=0.000
     175 ->177         0.52546
     176 ->178        -0.44959

 Excited State   3:      Singlet-A      2.9083 eV  426.31 nm  f=0.0055  <S**2>=0.000
     169 ->177         0.23940
     169 ->178        -0.10346
     169 ->179         0.25882
     169 ->180         0.28345
     169 ->186         0.13341
     169 ->187         0.12732
     176 ->179         0.40962

 Excited State   4:      Singlet-A      2.9101 eV  426.04 nm  f=0.0333  <S**2>=0.000
     169 ->177        -0.19923
     169 ->179        -0.18522
     169 ->180        -0.23840
     176 ->178         0.13559
     176 ->179         0.50748

 Excited State   5:      Singlet-A      2.9888 eV  414.83 nm  f=0.8061  <S**2>=0.000
     168 ->179        -0.10412
     171 ->177        -0.13246
     175 ->177         0.37797
     176 ->178         0.46996
     176 ->179        -0.13265
     176 ->180        -0.20155

 The electronic state is 1-A.
 Alpha  occ. eigenvalues --   -1.83354  -1.81732  -1.80550  -1.72927  -1.71827
 Alpha  occ. eigenvalues --   -1.70834  -1.67850  -1.60999  -1.57731  -1.56048
 Alpha  occ. eigenvalues --   -1.54325  -1.52483  -1.49107  -1.48461  -1.45985
 Alpha  occ. eigenvalues --   -1.44122  -1.43563  -1.39704  -1.38807  -1.38680
 Alpha  occ. eigenvalues --   -1.36484  -1.34258  -1.33231  -1.32369  -1.29080
 Alpha  occ. eigenvalues --   -1.28072  -1.24778  -1.21642  -1.20338  -1.18062
 Alpha  occ. eigenvalues --   -1.17288  -1.16269  -1.14810  -1.14093  -1.13341
 Alpha  occ. eigenvalues --   -1.13124  -1.10906  -1.10056  -1.05382  -1.03752
 Alpha  occ. eigenvalues --   -1.02735  -1.01540  -1.00211  -0.97991  -0.97333
 Alpha  occ. eigenvalues --   -0.95790  -0.94184  -0.93553  -0.92738  -0.92365
 Alpha  occ. eigenvalues --   -0.91000  -0.89859  -0.89413  -0.87261  -0.86655
 Alpha  occ. eigenvalues --   -0.85510  -0.85112  -0.82168  -0.82140  -0.80303
 Alpha  occ. eigenvalues --   -0.79166  -0.77890  -0.76687  -0.76568  -0.75295
 Alpha  occ. eigenvalues --   -0.74757  -0.74558  -0.74158  -0.73933  -0.72899
 Alpha  occ. eigenvalues --   -0.72719  -0.72151  -0.71619  -0.71304  -0.70434
 Alpha  occ. eigenvalues --   -0.69882  -0.69243  -0.68737  -0.68077  -0.67741
 Alpha  occ. eigenvalues --   -0.67453  -0.66924  -0.66764  -0.66328  -0.65673
 Alpha  occ. eigenvalues --   -0.65079  -0.64357  -0.64252  -0.63646  -0.63173
 Alpha  occ. eigenvalues --   -0.63066  -0.62991  -0.62561  -0.62035  -0.61901
 Alpha  occ. eigenvalues --   -0.61568  -0.60902  -0.60735  -0.60468  -0.60122
 Alpha  occ. eigenvalues --   -0.59691  -0.59351  -0.59141  -0.58488  -0.58398
 Alpha  occ. eigenvalues --   -0.57424  -0.57264  -0.56991  -0.56690  -0.56566
 Alpha  occ. eigenvalues --   -0.56372  -0.56299  -0.55859  -0.55191  -0.54937
 Alpha  occ. eigenvalues --   -0.54050  -0.54024  -0.53870  -0.53210  -0.53022
 Alpha  occ. eigenvalues --   -0.52665  -0.52335  -0.52182  -0.51594  -0.51365
 Alpha  occ. eigenvalues --   -0.50791  -0.50505  -0.50255  -0.50198  -0.49556
 Alpha  occ. eigenvalues --   -0.49351  -0.49125  -0.49003  -0.48920  -0.48687
 Alpha  occ. eigenvalues --   -0.48501  -0.48139  -0.48007  -0.47899  -0.47652
 Alpha  occ. eigenvalues --   -0.47134  -0.46962  -0.46847  -0.46339  -0.46000
 Alpha  occ. eigenvalues --   -0.45812  -0.45389  -0.45066  -0.44966  -0.44723
 Alpha  occ. eigenvalues --   -0.44721  -0.44149  -0.44051  -0.43890  -0.43736
 Alpha  occ. eigenvalues --   -0.43551  -0.43280  -0.42885  -0.42639  -0.42561
 Alpha  occ. eigenvalues --   -0.41723  -0.41710  -0.41181  -0.39105  -0.38624
 Alpha  occ. eigenvalues --   -0.37989  -0.36675  -0.35135  -0.34821  -0.34293
 Alpha  occ. eigenvalues --   -0.33013  -0.32658  -0.32497  -0.31572  -0.26818
 Alpha  occ. eigenvalues --   -0.21191
 Alpha virt. eigenvalues --   -0.08322  -0.01607  -0.00424   0.01367   0.01849
 Alpha virt. eigenvalues --    0.02567   0.03376   0.03515   0.04418   0.05325
 Alpha virt. eigenvalues --    0.06901   0.07173   0.07980   0.08159   0.08588

 Mulliken charges:
               1
     1  Mg   0.418142
     2  C   -0.039182
     3  C   -0.080171
     4  C   -0.050809
     5  C   -0.073590
     6  N   -0.281222
     7  C    0.126789
     8  C    0.005170
     9  C    0.000071
    10  C    0.146694
    11  C   -0.041649
    12  C   -0.007055
    13  C    0.003321
    14  C    0.475108
    15  O   -0.495080
    16  O   -0.274279
    17  N   -0.321930
    18  C    0.104678
    19  C    0.028304
    20  C   -0.050147
    21  C    0.139733
    22  C   -0.053398
    23  C    0.322541
    24  O   -0.544467
    25  C   -0.026655
    26  N   -0.290181
    27  C    0.140971
    28  C   -0.001928
    29  C    0.012258
    30  C    0.133899
    31  C   -0.054963
    32  C   -0.032962
    33  C   -0.059036
    34  N   -0.329033
    35  C    0.087324
    36  C    0.049636
    37  C   -0.051349
    38  C    0.113390
    39  C   -0.031980
    40  C    0.319304
    41  O   -0.524576
    42  C    0.053582
    43  C    0.496121
    44  O   -0.514504
    45  O   -0.277258
    46  C    0.070964
    47  C    0.110698
    48  C   -0.094754
    49  C   -0.022101
    50  C   -0.049569
    51  C   -0.009812
    52  C   -0.032744
    53  C   -0.035142
    54  C   -0.006612
    55  C   -0.050767
    56  C   -0.044755
    57  C   -0.051028
    58  C   -0.046385
    59  C   -0.015206
    60  C   -0.060177
    61  C   -0.037120
    62  C   -0.035532
    63  C   -0.039410
    64  C   -0.007381
    65  C   -0.054793
    66  C   -0.051846
    67  H    0.016664
    68  H    0.044875
    69  H    0.026562
    70  H    0.047128
    71  H    0.013711
    72  H    0.024366
    73  H    0.026873
    74  H    0.026701
    75  H    0.013968
    76  H    0.026891
    77  H    0.027235
    78  H    0.035310
    79  H    0.026268
    80  H    0.033180
    81  H    0.020502
    82  H    0.043506
    83  H    0.039846
    84  H    0.030954
    85  H    0.020328
    86  H    0.023915
    87  H    0.031608
    88  H    0.024827
    89  H    0.023408
    90  H    0.029394
    91  H    0.013819
    92  H    0.008952
    93  H    0.025906
    94  H    0.038828
    95  H    0.036375
    96  H    0.036125
    97  H    0.026264
    98  H    0.051719
    99  H    0.038394
   100  H    0.041068
   101  H    0.059845
   102  H    0.059465
   103  H    0.050170
   104  H    0.021008
   105  H    0.027657
   106  H    0.023129
   107  H    0.023625
   108  H    0.022017
   109  H    0.020729
   110  H    0.031515
   111  H    0.018138
   112  H    0.016595
   113  H    0.015016
   114  H    0.025120
   115  H    0.013312
   116  H    0.026473
   117  H    0.009946
   118  H    0.016900
   119  H    0.024640
   120  H    0.036971
   121  H    0.019285
   122  H    0.016815
   123  H    0.015610
   124  H    0.013360
   125  H    0.015719
   126  H    0.015738
   127  H    0.020540
   128  H    0.030612
   129  H    0.008198
   130  H    0.024559
   131  H    0.016414
   132  H    0.013334
   133  H    0.012927
   134  H    0.018385
   135  H    0.031623
   136  H    0.011034
   137  H    0.025528
   138  H    0.019560
   139  H    0.012436
   140  H    0.014428
 Sum of Mulliken charges =  -0.00000

 Dipole moment (field-independent basis, Debye):
    X=              4.6862    Y=              4.7943    Z=             -2.3004  Tot=              7.0878
 N-N= 4.323331851036D+03 E-N= 0.000000000000D+00  KE=-9.321634736164D+03
 Leave Link  601 at Wed May  4 04:47:02 2022, MaxMem=  6710886400 cpu:               0.8 elap:               0.1
 (Enter /sw/apps/gaussian-16.0/g16/l9999.exe)
 1\1\GINC-BP1-COMPUTE057\SP\RZINDO CIS\STO-3G\C55H74Mg1N4O6\OF15641\04-
 May-2022\0\\#p ZINDO=(nstates=5)\\step_1351_chromophore_19 ZINDO\\0,1\
 Mg,0,25.708,50.222,26.143\C,0,23.728,51.567,28.688\C,0,28.06,49.489,28
 .527\C,0,27.861,49.583,23.662\C,0,23.461,51.664,23.752\N,0,25.92,50.48
 ,28.317\C,0,24.944,51.055,29.138\C,0,25.345,50.91,30.574\C,0,26.928,50
 .672,30.461\C,0,27.002,50.184,29.027\C,0,27.944,51.684,30.931\C,0,24.5
 47,49.867,31.391\C,0,23.752,50.383,32.565\C,0,24.416,51.075,33.751\O,0

 Normal termination of Gaussian 16 at Wed May  4 04:47:02 2022.
