 Gaussian 16, Revision A.03,
 Gaussian 16:  ES64L-G16RevA.03 25-Dec-2016

 ------------------------------
 #p blyp/Def2SVP td=(nstates=5)
 ------------------------------

 --------------------------------------------------
 step_651_chromophore_20 TDDFT with blyp functional
 --------------------------------------------------
 Symbolic Z-matrix:
 Charge =  0 Multiplicity = 1

                         Standard orientation:
 ---------------------------------------------------------------------
 Center     Atomic      Atomic             Coordinates (Angstroms)
 Number     Number       Type             X           Y           Z
 ---------------------------------------------------------------------
      1         12           0        4.081689    1.197336   -0.533730
      2          6           0        3.918566   -2.375312   -0.753382
      3          6           0        1.355726    1.302880   -2.570925
      4          6           0        3.828750    4.530665    0.128486
      5          6           0        6.641111    0.855695    1.846794
      6          7           0        2.699709   -0.355390   -1.383837
      7          6           0        2.851555   -1.733664   -1.440921
      8          6           0        1.870001   -2.352796   -2.451403
      9          6           0        1.447434   -1.087487   -3.307167
     10          6           0        1.838335    0.029916   -2.381742
     11          6           0        2.200292   -0.929054   -4.718766
     12          6           0        0.613245   -2.816156   -1.652005
     13          6           0        0.092991   -4.271819   -1.947498
     14          6           0       -1.285623   -4.323459   -2.411404
     15          8           0       -1.661363   -4.323150   -3.560381
     16          8           0       -2.199908   -4.294363   -1.342790
     17          7           0        2.780239    2.731167   -1.136072
     18          6           0        1.702214    2.561759   -1.952964
     19          6           0        1.231652    3.843912   -2.403097
     20          6           0        2.038582    4.845249   -1.744285
     21          6           0        2.990005    4.042280   -0.906326
     22          6           0        0.089886    3.974689   -3.451226
     23          6           0        1.757479    6.405210   -1.894054
     24          8           0        0.971829    6.825571   -2.743980
     25          6           0        2.567366    7.396109   -0.980402
     26          7           0        5.067144    2.498403    0.895495
     27          6           0        4.790242    3.852578    0.894630
     28          6           0        5.624751    4.553589    1.951197
     29          6           0        6.582318    3.392899    2.457445
     30          6           0        6.118141    2.136588    1.704174
     31          6           0        6.425904    5.767340    1.444627
     32          6           0        6.432761    3.204180    4.039094
     33          6           0        7.491548    3.834143    4.893344
     34          7           0        5.155334   -0.431699    0.325694
     35          6           0        6.201414   -0.354288    1.255426
     36          6           0        6.634639   -1.691989    1.403034
     37          6           0        5.879072   -2.512786    0.531035
     38          6           0        4.892123   -1.669189    0.001734
     39          6           0        7.640830   -2.149073    2.517172
     40          6           0        5.670797   -3.890001    0.041262
     41          8           0        6.227170   -4.974063    0.323851
     42          6           0        4.350608   -3.772596   -0.885810
     43          6           0        3.406529   -4.688540   -0.275858
     44          8           0        2.886292   -4.542732    0.791482
     45          8           0        3.219002   -5.817257   -1.057389
     46          6           0        2.376262   -6.805739   -0.414548
     47          6           0       -3.572462   -4.544900   -1.659544
     48          6           0       -4.390700   -4.530756   -0.332117
     49          6           0       -4.202295   -5.236654    0.848346
     50          6           0       -3.264690   -6.449493    0.965741
     51          6           0       -5.121094   -4.861987    1.998904
     52          6           0       -4.873489   -3.533094    2.794082
     53          6           0       -5.859185   -2.430690    2.249668
     54          6           0       -6.755399   -1.702795    3.323610
     55          6           0       -7.495666   -2.661383    4.264603
     56          6           0       -7.662472   -0.612215    2.626092
     57          6           0       -7.579754    0.812761    3.144765
     58          6           0       -6.668368    1.718407    2.288439
     59          6           0       -7.386000    2.261116    1.024473
     60          6           0       -6.374709    2.387861   -0.131389
     61          6           0       -8.005761    3.685986    1.293892
     62          6           0       -9.532907    3.480326    1.073451
     63          6           0      -10.170816    4.182813   -0.246382
     64          6           0      -10.524350    3.116390   -1.258701
     65          6           0      -10.201945    3.727542   -2.682316
     66          6           0      -12.102661    2.735868   -1.205759
     67          1           0        0.616640    1.330085   -3.374784
     68          1           0        3.743486    5.613505    0.231358
     69          1           0        7.440652    0.829348    2.589772
     70          1           0        2.292207   -3.158917   -3.050142
     71          1           0        0.415342   -1.063782   -3.656722
     72          1           0        1.480388   -0.812712   -5.528438
     73          1           0        2.746265   -1.850701   -4.919689
     74          1           0        2.873400   -0.083147   -4.573382
     75          1           0       -0.194887   -2.090274   -1.747384
     76          1           0        0.823156   -2.782879   -0.582863
     77          1           0        0.165630   -4.896813   -1.057952
     78          1           0        0.723468   -4.692414   -2.730267
     79          1           0       -0.802243    3.783048   -2.855507
     80          1           0        0.089046    3.218669   -4.236762
     81          1           0       -0.019200    4.911977   -3.997267
     82          1           0        3.644976    7.399106   -1.148653
     83          1           0        2.233189    7.247121    0.046289
     84          1           0        2.317229    8.424256   -1.238390
     85          1           0        4.941927    4.849855    2.747693
     86          1           0        7.584896    3.705642    2.165735
     87          1           0        5.799639    6.620629    1.705885
     88          1           0        6.612258    5.678554    0.373936
     89          1           0        7.360820    5.814012    2.002026
     90          1           0        6.495762    2.152579    4.319612
     91          1           0        5.457738    3.439369    4.465186
     92          1           0        8.032233    2.991982    5.324604
     93          1           0        7.135503    4.412723    5.746161
     94          1           0        8.286497    4.373986    4.380621
     95          1           0        7.519494   -3.232214    2.532887
     96          1           0        7.416251   -1.707933    3.487807
     97          1           0        8.661062   -1.901365    2.226455
     98          1           0        4.605778   -4.040116   -1.911728
     99          1           0        1.405795   -6.386835   -0.146371
    100          1           0        2.970284   -7.281713    0.366067
    101          1           0        2.262498   -7.656456   -1.086192
    102          1           0       -3.786302   -5.450516   -2.226939
    103          1           0       -3.983623   -3.786235   -2.326189
    104          1           0       -5.026985   -3.651766   -0.228672
    105          1           0       -2.816152   -6.645199   -0.009212
    106          1           0       -3.970490   -7.238441    1.223614
    107          1           0       -2.451613   -6.413897    1.691004
    108          1           0       -5.099408   -5.664133    2.737046
    109          1           0       -6.140550   -4.832148    1.614972
    110          1           0       -3.834815   -3.226782    2.671173
    111          1           0       -5.067427   -3.711548    3.851996
    112          1           0       -6.393767   -2.644331    1.323562
    113          1           0       -5.173210   -1.633426    1.962370
    114          1           0       -6.074694   -1.140444    3.962845
    115          1           0       -8.576062   -2.521139    4.221006
    116          1           0       -7.185720   -2.541419    5.303079
    117          1           0       -7.353941   -3.690007    3.933200
    118          1           0       -8.685443   -0.986889    2.666357
    119          1           0       -7.407262   -0.445380    1.578940
    120          1           0       -7.278710    0.797653    4.192256
    121          1           0       -8.553914    1.295651    3.064845
    122          1           0       -5.811662    1.124583    1.968493
    123          1           0       -6.327257    2.570630    2.876797
    124          1           0       -8.062056    1.462419    0.719189
    125          1           0       -5.456666    2.727330    0.348978
    126          1           0       -6.638007    3.049013   -0.956074
    127          1           0       -6.166278    1.394809   -0.529492
    128          1           0       -7.562446    4.502062    0.723812
    129          1           0       -7.847208    3.952022    2.338624
    130          1           0       -9.985749    3.948555    1.947792
    131          1           0       -9.968426    2.491000    1.213715
    132          1           0       -9.384522    4.831600   -0.634395
    133          1           0      -11.008900    4.707515    0.213583
    134          1           0       -9.968160    2.198327   -1.070045
    135          1           0       -9.672073    2.959173   -3.244370
    136          1           0       -9.587850    4.627172   -2.627988
    137          1           0      -11.108138    4.054104   -3.191788
    138          1           0      -12.281191    1.902050   -0.527229
    139          1           0      -12.308867    2.537567   -2.257288
    140          1           0      -12.709753    3.569835   -0.852904
 ---------------------------------------------------------------------

 SCF Done:  E(RB-LYP) =  -3007.37079120     A.U. after   20 cycles

 Excitation energies and oscillator strengths:

 Excited State   1:      Singlet-A      1.8088 eV  685.45 nm  f=0.3023  <S**2>=0.000
     245 -> 248       -0.17789
     246 -> 247        0.69058
     246 <- 247       -0.15039
 This state for optimization and/or second-order correction.
 Total Energy, E(TD-HF/TD-DFT) =  -3007.30431940
 Copying the excited state density for this state as the 1-particle RhoCI density.

 Excited State   2:      Singlet-A      1.9210 eV  645.42 nm  f=0.0181  <S**2>=0.000
     244 -> 247        0.60247
     245 -> 247       -0.34343

 Excited State   3:      Singlet-A      1.9675 eV  630.16 nm  f=0.0019  <S**2>=0.000
     243 -> 247        0.70011

 Excited State   4:      Singlet-A      1.9861 eV  624.27 nm  f=0.0120  <S**2>=0.000
     242 -> 247        0.60948
     244 -> 247        0.23239
     245 -> 247        0.24522

 Excited State   5:      Singlet-A      2.0307 eV  610.55 nm  f=0.0639  <S**2>=0.000
     242 -> 247       -0.34688
     244 -> 247        0.26640
     245 -> 247        0.50143
     246 -> 248        0.17579

 The electronic state is 1-A.
 Alpha  occ. eigenvalues --  -46.28226 -18.81679 -18.81152 -18.76799 -18.76792
 Alpha  occ. eigenvalues --  -18.76624 -18.76534 -14.03783 -14.03608 -14.01696
 Alpha  occ. eigenvalues --  -14.00886 -10.03550 -10.03341 -10.01520 -10.00721
 Alpha  occ. eigenvalues --   -9.97444  -9.97339  -9.97247  -9.97155  -9.97054
 Alpha  occ. eigenvalues --   -9.96696  -9.96571  -9.96047  -9.95769  -9.95115
 Alpha  occ. eigenvalues --   -9.94614  -9.94590  -9.94518  -9.94236  -9.94139
 Alpha  occ. eigenvalues --   -9.94032  -9.93940  -9.93756  -9.93744  -9.93660
 Alpha  occ. eigenvalues --   -9.93604  -9.93544  -9.93378  -9.93283  -9.93132
 Alpha  occ. eigenvalues --   -9.93033  -9.92992  -9.92986  -9.92935  -9.92315
 Alpha  occ. eigenvalues --   -9.92172  -9.92110  -9.92077  -9.92076  -9.91885
 Alpha  occ. eigenvalues --   -9.91799  -9.91577  -9.91461  -9.91407  -9.91406
 Alpha  occ. eigenvalues --   -9.91179  -9.91125  -9.91025  -9.90879  -9.90788
 Alpha  occ. eigenvalues --   -9.90745  -9.90719  -9.90632  -9.90627  -9.90593
 Alpha  occ. eigenvalues --   -9.90276  -2.92668  -1.73089  -1.72545  -1.72385
 Alpha  occ. eigenvalues --   -0.98278  -0.97403  -0.91709  -0.90620  -0.90185
 Alpha  occ. eigenvalues --   -0.89986  -0.87053  -0.86377  -0.85769  -0.85140
 Alpha  occ. eigenvalues --   -0.76172  -0.73077  -0.72963  -0.72419  -0.72206
 Alpha  occ. eigenvalues --   -0.72153  -0.71324  -0.71051  -0.70153  -0.69834
 Alpha  occ. eigenvalues --   -0.69250  -0.68854  -0.68205  -0.67828  -0.67210
 Alpha  occ. eigenvalues --   -0.66222  -0.65471  -0.65193  -0.64815  -0.64170
 Alpha  occ. eigenvalues --   -0.63740  -0.62574  -0.62227  -0.61573  -0.60834
 Alpha  occ. eigenvalues --   -0.60197  -0.60051  -0.59400  -0.59122  -0.58600
 Alpha  occ. eigenvalues --   -0.58386  -0.57483  -0.57200  -0.55953  -0.54383
 Alpha  occ. eigenvalues --   -0.53922  -0.53376  -0.53038  -0.52109  -0.51988
 Alpha  occ. eigenvalues --   -0.51657  -0.51338  -0.50887  -0.50428  -0.50100
 Alpha  occ. eigenvalues --   -0.49488  -0.48832  -0.48232  -0.47910  -0.46752
 Alpha  occ. eigenvalues --   -0.46533  -0.46309  -0.45667  -0.45414  -0.45062
 Alpha  occ. eigenvalues --   -0.44422  -0.44042  -0.43082  -0.42874  -0.42541
 Alpha  occ. eigenvalues --   -0.42303  -0.42131  -0.41688  -0.41390  -0.41012
 Alpha  occ. eigenvalues --   -0.40792  -0.40418  -0.40305  -0.40110  -0.40020
 Alpha  occ. eigenvalues --   -0.39840  -0.39468  -0.39194  -0.38824  -0.38745
 Alpha  occ. eigenvalues --   -0.38530  -0.38409  -0.38289  -0.38169  -0.38079
 Alpha  occ. eigenvalues --   -0.37893  -0.37772  -0.37708  -0.37494  -0.37241
 Alpha  occ. eigenvalues --   -0.37154  -0.37113  -0.36882  -0.36637  -0.36481
 Alpha  occ. eigenvalues --   -0.36166  -0.36056  -0.35864  -0.35624  -0.35553
 Alpha  occ. eigenvalues --   -0.35313  -0.35168  -0.34983  -0.34926  -0.34877
 Alpha  occ. eigenvalues --   -0.34617  -0.34478  -0.34400  -0.34112  -0.33931
 Alpha  occ. eigenvalues --   -0.33790  -0.33778  -0.33311  -0.33267  -0.33198
 Alpha  occ. eigenvalues --   -0.33017  -0.32727  -0.32634  -0.32499  -0.32355
 Alpha  occ. eigenvalues --   -0.32062  -0.31831  -0.31783  -0.31597  -0.31420
 Alpha  occ. eigenvalues --   -0.31267  -0.31173  -0.31138  -0.30980  -0.30634
 Alpha  occ. eigenvalues --   -0.30470  -0.30339  -0.30326  -0.30148  -0.29956
 Alpha  occ. eigenvalues --   -0.29811  -0.29677  -0.29527  -0.29462  -0.29293
 Alpha  occ. eigenvalues --   -0.29068  -0.28793  -0.28330  -0.28179  -0.27877
 Alpha  occ. eigenvalues --   -0.27324  -0.26860  -0.26633  -0.26563  -0.26399
 Alpha  occ. eigenvalues --   -0.26288  -0.25967  -0.25932  -0.25312  -0.25182
 Alpha  occ. eigenvalues --   -0.24835  -0.24302  -0.24139  -0.23685  -0.23398
 Alpha  occ. eigenvalues --   -0.22686  -0.22360  -0.22204  -0.21923  -0.20770
 Alpha  occ. eigenvalues --   -0.20590  -0.19534  -0.19498  -0.19272  -0.17744
 Alpha  occ. eigenvalues --   -0.16537
 Alpha virt. eigenvalues --   -0.12268  -0.07344  -0.06591  -0.05357  -0.03585
 Alpha virt. eigenvalues --   -0.03106  -0.02822  -0.02229  -0.01737  -0.00647
 Alpha virt. eigenvalues --    0.00793   0.01551   0.02359   0.02750   0.03012

 Mulliken charges:
               1
     1  Mg   0.675703
     2  C   -0.020235
     3  C   -0.051528
     4  C   -0.014466
     5  C   -0.050741
     6  N   -0.210005
     7  C   -0.054510
     8  C    0.017707
     9  C   -0.028903
    10  C    0.024448
    11  C    0.116570
    12  C    0.105534
    13  C    0.178327
    14  C    0.038327
    15  O   -0.180480
    16  O   -0.284808
    17  N   -0.275479
    18  C    0.138200
    19  C   -0.125325
    20  C   -0.024501
    21  C    0.087046
    22  C    0.160932
    23  C   -0.036568
    24  O   -0.149758
    25  C    0.107332
    26  N   -0.238940
    27  C    0.034425
    28  C   -0.003725
    29  C    0.059621
    30  C    0.010339
    31  C    0.129835
    32  C    0.079632
    33  C    0.064811
    34  N   -0.233425
    35  C    0.147235
    36  C   -0.192194
    37  C    0.070375
    38  C    0.088372
    39  C    0.158831
    40  C   -0.023964
    41  O   -0.155185
    42  C    0.097884
    43  C    0.075121
    44  O   -0.161648
    45  O   -0.276465
    46  C    0.226898
    47  C    0.317279
    48  C   -0.122570
    49  C   -0.135007
    50  C    0.141765
    51  C    0.107400
    52  C    0.102202
    53  C    0.039867
    54  C   -0.051534
    55  C    0.118483
    56  C    0.097428
    57  C    0.083486
    58  C    0.089494
    59  C   -0.104566
    60  C    0.094752
    61  C    0.157962
    62  C    0.004838
    63  C    0.134121
    64  C   -0.109253
    65  C    0.093350
    66  C    0.083800
    67  H   -0.065467
    68  H   -0.095518
    69  H   -0.060312
    70  H   -0.016406
    71  H   -0.016722
    72  H    0.004125
    73  H   -0.009296
    74  H    0.002991
    75  H   -0.003865
    76  H    0.003672
    77  H    0.001641
    78  H   -0.005951
    79  H    0.000148
    80  H   -0.007760
    81  H    0.012267
    82  H    0.025602
    83  H    0.025533
    84  H   -0.018028
    85  H   -0.012491
    86  H   -0.024102
    87  H   -0.001754
    88  H    0.000149
    89  H   -0.003719
    90  H   -0.028860
    91  H   -0.025987
    92  H   -0.020527
    93  H   -0.006846
    94  H   -0.014078
    95  H    0.011202
    96  H    0.002858
    97  H   -0.002830
    98  H   -0.005655
    99  H    0.021792
   100  H    0.012434
   101  H   -0.003291
   102  H   -0.008771
   103  H   -0.027295
   104  H   -0.026075
   105  H   -0.013983
   106  H   -0.000165
   107  H    0.008398
   108  H   -0.052273
   109  H   -0.009348
   110  H   -0.019179
   111  H   -0.025554
   112  H   -0.004040
   113  H   -0.034074
   114  H   -0.044592
   115  H   -0.027228
   116  H   -0.009008
   117  H   -0.015280
   118  H   -0.040043
   119  H   -0.038939
   120  H   -0.036154
   121  H   -0.040258
   122  H   -0.039236
   123  H   -0.036474
   124  H   -0.018628
   125  H   -0.021102
   126  H   -0.012956
   127  H   -0.026773
   128  H   -0.025997
   129  H   -0.038518
   130  H   -0.059997
   131  H   -0.027598
   132  H   -0.031764
   133  H   -0.022754
   134  H   -0.015265
   135  H   -0.010631
   136  H   -0.020244
   137  H   -0.016670
   138  H   -0.009306
   139  H   -0.008992
   140  H   -0.012127
 Sum of Mulliken charges =  -0.00000

 Dipole moment (field-independent basis, Debye):
    X=              1.2545    Y=              2.8352    Z=              2.0128  Tot=              3.6964
 Quadrupole moment (field-independent basis, Debye-Ang):
   XX=           -392.6472   YY=           -417.0207   ZZ=           -404.1085
   XY=             41.4965   XZ=             -2.9219   YZ=             17.5297

 Normal termination of Gaussian 16 at Thu May  5 06:07:40 2022.
