 Gaussian 16, Revision A.03,
 Gaussian 16:  ES64L-G16RevA.03 25-Dec-2016

 -----------------------------------
 #p cam-b3lyp/Def2SVP td=(nstates=5)
 -----------------------------------

 -------------------------------------------------------
 step_651_chromophore_20 TDDFT with cam-b3lyp functional
 -------------------------------------------------------
 Symbolic Z-matrix:
 Charge =  0 Multiplicity = 1

                         Standard orientation:
 ---------------------------------------------------------------------
 Center     Atomic      Atomic             Coordinates (Angstroms)
 Number     Number       Type             X           Y           Z
 ---------------------------------------------------------------------
      1         12           0        4.081689    1.197336   -0.533730
      2          6           0        3.918566   -2.375312   -0.753382
      3          6           0        1.355726    1.302880   -2.570925
      4          6           0        3.828750    4.530665    0.128486
      5          6           0        6.641111    0.855695    1.846794
      6          7           0        2.699709   -0.355390   -1.383837
      7          6           0        2.851555   -1.733664   -1.440921
      8          6           0        1.870001   -2.352796   -2.451403
      9          6           0        1.447434   -1.087487   -3.307167
     10          6           0        1.838335    0.029916   -2.381742
     11          6           0        2.200292   -0.929054   -4.718766
     12          6           0        0.613245   -2.816156   -1.652005
     13          6           0        0.092991   -4.271819   -1.947498
     14          6           0       -1.285623   -4.323459   -2.411404
     15          8           0       -1.661363   -4.323150   -3.560381
     16          8           0       -2.199908   -4.294363   -1.342790
     17          7           0        2.780239    2.731167   -1.136072
     18          6           0        1.702214    2.561759   -1.952964
     19          6           0        1.231652    3.843912   -2.403097
     20          6           0        2.038582    4.845249   -1.744285
     21          6           0        2.990005    4.042280   -0.906326
     22          6           0        0.089886    3.974689   -3.451226
     23          6           0        1.757479    6.405210   -1.894054
     24          8           0        0.971829    6.825571   -2.743980
     25          6           0        2.567366    7.396109   -0.980402
     26          7           0        5.067144    2.498403    0.895495
     27          6           0        4.790242    3.852578    0.894630
     28          6           0        5.624751    4.553589    1.951197
     29          6           0        6.582318    3.392899    2.457445
     30          6           0        6.118141    2.136588    1.704174
     31          6           0        6.425904    5.767340    1.444627
     32          6           0        6.432761    3.204180    4.039094
     33          6           0        7.491548    3.834143    4.893344
     34          7           0        5.155334   -0.431699    0.325694
     35          6           0        6.201414   -0.354288    1.255426
     36          6           0        6.634639   -1.691989    1.403034
     37          6           0        5.879072   -2.512786    0.531035
     38          6           0        4.892123   -1.669189    0.001734
     39          6           0        7.640830   -2.149073    2.517172
     40          6           0        5.670797   -3.890001    0.041262
     41          8           0        6.227170   -4.974063    0.323851
     42          6           0        4.350608   -3.772596   -0.885810
     43          6           0        3.406529   -4.688540   -0.275858
     44          8           0        2.886292   -4.542732    0.791482
     45          8           0        3.219002   -5.817257   -1.057389
     46          6           0        2.376262   -6.805739   -0.414548
     47          6           0       -3.572462   -4.544900   -1.659544
     48          6           0       -4.390700   -4.530756   -0.332117
     49          6           0       -4.202295   -5.236654    0.848346
     50          6           0       -3.264690   -6.449493    0.965741
     51          6           0       -5.121094   -4.861987    1.998904
     52          6           0       -4.873489   -3.533094    2.794082
     53          6           0       -5.859185   -2.430690    2.249668
     54          6           0       -6.755399   -1.702795    3.323610
     55          6           0       -7.495666   -2.661383    4.264603
     56          6           0       -7.662472   -0.612215    2.626092
     57          6           0       -7.579754    0.812761    3.144765
     58          6           0       -6.668368    1.718407    2.288439
     59          6           0       -7.386000    2.261116    1.024473
     60          6           0       -6.374709    2.387861   -0.131389
     61          6           0       -8.005761    3.685986    1.293892
     62          6           0       -9.532907    3.480326    1.073451
     63          6           0      -10.170816    4.182813   -0.246382
     64          6           0      -10.524350    3.116390   -1.258701
     65          6           0      -10.201945    3.727542   -2.682316
     66          6           0      -12.102661    2.735868   -1.205759
     67          1           0        0.616640    1.330085   -3.374784
     68          1           0        3.743486    5.613505    0.231358
     69          1           0        7.440652    0.829348    2.589772
     70          1           0        2.292207   -3.158917   -3.050142
     71          1           0        0.415342   -1.063782   -3.656722
     72          1           0        1.480388   -0.812712   -5.528438
     73          1           0        2.746265   -1.850701   -4.919689
     74          1           0        2.873400   -0.083147   -4.573382
     75          1           0       -0.194887   -2.090274   -1.747384
     76          1           0        0.823156   -2.782879   -0.582863
     77          1           0        0.165630   -4.896813   -1.057952
     78          1           0        0.723468   -4.692414   -2.730267
     79          1           0       -0.802243    3.783048   -2.855507
     80          1           0        0.089046    3.218669   -4.236762
     81          1           0       -0.019200    4.911977   -3.997267
     82          1           0        3.644976    7.399106   -1.148653
     83          1           0        2.233189    7.247121    0.046289
     84          1           0        2.317229    8.424256   -1.238390
     85          1           0        4.941927    4.849855    2.747693
     86          1           0        7.584896    3.705642    2.165735
     87          1           0        5.799639    6.620629    1.705885
     88          1           0        6.612258    5.678554    0.373936
     89          1           0        7.360820    5.814012    2.002026
     90          1           0        6.495762    2.152579    4.319612
     91          1           0        5.457738    3.439369    4.465186
     92          1           0        8.032233    2.991982    5.324604
     93          1           0        7.135503    4.412723    5.746161
     94          1           0        8.286497    4.373986    4.380621
     95          1           0        7.519494   -3.232214    2.532887
     96          1           0        7.416251   -1.707933    3.487807
     97          1           0        8.661062   -1.901365    2.226455
     98          1           0        4.605778   -4.040116   -1.911728
     99          1           0        1.405795   -6.386835   -0.146371
    100          1           0        2.970284   -7.281713    0.366067
    101          1           0        2.262498   -7.656456   -1.086192
    102          1           0       -3.786302   -5.450516   -2.226939
    103          1           0       -3.983623   -3.786235   -2.326189
    104          1           0       -5.026985   -3.651766   -0.228672
    105          1           0       -2.816152   -6.645199   -0.009212
    106          1           0       -3.970490   -7.238441    1.223614
    107          1           0       -2.451613   -6.413897    1.691004
    108          1           0       -5.099408   -5.664133    2.737046
    109          1           0       -6.140550   -4.832148    1.614972
    110          1           0       -3.834815   -3.226782    2.671173
    111          1           0       -5.067427   -3.711548    3.851996
    112          1           0       -6.393767   -2.644331    1.323562
    113          1           0       -5.173210   -1.633426    1.962370
    114          1           0       -6.074694   -1.140444    3.962845
    115          1           0       -8.576062   -2.521139    4.221006
    116          1           0       -7.185720   -2.541419    5.303079
    117          1           0       -7.353941   -3.690007    3.933200
    118          1           0       -8.685443   -0.986889    2.666357
    119          1           0       -7.407262   -0.445380    1.578940
    120          1           0       -7.278710    0.797653    4.192256
    121          1           0       -8.553914    1.295651    3.064845
    122          1           0       -5.811662    1.124583    1.968493
    123          1           0       -6.327257    2.570630    2.876797
    124          1           0       -8.062056    1.462419    0.719189
    125          1           0       -5.456666    2.727330    0.348978
    126          1           0       -6.638007    3.049013   -0.956074
    127          1           0       -6.166278    1.394809   -0.529492
    128          1           0       -7.562446    4.502062    0.723812
    129          1           0       -7.847208    3.952022    2.338624
    130          1           0       -9.985749    3.948555    1.947792
    131          1           0       -9.968426    2.491000    1.213715
    132          1           0       -9.384522    4.831600   -0.634395
    133          1           0      -11.008900    4.707515    0.213583
    134          1           0       -9.968160    2.198327   -1.070045
    135          1           0       -9.672073    2.959173   -3.244370
    136          1           0       -9.587850    4.627172   -2.627988
    137          1           0      -11.108138    4.054104   -3.191788
    138          1           0      -12.281191    1.902050   -0.527229
    139          1           0      -12.308867    2.537567   -2.257288
    140          1           0      -12.709753    3.569835   -0.852904
 ---------------------------------------------------------------------

 SCF Done:  E(RCAM-B3LYP) =  -3007.15373626     A.U. after   17 cycles

 Excitation energies and oscillator strengths:

 Excited State   1:      Singlet-A      1.6927 eV  732.45 nm  f=0.3743  <S**2>=0.000
     245 -> 248       -0.17430
     246 -> 247        0.68694
     245 <- 248       -0.10732
 This state for optimization and/or second-order correction.
 Total Energy, E(TD-HF/TD-DFT) =  -3007.09152958
 Copying the excited state density for this state as the 1-particle RhoCI density.

 Excited State   2:      Singlet-A      2.1808 eV  568.53 nm  f=0.1426  <S**2>=0.000
     245 -> 247        0.65239
     246 -> 248        0.25701

 Excited State   3:      Singlet-A      3.1944 eV  388.13 nm  f=0.0022  <S**2>=0.000
     242 -> 247       -0.17165
     243 -> 247        0.66066

 Excited State   4:      Singlet-A      3.3175 eV  373.73 nm  f=0.0065  <S**2>=0.000
     242 -> 247        0.66268
     243 -> 247        0.14411
     246 -> 248       -0.12030

 Excited State   5:      Singlet-A      3.5145 eV  352.78 nm  f=0.0009  <S**2>=0.000
     241 -> 247        0.57240
     241 -> 249        0.30330
     241 -> 251        0.16401
     243 -> 247        0.10881

 The electronic state is 1-A.
 Alpha  occ. eigenvalues --  -46.89857 -19.24646 -19.24039 -19.20167 -19.19894
 Alpha  occ. eigenvalues --  -19.19811 -19.19622 -14.42711 -14.42495 -14.40296
 Alpha  occ. eigenvalues --  -14.39126 -10.38894 -10.38775 -10.36986 -10.36147
 Alpha  occ. eigenvalues --  -10.31940 -10.31786 -10.31395 -10.31386 -10.31331
 Alpha  occ. eigenvalues --  -10.31218 -10.31125 -10.30605 -10.29730 -10.29194
 Alpha  occ. eigenvalues --  -10.29024 -10.28735 -10.28561 -10.28538 -10.28340
 Alpha  occ. eigenvalues --  -10.28265 -10.28252 -10.27992 -10.27967 -10.27695
 Alpha  occ. eigenvalues --  -10.27664 -10.27588 -10.27493 -10.27486 -10.27334
 Alpha  occ. eigenvalues --  -10.27182 -10.26756 -10.26738 -10.26725 -10.26115
 Alpha  occ. eigenvalues --  -10.25944 -10.25830 -10.25817 -10.25741 -10.25484
 Alpha  occ. eigenvalues --  -10.25460 -10.25364 -10.25343 -10.25277 -10.25155
 Alpha  occ. eigenvalues --  -10.24871 -10.24823 -10.24664 -10.24546 -10.24418
 Alpha  occ. eigenvalues --  -10.24414 -10.24344 -10.24311 -10.24299 -10.24207
 Alpha  occ. eigenvalues --  -10.23886  -3.18193  -1.93093  -1.92635  -1.92495
 Alpha  occ. eigenvalues --   -1.16942  -1.15937  -1.10224  -1.08725  -1.08314
 Alpha  occ. eigenvalues --   -1.07894  -1.04677  -1.04077  -1.03429  -1.02699
 Alpha  occ. eigenvalues --   -0.93297  -0.89887  -0.89760  -0.89177  -0.88914
 Alpha  occ. eigenvalues --   -0.88816  -0.87913  -0.87696  -0.86689  -0.86302
 Alpha  occ. eigenvalues --   -0.85578  -0.85488  -0.84402  -0.84075  -0.83402
 Alpha  occ. eigenvalues --   -0.82278  -0.81497  -0.81175  -0.80773  -0.79994
 Alpha  occ. eigenvalues --   -0.79499  -0.78170  -0.77724  -0.77233  -0.76209
 Alpha  occ. eigenvalues --   -0.75535  -0.75376  -0.74702  -0.74405  -0.73816
 Alpha  occ. eigenvalues --   -0.73416  -0.72454  -0.72136  -0.70799  -0.68906
 Alpha  occ. eigenvalues --   -0.68499  -0.67932  -0.67534  -0.66382  -0.66262
 Alpha  occ. eigenvalues --   -0.65707  -0.65531  -0.65091  -0.64419  -0.63896
 Alpha  occ. eigenvalues --   -0.63514  -0.62754  -0.61926  -0.61734  -0.60428
 Alpha  occ. eigenvalues --   -0.60125  -0.59772  -0.59299  -0.58921  -0.58539
 Alpha  occ. eigenvalues --   -0.57855  -0.57404  -0.56357  -0.55986  -0.55699
 Alpha  occ. eigenvalues --   -0.55499  -0.55273  -0.54500  -0.54257  -0.54012
 Alpha  occ. eigenvalues --   -0.53880  -0.53245  -0.53050  -0.52975  -0.52613
 Alpha  occ. eigenvalues --   -0.52427  -0.52219  -0.51678  -0.51518  -0.51433
 Alpha  occ. eigenvalues --   -0.51102  -0.50894  -0.50711  -0.50598  -0.50535
 Alpha  occ. eigenvalues --   -0.50288  -0.50201  -0.50005  -0.49833  -0.49636
 Alpha  occ. eigenvalues --   -0.49599  -0.49405  -0.49300  -0.49117  -0.48812
 Alpha  occ. eigenvalues --   -0.48655  -0.48304  -0.48169  -0.47738  -0.47579
 Alpha  occ. eigenvalues --   -0.47368  -0.47198  -0.46892  -0.46764  -0.46736
 Alpha  occ. eigenvalues --   -0.46627  -0.46405  -0.46308  -0.45870  -0.45698
 Alpha  occ. eigenvalues --   -0.45643  -0.45521  -0.45135  -0.45049  -0.44932
 Alpha  occ. eigenvalues --   -0.44813  -0.44695  -0.44273  -0.43989  -0.43838
 Alpha  occ. eigenvalues --   -0.43642  -0.43515  -0.43385  -0.43234  -0.43096
 Alpha  occ. eigenvalues --   -0.42882  -0.42815  -0.42616  -0.42326  -0.42098
 Alpha  occ. eigenvalues --   -0.41910  -0.41730  -0.41578  -0.41570  -0.41386
 Alpha  occ. eigenvalues --   -0.41155  -0.40977  -0.40776  -0.40673  -0.40516
 Alpha  occ. eigenvalues --   -0.40184  -0.39931  -0.39330  -0.39157  -0.38888
 Alpha  occ. eigenvalues --   -0.38171  -0.37850  -0.37635  -0.37354  -0.37193
 Alpha  occ. eigenvalues --   -0.36970  -0.36920  -0.36796  -0.36615  -0.35971
 Alpha  occ. eigenvalues --   -0.35784  -0.35243  -0.34804  -0.34386  -0.34138
 Alpha  occ. eigenvalues --   -0.34076  -0.33479  -0.32711  -0.31766  -0.31658
 Alpha  occ. eigenvalues --   -0.31295  -0.30289  -0.29564  -0.29103  -0.24450
 Alpha  occ. eigenvalues --   -0.21913
 Alpha virt. eigenvalues --   -0.09504  -0.02068  -0.00062   0.01376   0.01719
 Alpha virt. eigenvalues --    0.04274   0.04599   0.05394   0.05639   0.06469
 Alpha virt. eigenvalues --    0.07729   0.08020   0.08761   0.08949   0.09193

 Mulliken charges:
               1
     1  Mg   0.805997
     2  C   -0.042677
     3  C   -0.068018
     4  C   -0.036200
     5  C   -0.058468
     6  N   -0.275201
     7  C   -0.010487
     8  C   -0.036772
     9  C   -0.079989
    10  C    0.034422
    11  C    0.064761
    12  C    0.055543
    13  C    0.105122
    14  C    0.122867
    15  O   -0.219500
    16  O   -0.347170
    17  N   -0.362851
    18  C    0.153422
    19  C   -0.136566
    20  C   -0.086236
    21  C    0.118567
    22  C    0.105883
    23  C    0.040620
    24  O   -0.189738
    25  C    0.023600
    26  N   -0.311497
    27  C    0.058530
    28  C   -0.056862
    29  C    0.002022
    30  C    0.030348
    31  C    0.070841
    32  C    0.021687
    33  C    0.002865
    34  N   -0.324521
    35  C    0.146870
    36  C   -0.183901
    37  C   -0.014848
    38  C    0.123338
    39  C    0.109840
    40  C    0.077710
    41  O   -0.195071
    42  C    0.010766
    43  C    0.165739
    44  O   -0.195115
    45  O   -0.338345
    46  C    0.184341
    47  C    0.283739
    48  C   -0.144430
    49  C   -0.151850
    50  C    0.085921
    51  C    0.044244
    52  C    0.048480
    53  C   -0.012080
    54  C   -0.103403
    55  C    0.056303
    56  C    0.047906
    57  C    0.029453
    58  C    0.035041
    59  C   -0.158954
    60  C    0.042539
    61  C    0.101152
    62  C   -0.047733
    63  C    0.080538
    64  C   -0.167811
    65  C    0.032394
    66  C    0.030221
    67  H   -0.029092
    68  H   -0.058105
    69  H   -0.024420
    70  H    0.016798
    71  H    0.019214
    72  H    0.027711
    73  H    0.014621
    74  H    0.027262
    75  H    0.026941
    76  H    0.037162
    77  H    0.031107
    78  H    0.027103
    79  H    0.027111
    80  H    0.017347
    81  H    0.043691
    82  H    0.052134
    83  H    0.051738
    84  H    0.018972
    85  H    0.021561
    86  H    0.009996
    87  H    0.020707
    88  H    0.025352
    89  H    0.019791
    90  H    0.001559
    91  H    0.003927
    92  H    0.003465
    93  H    0.017814
    94  H    0.008107
    95  H    0.036980
    96  H    0.026052
    97  H    0.021982
    98  H    0.039490
    99  H    0.040620
   100  H    0.037666
   101  H    0.021767
   102  H    0.018598
   103  H    0.003699
   104  H    0.001175
   105  H    0.009286
   106  H    0.021841
   107  H    0.031968
   108  H   -0.019755
   109  H    0.020015
   110  H    0.011380
   111  H    0.003807
   112  H    0.018801
   113  H   -0.005561
   114  H   -0.012168
   115  H   -0.001574
   116  H    0.015176
   117  H    0.006412
   118  H   -0.010462
   119  H   -0.013725
   120  H   -0.006884
   121  H   -0.012639
   122  H   -0.011172
   123  H   -0.006620
   124  H    0.007136
   125  H    0.002490
   126  H    0.009651
   127  H   -0.002848
   128  H    0.003100
   129  H   -0.008360
   130  H   -0.028231
   131  H   -0.002409
   132  H   -0.004890
   133  H    0.005769
   134  H    0.013520
   135  H    0.013305
   136  H    0.003795
   137  H    0.007400
   138  H    0.013404
   139  H    0.013869
   140  H    0.010233
 Sum of Mulliken charges =  -0.00000

 Dipole moment (field-independent basis, Debye):
    X=              1.1358    Y=              3.4127    Z=              1.8208  Tot=              4.0314
 Quadrupole moment (field-independent basis, Debye-Ang):
   XX=           -393.9609   YY=           -412.1835   ZZ=           -403.0895
   XY=             44.1952   XZ=             -2.8650   YZ=             18.0297

 Normal termination of Gaussian 16 at Thu May  5 04:42:37 2022.
