 Gaussian 16, Revision A.03,
 Gaussian 16:  ES64L-G16RevA.03 25-Dec-2016

 ---------------------------------
 #p PBE1PBE/Def2SVP td=(nstates=5)
 ---------------------------------

 -----------------------------------------------------
 step_651_chromophore_20 TDDFT with PBE1PBE functional
 -----------------------------------------------------
 Symbolic Z-matrix:
 Charge =  0 Multiplicity = 1

                         Standard orientation:
 ---------------------------------------------------------------------
 Center     Atomic      Atomic             Coordinates (Angstroms)
 Number     Number       Type             X           Y           Z
 ---------------------------------------------------------------------
      1         12           0        4.081689    1.197336   -0.533730
      2          6           0        3.918566   -2.375312   -0.753382
      3          6           0        1.355726    1.302880   -2.570925
      4          6           0        3.828750    4.530665    0.128486
      5          6           0        6.641111    0.855695    1.846794
      6          7           0        2.699709   -0.355390   -1.383837
      7          6           0        2.851555   -1.733664   -1.440921
      8          6           0        1.870001   -2.352796   -2.451403
      9          6           0        1.447434   -1.087487   -3.307167
     10          6           0        1.838335    0.029916   -2.381742
     11          6           0        2.200292   -0.929054   -4.718766
     12          6           0        0.613245   -2.816156   -1.652005
     13          6           0        0.092991   -4.271819   -1.947498
     14          6           0       -1.285623   -4.323459   -2.411404
     15          8           0       -1.661363   -4.323150   -3.560381
     16          8           0       -2.199908   -4.294363   -1.342790
     17          7           0        2.780239    2.731167   -1.136072
     18          6           0        1.702214    2.561759   -1.952964
     19          6           0        1.231652    3.843912   -2.403097
     20          6           0        2.038582    4.845249   -1.744285
     21          6           0        2.990005    4.042280   -0.906326
     22          6           0        0.089886    3.974689   -3.451226
     23          6           0        1.757479    6.405210   -1.894054
     24          8           0        0.971829    6.825571   -2.743980
     25          6           0        2.567366    7.396109   -0.980402
     26          7           0        5.067144    2.498403    0.895495
     27          6           0        4.790242    3.852578    0.894630
     28          6           0        5.624751    4.553589    1.951197
     29          6           0        6.582318    3.392899    2.457445
     30          6           0        6.118141    2.136588    1.704174
     31          6           0        6.425904    5.767340    1.444627
     32          6           0        6.432761    3.204180    4.039094
     33          6           0        7.491548    3.834143    4.893344
     34          7           0        5.155334   -0.431699    0.325694
     35          6           0        6.201414   -0.354288    1.255426
     36          6           0        6.634639   -1.691989    1.403034
     37          6           0        5.879072   -2.512786    0.531035
     38          6           0        4.892123   -1.669189    0.001734
     39          6           0        7.640830   -2.149073    2.517172
     40          6           0        5.670797   -3.890001    0.041262
     41          8           0        6.227170   -4.974063    0.323851
     42          6           0        4.350608   -3.772596   -0.885810
     43          6           0        3.406529   -4.688540   -0.275858
     44          8           0        2.886292   -4.542732    0.791482
     45          8           0        3.219002   -5.817257   -1.057389
     46          6           0        2.376262   -6.805739   -0.414548
     47          6           0       -3.572462   -4.544900   -1.659544
     48          6           0       -4.390700   -4.530756   -0.332117
     49          6           0       -4.202295   -5.236654    0.848346
     50          6           0       -3.264690   -6.449493    0.965741
     51          6           0       -5.121094   -4.861987    1.998904
     52          6           0       -4.873489   -3.533094    2.794082
     53          6           0       -5.859185   -2.430690    2.249668
     54          6           0       -6.755399   -1.702795    3.323610
     55          6           0       -7.495666   -2.661383    4.264603
     56          6           0       -7.662472   -0.612215    2.626092
     57          6           0       -7.579754    0.812761    3.144765
     58          6           0       -6.668368    1.718407    2.288439
     59          6           0       -7.386000    2.261116    1.024473
     60          6           0       -6.374709    2.387861   -0.131389
     61          6           0       -8.005761    3.685986    1.293892
     62          6           0       -9.532907    3.480326    1.073451
     63          6           0      -10.170816    4.182813   -0.246382
     64          6           0      -10.524350    3.116390   -1.258701
     65          6           0      -10.201945    3.727542   -2.682316
     66          6           0      -12.102661    2.735868   -1.205759
     67          1           0        0.616640    1.330085   -3.374784
     68          1           0        3.743486    5.613505    0.231358
     69          1           0        7.440652    0.829348    2.589772
     70          1           0        2.292207   -3.158917   -3.050142
     71          1           0        0.415342   -1.063782   -3.656722
     72          1           0        1.480388   -0.812712   -5.528438
     73          1           0        2.746265   -1.850701   -4.919689
     74          1           0        2.873400   -0.083147   -4.573382
     75          1           0       -0.194887   -2.090274   -1.747384
     76          1           0        0.823156   -2.782879   -0.582863
     77          1           0        0.165630   -4.896813   -1.057952
     78          1           0        0.723468   -4.692414   -2.730267
     79          1           0       -0.802243    3.783048   -2.855507
     80          1           0        0.089046    3.218669   -4.236762
     81          1           0       -0.019200    4.911977   -3.997267
     82          1           0        3.644976    7.399106   -1.148653
     83          1           0        2.233189    7.247121    0.046289
     84          1           0        2.317229    8.424256   -1.238390
     85          1           0        4.941927    4.849855    2.747693
     86          1           0        7.584896    3.705642    2.165735
     87          1           0        5.799639    6.620629    1.705885
     88          1           0        6.612258    5.678554    0.373936
     89          1           0        7.360820    5.814012    2.002026
     90          1           0        6.495762    2.152579    4.319612
     91          1           0        5.457738    3.439369    4.465186
     92          1           0        8.032233    2.991982    5.324604
     93          1           0        7.135503    4.412723    5.746161
     94          1           0        8.286497    4.373986    4.380621
     95          1           0        7.519494   -3.232214    2.532887
     96          1           0        7.416251   -1.707933    3.487807
     97          1           0        8.661062   -1.901365    2.226455
     98          1           0        4.605778   -4.040116   -1.911728
     99          1           0        1.405795   -6.386835   -0.146371
    100          1           0        2.970284   -7.281713    0.366067
    101          1           0        2.262498   -7.656456   -1.086192
    102          1           0       -3.786302   -5.450516   -2.226939
    103          1           0       -3.983623   -3.786235   -2.326189
    104          1           0       -5.026985   -3.651766   -0.228672
    105          1           0       -2.816152   -6.645199   -0.009212
    106          1           0       -3.970490   -7.238441    1.223614
    107          1           0       -2.451613   -6.413897    1.691004
    108          1           0       -5.099408   -5.664133    2.737046
    109          1           0       -6.140550   -4.832148    1.614972
    110          1           0       -3.834815   -3.226782    2.671173
    111          1           0       -5.067427   -3.711548    3.851996
    112          1           0       -6.393767   -2.644331    1.323562
    113          1           0       -5.173210   -1.633426    1.962370
    114          1           0       -6.074694   -1.140444    3.962845
    115          1           0       -8.576062   -2.521139    4.221006
    116          1           0       -7.185720   -2.541419    5.303079
    117          1           0       -7.353941   -3.690007    3.933200
    118          1           0       -8.685443   -0.986889    2.666357
    119          1           0       -7.407262   -0.445380    1.578940
    120          1           0       -7.278710    0.797653    4.192256
    121          1           0       -8.553914    1.295651    3.064845
    122          1           0       -5.811662    1.124583    1.968493
    123          1           0       -6.327257    2.570630    2.876797
    124          1           0       -8.062056    1.462419    0.719189
    125          1           0       -5.456666    2.727330    0.348978
    126          1           0       -6.638007    3.049013   -0.956074
    127          1           0       -6.166278    1.394809   -0.529492
    128          1           0       -7.562446    4.502062    0.723812
    129          1           0       -7.847208    3.952022    2.338624
    130          1           0       -9.985749    3.948555    1.947792
    131          1           0       -9.968426    2.491000    1.213715
    132          1           0       -9.384522    4.831600   -0.634395
    133          1           0      -11.008900    4.707515    0.213583
    134          1           0       -9.968160    2.198327   -1.070045
    135          1           0       -9.672073    2.959173   -3.244370
    136          1           0       -9.587850    4.627172   -2.627988
    137          1           0      -11.108138    4.054104   -3.191788
    138          1           0      -12.281191    1.902050   -0.527229
    139          1           0      -12.308867    2.537567   -2.257288
    140          1           0      -12.709753    3.569835   -0.852904
 ---------------------------------------------------------------------

 SCF Done:  E(RPBE1PBE) =  -3005.34204071     A.U. after   15 cycles

 Excitation energies and oscillator strengths:

 Excited State   1:      Singlet-A      1.8521 eV  669.42 nm  f=0.3629  <S**2>=0.000
     245 -> 248        0.16735
     246 -> 247        0.69361
     246 <- 247       -0.10817
 This state for optimization and/or second-order correction.
 Total Energy, E(TD-HF/TD-DFT) =  -3005.27397704
 Copying the excited state density for this state as the 1-particle RhoCI density.

 Excited State   2:      Singlet-A      2.1996 eV  563.66 nm  f=0.1320  <S**2>=0.000
     245 -> 247        0.65975
     246 -> 248       -0.23318

 Excited State   3:      Singlet-A      2.8205 eV  439.59 nm  f=0.0050  <S**2>=0.000
     241 -> 247        0.14386
     243 -> 247        0.67634

 Excited State   4:      Singlet-A      2.9715 eV  417.25 nm  f=0.0078  <S**2>=0.000
     241 -> 247       -0.15481
     242 -> 247        0.67834

 Excited State   5:      Singlet-A      3.0529 eV  406.11 nm  f=0.0000  <S**2>=0.000
     244 -> 247        0.70393

 The electronic state is 1-A.
 Alpha  occ. eigenvalues --  -46.93230 -19.25287 -19.24691 -19.20298 -19.20110
 Alpha  occ. eigenvalues --  -19.19996 -19.19967 -14.42223 -14.42022 -14.39849
 Alpha  occ. eigenvalues --  -14.38864 -10.35875 -10.35757 -10.34099 -10.33417
 Alpha  occ. eigenvalues --  -10.29770 -10.29413 -10.29169 -10.28919 -10.28769
 Alpha  occ. eigenvalues --  -10.28737 -10.28451 -10.28142 -10.27633 -10.27034
 Alpha  occ. eigenvalues --  -10.26598 -10.26494 -10.26432 -10.26376 -10.26191
 Alpha  occ. eigenvalues --  -10.25921 -10.25898 -10.25822 -10.25784 -10.25362
 Alpha  occ. eigenvalues --  -10.25326 -10.25184 -10.25168 -10.24979 -10.24935
 Alpha  occ. eigenvalues --  -10.24441 -10.24407 -10.24234 -10.24201 -10.23527
 Alpha  occ. eigenvalues --  -10.23510 -10.23496 -10.23467 -10.23247 -10.23118
 Alpha  occ. eigenvalues --  -10.23063 -10.22979 -10.22901 -10.22873 -10.22846
 Alpha  occ. eigenvalues --  -10.22454 -10.22433 -10.22114 -10.22068 -10.21981
 Alpha  occ. eigenvalues --  -10.21942 -10.21936 -10.21860 -10.21696 -10.21616
 Alpha  occ. eigenvalues --  -10.21256  -3.15152  -1.87992  -1.87513  -1.87376
 Alpha  occ. eigenvalues --   -1.11684  -1.10703  -1.04883  -1.03535  -1.03141
 Alpha  occ. eigenvalues --   -1.02739  -0.99389  -0.98715  -0.98013  -0.97320
 Alpha  occ. eigenvalues --   -0.87703  -0.84048  -0.83879  -0.83481  -0.83087
 Alpha  occ. eigenvalues --   -0.83027  -0.82236  -0.81798  -0.80821  -0.80606
 Alpha  occ. eigenvalues --   -0.79923  -0.79704  -0.78715  -0.78373  -0.77555
 Alpha  occ. eigenvalues --   -0.76538  -0.75640  -0.75429  -0.75005  -0.74206
 Alpha  occ. eigenvalues --   -0.73673  -0.72428  -0.72082  -0.71476  -0.70535
 Alpha  occ. eigenvalues --   -0.69862  -0.69528  -0.68776  -0.68529  -0.68009
 Alpha  occ. eigenvalues --   -0.67859  -0.66799  -0.66522  -0.65077  -0.63262
 Alpha  occ. eigenvalues --   -0.63001  -0.62165  -0.61947  -0.60713  -0.60599
 Alpha  occ. eigenvalues --   -0.60171  -0.60034  -0.59276  -0.58992  -0.58379
 Alpha  occ. eigenvalues --   -0.57658  -0.56910  -0.56518  -0.55932  -0.54976
 Alpha  occ. eigenvalues --   -0.54638  -0.54418  -0.53742  -0.53518  -0.52905
 Alpha  occ. eigenvalues --   -0.52484  -0.51835  -0.50858  -0.50588  -0.50222
 Alpha  occ. eigenvalues --   -0.49983  -0.49749  -0.48895  -0.48824  -0.48564
 Alpha  occ. eigenvalues --   -0.48412  -0.47897  -0.47626  -0.47508  -0.47160
 Alpha  occ. eigenvalues --   -0.46823  -0.46587  -0.46363  -0.46034  -0.45978
 Alpha  occ. eigenvalues --   -0.45634  -0.45474  -0.45217  -0.45135  -0.45087
 Alpha  occ. eigenvalues --   -0.44841  -0.44773  -0.44653  -0.44394  -0.44194
 Alpha  occ. eigenvalues --   -0.44164  -0.43985  -0.43829  -0.43766  -0.43467
 Alpha  occ. eigenvalues --   -0.43172  -0.42974  -0.42832  -0.42399  -0.42210
 Alpha  occ. eigenvalues --   -0.42021  -0.41889  -0.41594  -0.41395  -0.41321
 Alpha  occ. eigenvalues --   -0.41290  -0.41113  -0.41031  -0.40511  -0.40400
 Alpha  occ. eigenvalues --   -0.40322  -0.40210  -0.39871  -0.39679  -0.39565
 Alpha  occ. eigenvalues --   -0.39495  -0.39400  -0.39073  -0.38743  -0.38630
 Alpha  occ. eigenvalues --   -0.38399  -0.38213  -0.38132  -0.38028  -0.37880
 Alpha  occ. eigenvalues --   -0.37663  -0.37605  -0.37477  -0.37187  -0.36826
 Alpha  occ. eigenvalues --   -0.36755  -0.36527  -0.36365  -0.36328  -0.36266
 Alpha  occ. eigenvalues --   -0.35901  -0.35845  -0.35698  -0.35523  -0.35329
 Alpha  occ. eigenvalues --   -0.34957  -0.34706  -0.34256  -0.33881  -0.33720
 Alpha  occ. eigenvalues --   -0.32970  -0.32857  -0.32607  -0.32285  -0.32221
 Alpha  occ. eigenvalues --   -0.31915  -0.31863  -0.31718  -0.31447  -0.30792
 Alpha  occ. eigenvalues --   -0.30668  -0.30187  -0.29585  -0.29543  -0.29125
 Alpha  occ. eigenvalues --   -0.29050  -0.28854  -0.27635  -0.27397  -0.26457
 Alpha  occ. eigenvalues --   -0.26379  -0.25772  -0.25227  -0.24429  -0.21418
 Alpha  occ. eigenvalues --   -0.19526
 Alpha virt. eigenvalues --   -0.11923  -0.05615  -0.04315  -0.02779  -0.01324
 Alpha virt. eigenvalues --   -0.00201   0.00136   0.00836   0.01241   0.02334
 Alpha virt. eigenvalues --    0.03859   0.04269   0.05200   0.05655   0.05944

 Mulliken charges:
               1
     1  Mg   0.945995
     2  C   -0.041389
     3  C   -0.060194
     4  C   -0.031346
     5  C   -0.056120
     6  N   -0.370604
     7  C    0.074419
     8  C   -0.118906
     9  C   -0.146358
    10  C    0.052483
    11  C    0.010599
    12  C    0.020997
    13  C    0.019573
    14  C    0.192054
    15  O   -0.253720
    16  O   -0.375381
    17  N   -0.476021
    18  C    0.186324
    19  C   -0.165618
    20  C   -0.120847
    21  C    0.142692
    22  C    0.046848
    23  C    0.088398
    24  O   -0.225315
    25  C   -0.054390
    26  N   -0.416139
    27  C    0.094914
    28  C   -0.129451
    29  C   -0.081217
    30  C    0.076178
    31  C    0.009318
    32  C   -0.037065
    33  C   -0.065199
    34  N   -0.457163
    35  C    0.171513
    36  C   -0.199562
    37  C   -0.059744
    38  C    0.169952
    39  C    0.054147
    40  C    0.166235
    41  O   -0.237727
    42  C   -0.114858
    43  C    0.270019
    44  O   -0.230439
    45  O   -0.372953
    46  C    0.125930
    47  C    0.239933
    48  C   -0.159598
    49  C   -0.187496
    50  C    0.021045
    51  C   -0.023914
    52  C   -0.011891
    53  C   -0.072861
    54  C   -0.183979
    55  C   -0.005217
    56  C   -0.004161
    57  C   -0.038042
    58  C   -0.024644
    59  C   -0.245667
    60  C   -0.018360
    61  C    0.051477
    62  C   -0.109020
    63  C    0.027325
    64  C   -0.259925
    65  C   -0.029857
    66  C   -0.029931
    67  H    0.002246
    68  H   -0.020400
    69  H    0.007943
    70  H    0.050465
    71  H    0.053510
    72  H    0.054040
    73  H    0.042241
    74  H    0.055982
    75  H    0.057627
    76  H    0.069223
    77  H    0.067761
    78  H    0.059267
    79  H    0.056146
    80  H    0.042789
    81  H    0.070149
    82  H    0.077139
    83  H    0.077250
    84  H    0.047419
    85  H    0.057933
    86  H    0.046434
    87  H    0.048080
    88  H    0.053401
    89  H    0.048007
    90  H    0.034224
    91  H    0.035495
    92  H    0.031038
    93  H    0.045494
    94  H    0.035050
    95  H    0.065556
    96  H    0.052858
    97  H    0.050721
    98  H    0.075024
    99  H    0.063077
   100  H    0.060532
   101  H    0.044388
   102  H    0.045185
   103  H    0.030762
   104  H    0.034633
   105  H    0.038180
   106  H    0.049987
   107  H    0.058528
   108  H    0.013449
   109  H    0.053104
   110  H    0.044032
   111  H    0.036145
   112  H    0.047903
   113  H    0.030611
   114  H    0.026401
   115  H    0.025872
   116  H    0.042131
   117  H    0.035472
   118  H    0.021841
   119  H    0.020096
   120  H    0.025820
   121  H    0.024443
   122  H    0.024350
   123  H    0.026038
   124  H    0.044008
   125  H    0.031206
   126  H    0.037701
   127  H    0.025608
   128  H    0.032685
   129  H    0.023795
   130  H    0.005665
   131  H    0.028250
   132  H    0.027570
   133  H    0.037217
   134  H    0.052018
   135  H    0.041021
   136  H    0.030629
   137  H    0.034434
   138  H    0.040590
   139  H    0.041474
   140  H    0.036957
 Sum of Mulliken charges =  -0.00000

 Dipole moment (field-independent basis, Debye):
    X=              1.2969    Y=              3.2836    Z=              2.0196  Tot=              4.0673
 Quadrupole moment (field-independent basis, Debye-Ang):
   XX=           -389.2260   YY=           -409.7758   ZZ=           -399.2630
   XY=             44.1077   XZ=             -1.3588   YZ=             18.6574

 Normal termination of Gaussian 16 at Thu May  5 05:09:19 2022.
