 Gaussian 16, Revision A.03,
 Gaussian 16:  ES64L-G16RevA.03 25-Dec-2016

 --------------------------------
 #p wB97XD/Def2SVP td=(nstates=5)
 --------------------------------

 ----------------------------------------------------
 step_651_chromophore_20 TDDFT with wB97XD functional
 ----------------------------------------------------
 Symbolic Z-matrix:
 Charge =  0 Multiplicity = 1

                         Standard orientation:
 ---------------------------------------------------------------------
 Center     Atomic      Atomic             Coordinates (Angstroms)
 Number     Number       Type             X           Y           Z
 ---------------------------------------------------------------------
      1         12           0        4.081689    1.197336   -0.533730
      2          6           0        3.918566   -2.375312   -0.753382
      3          6           0        1.355726    1.302880   -2.570925
      4          6           0        3.828750    4.530665    0.128486
      5          6           0        6.641111    0.855695    1.846794
      6          7           0        2.699709   -0.355390   -1.383837
      7          6           0        2.851555   -1.733664   -1.440921
      8          6           0        1.870001   -2.352796   -2.451403
      9          6           0        1.447434   -1.087487   -3.307167
     10          6           0        1.838335    0.029916   -2.381742
     11          6           0        2.200292   -0.929054   -4.718766
     12          6           0        0.613245   -2.816156   -1.652005
     13          6           0        0.092991   -4.271819   -1.947498
     14          6           0       -1.285623   -4.323459   -2.411404
     15          8           0       -1.661363   -4.323150   -3.560381
     16          8           0       -2.199908   -4.294363   -1.342790
     17          7           0        2.780239    2.731167   -1.136072
     18          6           0        1.702214    2.561759   -1.952964
     19          6           0        1.231652    3.843912   -2.403097
     20          6           0        2.038582    4.845249   -1.744285
     21          6           0        2.990005    4.042280   -0.906326
     22          6           0        0.089886    3.974689   -3.451226
     23          6           0        1.757479    6.405210   -1.894054
     24          8           0        0.971829    6.825571   -2.743980
     25          6           0        2.567366    7.396109   -0.980402
     26          7           0        5.067144    2.498403    0.895495
     27          6           0        4.790242    3.852578    0.894630
     28          6           0        5.624751    4.553589    1.951197
     29          6           0        6.582318    3.392899    2.457445
     30          6           0        6.118141    2.136588    1.704174
     31          6           0        6.425904    5.767340    1.444627
     32          6           0        6.432761    3.204180    4.039094
     33          6           0        7.491548    3.834143    4.893344
     34          7           0        5.155334   -0.431699    0.325694
     35          6           0        6.201414   -0.354288    1.255426
     36          6           0        6.634639   -1.691989    1.403034
     37          6           0        5.879072   -2.512786    0.531035
     38          6           0        4.892123   -1.669189    0.001734
     39          6           0        7.640830   -2.149073    2.517172
     40          6           0        5.670797   -3.890001    0.041262
     41          8           0        6.227170   -4.974063    0.323851
     42          6           0        4.350608   -3.772596   -0.885810
     43          6           0        3.406529   -4.688540   -0.275858
     44          8           0        2.886292   -4.542732    0.791482
     45          8           0        3.219002   -5.817257   -1.057389
     46          6           0        2.376262   -6.805739   -0.414548
     47          6           0       -3.572462   -4.544900   -1.659544
     48          6           0       -4.390700   -4.530756   -0.332117
     49          6           0       -4.202295   -5.236654    0.848346
     50          6           0       -3.264690   -6.449493    0.965741
     51          6           0       -5.121094   -4.861987    1.998904
     52          6           0       -4.873489   -3.533094    2.794082
     53          6           0       -5.859185   -2.430690    2.249668
     54          6           0       -6.755399   -1.702795    3.323610
     55          6           0       -7.495666   -2.661383    4.264603
     56          6           0       -7.662472   -0.612215    2.626092
     57          6           0       -7.579754    0.812761    3.144765
     58          6           0       -6.668368    1.718407    2.288439
     59          6           0       -7.386000    2.261116    1.024473
     60          6           0       -6.374709    2.387861   -0.131389
     61          6           0       -8.005761    3.685986    1.293892
     62          6           0       -9.532907    3.480326    1.073451
     63          6           0      -10.170816    4.182813   -0.246382
     64          6           0      -10.524350    3.116390   -1.258701
     65          6           0      -10.201945    3.727542   -2.682316
     66          6           0      -12.102661    2.735868   -1.205759
     67          1           0        0.616640    1.330085   -3.374784
     68          1           0        3.743486    5.613505    0.231358
     69          1           0        7.440652    0.829348    2.589772
     70          1           0        2.292207   -3.158917   -3.050142
     71          1           0        0.415342   -1.063782   -3.656722
     72          1           0        1.480388   -0.812712   -5.528438
     73          1           0        2.746265   -1.850701   -4.919689
     74          1           0        2.873400   -0.083147   -4.573382
     75          1           0       -0.194887   -2.090274   -1.747384
     76          1           0        0.823156   -2.782879   -0.582863
     77          1           0        0.165630   -4.896813   -1.057952
     78          1           0        0.723468   -4.692414   -2.730267
     79          1           0       -0.802243    3.783048   -2.855507
     80          1           0        0.089046    3.218669   -4.236762
     81          1           0       -0.019200    4.911977   -3.997267
     82          1           0        3.644976    7.399106   -1.148653
     83          1           0        2.233189    7.247121    0.046289
     84          1           0        2.317229    8.424256   -1.238390
     85          1           0        4.941927    4.849855    2.747693
     86          1           0        7.584896    3.705642    2.165735
     87          1           0        5.799639    6.620629    1.705885
     88          1           0        6.612258    5.678554    0.373936
     89          1           0        7.360820    5.814012    2.002026
     90          1           0        6.495762    2.152579    4.319612
     91          1           0        5.457738    3.439369    4.465186
     92          1           0        8.032233    2.991982    5.324604
     93          1           0        7.135503    4.412723    5.746161
     94          1           0        8.286497    4.373986    4.380621
     95          1           0        7.519494   -3.232214    2.532887
     96          1           0        7.416251   -1.707933    3.487807
     97          1           0        8.661062   -1.901365    2.226455
     98          1           0        4.605778   -4.040116   -1.911728
     99          1           0        1.405795   -6.386835   -0.146371
    100          1           0        2.970284   -7.281713    0.366067
    101          1           0        2.262498   -7.656456   -1.086192
    102          1           0       -3.786302   -5.450516   -2.226939
    103          1           0       -3.983623   -3.786235   -2.326189
    104          1           0       -5.026985   -3.651766   -0.228672
    105          1           0       -2.816152   -6.645199   -0.009212
    106          1           0       -3.970490   -7.238441    1.223614
    107          1           0       -2.451613   -6.413897    1.691004
    108          1           0       -5.099408   -5.664133    2.737046
    109          1           0       -6.140550   -4.832148    1.614972
    110          1           0       -3.834815   -3.226782    2.671173
    111          1           0       -5.067427   -3.711548    3.851996
    112          1           0       -6.393767   -2.644331    1.323562
    113          1           0       -5.173210   -1.633426    1.962370
    114          1           0       -6.074694   -1.140444    3.962845
    115          1           0       -8.576062   -2.521139    4.221006
    116          1           0       -7.185720   -2.541419    5.303079
    117          1           0       -7.353941   -3.690007    3.933200
    118          1           0       -8.685443   -0.986889    2.666357
    119          1           0       -7.407262   -0.445380    1.578940
    120          1           0       -7.278710    0.797653    4.192256
    121          1           0       -8.553914    1.295651    3.064845
    122          1           0       -5.811662    1.124583    1.968493
    123          1           0       -6.327257    2.570630    2.876797
    124          1           0       -8.062056    1.462419    0.719189
    125          1           0       -5.456666    2.727330    0.348978
    126          1           0       -6.638007    3.049013   -0.956074
    127          1           0       -6.166278    1.394809   -0.529492
    128          1           0       -7.562446    4.502062    0.723812
    129          1           0       -7.847208    3.952022    2.338624
    130          1           0       -9.985749    3.948555    1.947792
    131          1           0       -9.968426    2.491000    1.213715
    132          1           0       -9.384522    4.831600   -0.634395
    133          1           0      -11.008900    4.707515    0.213583
    134          1           0       -9.968160    2.198327   -1.070045
    135          1           0       -9.672073    2.959173   -3.244370
    136          1           0       -9.587850    4.627172   -2.627988
    137          1           0      -11.108138    4.054104   -3.191788
    138          1           0      -12.281191    1.902050   -0.527229
    139          1           0      -12.308867    2.537567   -2.257288
    140          1           0      -12.709753    3.569835   -0.852904
 ---------------------------------------------------------------------

 SCF Done:  E(RwB97XD) =  -3007.85390856     A.U. after   20 cycles

 Excitation energies and oscillator strengths:

 Excited State   1:      Singlet-A      1.6370 eV  757.40 nm  f=0.3733  <S**2>=0.000
     245 -> 248       -0.18025
     246 -> 247        0.68483
     245 <- 248       -0.11688
 This state for optimization and/or second-order correction.
 Total Energy, E(TD-HF/TD-DFT) =  -3007.79375111
 Copying the excited state density for this state as the 1-particle RhoCI density.

 Excited State   2:      Singlet-A      2.1252 eV  583.41 nm  f=0.1385  <S**2>=0.000
     245 -> 247        0.65008
     246 -> 248        0.26045

 Excited State   3:      Singlet-A      3.2221 eV  384.79 nm  f=0.0019  <S**2>=0.000
     242 -> 247       -0.18865
     243 -> 247        0.64953

 Excited State   4:      Singlet-A      3.3489 eV  370.22 nm  f=0.0055  <S**2>=0.000
     242 -> 247        0.65016
     243 -> 247        0.15678
     246 -> 248       -0.14456

 Excited State   5:      Singlet-A      3.5597 eV  348.30 nm  f=0.0033  <S**2>=0.000
     241 -> 247        0.55746
     241 -> 249        0.32179
     241 -> 250       -0.16498

 The electronic state is 1-A.
 Alpha  occ. eigenvalues --  -46.96205 -19.29867 -19.29269 -19.25221 -19.24827
 Alpha  occ. eigenvalues --  -19.24718 -19.24670 -14.47332 -14.47088 -14.44911
 Alpha  occ. eigenvalues --  -14.43699 -10.42696 -10.42593 -10.41025 -10.40190
 Alpha  occ. eigenvalues --  -10.35973 -10.35841 -10.35489 -10.35315 -10.35277
 Alpha  occ. eigenvalues --  -10.35183 -10.34973 -10.34706 -10.33716 -10.33276
 Alpha  occ. eigenvalues --  -10.33236 -10.32689 -10.32635 -10.32593 -10.32457
 Alpha  occ. eigenvalues --  -10.32432 -10.32280 -10.32062 -10.32021 -10.31705
 Alpha  occ. eigenvalues --  -10.31655 -10.31646 -10.31505 -10.31413 -10.31404
 Alpha  occ. eigenvalues --  -10.31091 -10.30661 -10.30640 -10.30614 -10.30086
 Alpha  occ. eigenvalues --  -10.29809 -10.29802 -10.29778 -10.29561 -10.29424
 Alpha  occ. eigenvalues --  -10.29368 -10.29336 -10.29256 -10.29211 -10.29138
 Alpha  occ. eigenvalues --  -10.28806 -10.28782 -10.28487 -10.28472 -10.28337
 Alpha  occ. eigenvalues --  -10.28312 -10.28276 -10.28219 -10.28132 -10.28029
 Alpha  occ. eigenvalues --  -10.27704  -3.22003  -1.95587  -1.95109  -1.94972
 Alpha  occ. eigenvalues --   -1.19083  -1.18099  -1.12476  -1.10931  -1.10521
 Alpha  occ. eigenvalues --   -1.10101  -1.06688  -1.06140  -1.05436  -1.04718
 Alpha  occ. eigenvalues --   -0.95265  -0.91697  -0.91548  -0.91127  -0.90702
 Alpha  occ. eigenvalues --   -0.90659  -0.89849  -0.89472  -0.88483  -0.88224
 Alpha  occ. eigenvalues --   -0.87487  -0.87473  -0.86286  -0.86010  -0.85220
 Alpha  occ. eigenvalues --   -0.84198  -0.83364  -0.83113  -0.82693  -0.81857
 Alpha  occ. eigenvalues --   -0.81337  -0.80070  -0.79652  -0.79199  -0.78141
 Alpha  occ. eigenvalues --   -0.77488  -0.77205  -0.76491  -0.76218  -0.75657
 Alpha  occ. eigenvalues --   -0.75378  -0.74395  -0.74097  -0.72709  -0.70802
 Alpha  occ. eigenvalues --   -0.70505  -0.69805  -0.69537  -0.68238  -0.68208
 Alpha  occ. eigenvalues --   -0.67689  -0.67529  -0.66928  -0.66430  -0.65861
 Alpha  occ. eigenvalues --   -0.65332  -0.64571  -0.63926  -0.63563  -0.62456
 Alpha  occ. eigenvalues --   -0.62083  -0.61776  -0.61230  -0.60911  -0.60427
 Alpha  occ. eigenvalues --   -0.59868  -0.59316  -0.58353  -0.57921  -0.57607
 Alpha  occ. eigenvalues --   -0.57451  -0.57178  -0.56348  -0.56190  -0.55955
 Alpha  occ. eigenvalues --   -0.55807  -0.55213  -0.54940  -0.54892  -0.54514
 Alpha  occ. eigenvalues --   -0.54279  -0.54158  -0.53613  -0.53420  -0.53381
 Alpha  occ. eigenvalues --   -0.52997  -0.52829  -0.52573  -0.52480  -0.52452
 Alpha  occ. eigenvalues --   -0.52242  -0.52114  -0.51910  -0.51797  -0.51553
 Alpha  occ. eigenvalues --   -0.51487  -0.51301  -0.51170  -0.51034  -0.50772
 Alpha  occ. eigenvalues --   -0.50513  -0.50230  -0.50083  -0.49661  -0.49455
 Alpha  occ. eigenvalues --   -0.49314  -0.49125  -0.48803  -0.48644  -0.48601
 Alpha  occ. eigenvalues --   -0.48555  -0.48319  -0.48213  -0.47724  -0.47615
 Alpha  occ. eigenvalues --   -0.47564  -0.47410  -0.47023  -0.46919  -0.46819
 Alpha  occ. eigenvalues --   -0.46718  -0.46615  -0.46223  -0.45884  -0.45782
 Alpha  occ. eigenvalues --   -0.45567  -0.45470  -0.45360  -0.45163  -0.45052
 Alpha  occ. eigenvalues --   -0.44811  -0.44770  -0.44538  -0.44221  -0.43964
 Alpha  occ. eigenvalues --   -0.43820  -0.43599  -0.43499  -0.43439  -0.43280
 Alpha  occ. eigenvalues --   -0.42988  -0.42876  -0.42678  -0.42566  -0.42411
 Alpha  occ. eigenvalues --   -0.42028  -0.41788  -0.41262  -0.40986  -0.40749
 Alpha  occ. eigenvalues --   -0.40011  -0.39834  -0.39560  -0.39283  -0.39198
 Alpha  occ. eigenvalues --   -0.38876  -0.38818  -0.38746  -0.38451  -0.37870
 Alpha  occ. eigenvalues --   -0.37704  -0.37099  -0.36721  -0.36362  -0.36018
 Alpha  occ. eigenvalues --   -0.35974  -0.35743  -0.34551  -0.33958  -0.33678
 Alpha  occ. eigenvalues --   -0.33285  -0.32516  -0.31686  -0.31149  -0.26363
 Alpha  occ. eigenvalues --   -0.23724
 Alpha virt. eigenvalues --   -0.07856  -0.00157   0.02001   0.03717   0.04557
 Alpha virt. eigenvalues --    0.06513   0.06822   0.07634   0.08013   0.08985
 Alpha virt. eigenvalues --    0.10413   0.10945   0.11875   0.12381   0.12667

 Mulliken charges:
               1
     1  Mg   0.939520
     2  C   -0.047055
     3  C   -0.076598
     4  C   -0.043444
     5  C   -0.071052
     6  N   -0.340761
     7  C    0.036021
     8  C   -0.091104
     9  C   -0.125649
    10  C    0.050025
    11  C    0.020006
    12  C    0.023765
    13  C    0.042860
    14  C    0.181959
    15  O   -0.250722
    16  O   -0.374151
    17  N   -0.444629
    18  C    0.174035
    19  C   -0.155758
    20  C   -0.120981
    21  C    0.140704
    22  C    0.059275
    23  C    0.085168
    24  O   -0.220303
    25  C   -0.041377
    26  N   -0.382695
    27  C    0.082335
    28  C   -0.106633
    29  C   -0.051551
    30  C    0.059520
    31  C    0.021554
    32  C   -0.022579
    33  C   -0.051735
    34  N   -0.415637
    35  C    0.159314
    36  C   -0.196361
    37  C   -0.058267
    38  C    0.152499
    39  C    0.065634
    40  C    0.149594
    41  O   -0.229579
    42  C   -0.069569
    43  C    0.239000
    44  O   -0.223708
    45  O   -0.369674
    46  C    0.142337
    47  C    0.252039
    48  C   -0.162453
    49  C   -0.180087
    50  C    0.037058
    51  C   -0.001254
    52  C    0.001503
    53  C   -0.053135
    54  C   -0.157234
    55  C    0.006348
    56  C    0.012776
    57  C   -0.017380
    58  C   -0.004046
    59  C   -0.213647
    60  C   -0.002728
    61  C    0.059982
    62  C   -0.089844
    63  C    0.042161
    64  C   -0.232199
    65  C   -0.015935
    66  C   -0.016155
    67  H   -0.004587
    68  H   -0.034845
    69  H    0.003047
    70  H    0.039966
    71  H    0.045756
    72  H    0.049815
    73  H    0.036890
    74  H    0.048167
    75  H    0.050151
    76  H    0.062543
    77  H    0.055776
    78  H    0.053527
    79  H    0.050799
    80  H    0.038176
    81  H    0.067955
    82  H    0.072825
    83  H    0.073036
    84  H    0.046178
    85  H    0.047884
    86  H    0.035165
    87  H    0.042519
    88  H    0.047422
    89  H    0.041385
    90  H    0.024645
    91  H    0.028732
    92  H    0.024919
    93  H    0.040424
    94  H    0.028320
    95  H    0.060872
    96  H    0.047409
    97  H    0.045061
    98  H    0.070700
    99  H    0.056372
   100  H    0.057072
   101  H    0.041042
   102  H    0.040320
   103  H    0.026865
   104  H    0.025563
   105  H    0.031340
   106  H    0.043099
   107  H    0.054269
   108  H    0.006602
   109  H    0.042706
   110  H    0.037516
   111  H    0.027732
   112  H    0.037330
   113  H    0.019212
   114  H    0.013788
   115  H    0.020064
   116  H    0.037602
   117  H    0.026653
   118  H    0.014039
   119  H    0.004270
   120  H    0.018239
   121  H    0.011708
   122  H    0.010504
   123  H    0.017758
   124  H    0.026097
   125  H    0.023149
   126  H    0.031250
   127  H    0.019252
   128  H    0.026125
   129  H    0.015420
   130  H   -0.002029
   131  H    0.016716
   132  H    0.015403
   133  H    0.029615
   134  H    0.039193
   135  H    0.035761
   136  H    0.024325
   137  H    0.027913
   138  H    0.035461
   139  H    0.034330
   140  H    0.030398
 Sum of Mulliken charges =  -0.00000

 Dipole moment (field-independent basis, Debye):
    X=              1.1242    Y=              3.5316    Z=              1.8044  Tot=              4.1222
 Quadrupole moment (field-independent basis, Debye-Ang):
   XX=           -390.6284   YY=           -407.6766   ZZ=           -399.1287
   XY=             44.6226   XZ=             -2.3539   YZ=             17.9526

 Normal termination of Gaussian 16 at Thu May  5 05:48:44 2022.
