 Gaussian 16, Revision A.03,
 Gaussian 16:  ES64L-G16RevA.03 25-Dec-2016

 --------------------
 #p ZINDO=(nstates=5)
 --------------------

 -----------------------------
 step_651_chromophore_20 ZINDO
 -----------------------------
 Symbolic Z-matrix:
 Charge =  0 Multiplicity = 1

                         Standard orientation:
 ---------------------------------------------------------------------
 Center     Atomic      Atomic             Coordinates (Angstroms)
 Number     Number       Type             X           Y           Z
 ---------------------------------------------------------------------
      1         12           0        4.081689    1.197336   -0.533730
      2          6           0        3.918566   -2.375312   -0.753382
      3          6           0        1.355726    1.302880   -2.570925
      4          6           0        3.828750    4.530665    0.128486
      5          6           0        6.641111    0.855695    1.846794
      6          7           0        2.699709   -0.355390   -1.383837
      7          6           0        2.851555   -1.733664   -1.440921
      8          6           0        1.870001   -2.352796   -2.451403
      9          6           0        1.447434   -1.087487   -3.307167
     10          6           0        1.838335    0.029916   -2.381742
     11          6           0        2.200292   -0.929054   -4.718766
     12          6           0        0.613245   -2.816156   -1.652005
     13          6           0        0.092991   -4.271819   -1.947498
     14          6           0       -1.285623   -4.323459   -2.411404
     15          8           0       -1.661363   -4.323150   -3.560381
     16          8           0       -2.199908   -4.294363   -1.342790
     17          7           0        2.780239    2.731167   -1.136072
     18          6           0        1.702214    2.561759   -1.952964
     19          6           0        1.231652    3.843912   -2.403097
     20          6           0        2.038582    4.845249   -1.744285
     21          6           0        2.990005    4.042280   -0.906326
     22          6           0        0.089886    3.974689   -3.451226
     23          6           0        1.757479    6.405210   -1.894054
     24          8           0        0.971829    6.825571   -2.743980
     25          6           0        2.567366    7.396109   -0.980402
     26          7           0        5.067144    2.498403    0.895495
     27          6           0        4.790242    3.852578    0.894630
     28          6           0        5.624751    4.553589    1.951197
     29          6           0        6.582318    3.392899    2.457445
     30          6           0        6.118141    2.136588    1.704174
     31          6           0        6.425904    5.767340    1.444627
     32          6           0        6.432761    3.204180    4.039094
     33          6           0        7.491548    3.834143    4.893344
     34          7           0        5.155334   -0.431699    0.325694
     35          6           0        6.201414   -0.354288    1.255426
     36          6           0        6.634639   -1.691989    1.403034
     37          6           0        5.879072   -2.512786    0.531035
     38          6           0        4.892123   -1.669189    0.001734
     39          6           0        7.640830   -2.149073    2.517172
     40          6           0        5.670797   -3.890001    0.041262
     41          8           0        6.227170   -4.974063    0.323851
     42          6           0        4.350608   -3.772596   -0.885810
     43          6           0        3.406529   -4.688540   -0.275858
     44          8           0        2.886292   -4.542732    0.791482
     45          8           0        3.219002   -5.817257   -1.057389
     46          6           0        2.376262   -6.805739   -0.414548
     47          6           0       -3.572462   -4.544900   -1.659544
     48          6           0       -4.390700   -4.530756   -0.332117
     49          6           0       -4.202295   -5.236654    0.848346
     50          6           0       -3.264690   -6.449493    0.965741
     51          6           0       -5.121094   -4.861987    1.998904
     52          6           0       -4.873489   -3.533094    2.794082
     53          6           0       -5.859185   -2.430690    2.249668
     54          6           0       -6.755399   -1.702795    3.323610
     55          6           0       -7.495666   -2.661383    4.264603
     56          6           0       -7.662472   -0.612215    2.626092
     57          6           0       -7.579754    0.812761    3.144765
     58          6           0       -6.668368    1.718407    2.288439
     59          6           0       -7.386000    2.261116    1.024473
     60          6           0       -6.374709    2.387861   -0.131389
     61          6           0       -8.005761    3.685986    1.293892
     62          6           0       -9.532907    3.480326    1.073451
     63          6           0      -10.170816    4.182813   -0.246382
     64          6           0      -10.524350    3.116390   -1.258701
     65          6           0      -10.201945    3.727542   -2.682316
     66          6           0      -12.102661    2.735868   -1.205759
     67          1           0        0.616640    1.330085   -3.374784
     68          1           0        3.743486    5.613505    0.231358
     69          1           0        7.440652    0.829348    2.589772
     70          1           0        2.292207   -3.158917   -3.050142
     71          1           0        0.415342   -1.063782   -3.656722
     72          1           0        1.480388   -0.812712   -5.528438
     73          1           0        2.746265   -1.850701   -4.919689
     74          1           0        2.873400   -0.083147   -4.573382
     75          1           0       -0.194887   -2.090274   -1.747384
     76          1           0        0.823156   -2.782879   -0.582863
     77          1           0        0.165630   -4.896813   -1.057952
     78          1           0        0.723468   -4.692414   -2.730267
     79          1           0       -0.802243    3.783048   -2.855507
     80          1           0        0.089046    3.218669   -4.236762
     81          1           0       -0.019200    4.911977   -3.997267
     82          1           0        3.644976    7.399106   -1.148653
     83          1           0        2.233189    7.247121    0.046289
     84          1           0        2.317229    8.424256   -1.238390
     85          1           0        4.941927    4.849855    2.747693
     86          1           0        7.584896    3.705642    2.165735
     87          1           0        5.799639    6.620629    1.705885
     88          1           0        6.612258    5.678554    0.373936
     89          1           0        7.360820    5.814012    2.002026
     90          1           0        6.495762    2.152579    4.319612
     91          1           0        5.457738    3.439369    4.465186
     92          1           0        8.032233    2.991982    5.324604
     93          1           0        7.135503    4.412723    5.746161
     94          1           0        8.286497    4.373986    4.380621
     95          1           0        7.519494   -3.232214    2.532887
     96          1           0        7.416251   -1.707933    3.487807
     97          1           0        8.661062   -1.901365    2.226455
     98          1           0        4.605778   -4.040116   -1.911728
     99          1           0        1.405795   -6.386835   -0.146371
    100          1           0        2.970284   -7.281713    0.366067
    101          1           0        2.262498   -7.656456   -1.086192
    102          1           0       -3.786302   -5.450516   -2.226939
    103          1           0       -3.983623   -3.786235   -2.326189
    104          1           0       -5.026985   -3.651766   -0.228672
    105          1           0       -2.816152   -6.645199   -0.009212
    106          1           0       -3.970490   -7.238441    1.223614
    107          1           0       -2.451613   -6.413897    1.691004
    108          1           0       -5.099408   -5.664133    2.737046
    109          1           0       -6.140550   -4.832148    1.614972
    110          1           0       -3.834815   -3.226782    2.671173
    111          1           0       -5.067427   -3.711548    3.851996
    112          1           0       -6.393767   -2.644331    1.323562
    113          1           0       -5.173210   -1.633426    1.962370
    114          1           0       -6.074694   -1.140444    3.962845
    115          1           0       -8.576062   -2.521139    4.221006
    116          1           0       -7.185720   -2.541419    5.303079
    117          1           0       -7.353941   -3.690007    3.933200
    118          1           0       -8.685443   -0.986889    2.666357
    119          1           0       -7.407262   -0.445380    1.578940
    120          1           0       -7.278710    0.797653    4.192256
    121          1           0       -8.553914    1.295651    3.064845
    122          1           0       -5.811662    1.124583    1.968493
    123          1           0       -6.327257    2.570630    2.876797
    124          1           0       -8.062056    1.462419    0.719189
    125          1           0       -5.456666    2.727330    0.348978
    126          1           0       -6.638007    3.049013   -0.956074
    127          1           0       -6.166278    1.394809   -0.529492
    128          1           0       -7.562446    4.502062    0.723812
    129          1           0       -7.847208    3.952022    2.338624
    130          1           0       -9.985749    3.948555    1.947792
    131          1           0       -9.968426    2.491000    1.213715
    132          1           0       -9.384522    4.831600   -0.634395
    133          1           0      -11.008900    4.707515    0.213583
    134          1           0       -9.968160    2.198327   -1.070045
    135          1           0       -9.672073    2.959173   -3.244370
    136          1           0       -9.587850    4.627172   -2.627988
    137          1           0      -11.108138    4.054104   -3.191788
    138          1           0      -12.281191    1.902050   -0.527229
    139          1           0      -12.308867    2.537567   -2.257288
    140          1           0      -12.709753    3.569835   -0.852904
 ---------------------------------------------------------------------

 SCF Done:  E(RZINDO/S) =  -473.982957365     A.U. after   19 cycles

 Excitation energies and oscillator strengths:

 Excited State   1:      Singlet-A      1.2320 eV 1006.37 nm  f=0.6007  <S**2>=0.000
     175 ->178        -0.18215
     176 ->177         0.66519
 This state for optimization and/or second-order correction.
 Total Energy, E(CIS/TDA) =  -473.937682518
 Copying the excited state density for this state as the 1-particle RhoCI density.

 Excited State   2:      Singlet-A      1.8848 eV  657.83 nm  f=0.0929  <S**2>=0.000
     175 ->177         0.57641
     176 ->178         0.37877

 Excited State   3:      Singlet-A      2.9876 eV  415.00 nm  f=0.1578  <S**2>=0.000
     169 ->177        -0.21334
     169 ->179        -0.26565
     169 ->180        -0.17647
     169 ->186         0.12057
     170 ->179        -0.10654
     172 ->177         0.13617
     173 ->177         0.28448
     173 ->179         0.10474
     175 ->177         0.14705
     176 ->178        -0.25249
     176 ->179        -0.18388

 Excited State   4:      Singlet-A      3.0152 eV  411.19 nm  f=0.4949  <S**2>=0.000
     169 ->177        -0.17259
     169 ->179        -0.22971
     169 ->180        -0.15027
     175 ->177        -0.24835
     176 ->178         0.38819
     176 ->179         0.30494

 Excited State   5:      Singlet-A      3.0752 eV  403.17 nm  f=0.3936  <S**2>=0.000
     171 ->177        -0.28270
     173 ->177        -0.15578
     175 ->177         0.16274
     176 ->178        -0.28296
     176 ->179         0.45571
     176 ->181         0.12873

 The electronic state is 1-A.
 Alpha  occ. eigenvalues --   -1.85016  -1.81139  -1.79593  -1.74936  -1.73284
 Alpha  occ. eigenvalues --   -1.71075  -1.65674  -1.58908  -1.58172  -1.56594
 Alpha  occ. eigenvalues --   -1.54110  -1.50464  -1.47811  -1.47064  -1.46075
 Alpha  occ. eigenvalues --   -1.44123  -1.43269  -1.40748  -1.38372  -1.36858
 Alpha  occ. eigenvalues --   -1.35911  -1.31576  -1.31241  -1.30544  -1.28354
 Alpha  occ. eigenvalues --   -1.26965  -1.26388  -1.23027  -1.20923  -1.17972
 Alpha  occ. eigenvalues --   -1.17421  -1.14740  -1.14430  -1.14114  -1.12656
 Alpha  occ. eigenvalues --   -1.12313  -1.09931  -1.09345  -1.05652  -1.03935
 Alpha  occ. eigenvalues --   -1.02541  -1.01340  -0.98748  -0.97871  -0.94950
 Alpha  occ. eigenvalues --   -0.94856  -0.94518  -0.94308  -0.92769  -0.92738
 Alpha  occ. eigenvalues --   -0.92022  -0.89534  -0.88363  -0.87998  -0.86893
 Alpha  occ. eigenvalues --   -0.85391  -0.85064  -0.84170  -0.81956  -0.80555
 Alpha  occ. eigenvalues --   -0.79858  -0.78641  -0.77801  -0.76999  -0.76634
 Alpha  occ. eigenvalues --   -0.76551  -0.75882  -0.74699  -0.74047  -0.73780
 Alpha  occ. eigenvalues --   -0.73571  -0.72225  -0.71760  -0.71237  -0.70559
 Alpha  occ. eigenvalues --   -0.70182  -0.69833  -0.69268  -0.68547  -0.68273
 Alpha  occ. eigenvalues --   -0.67362  -0.66713  -0.66329  -0.66023  -0.65493
 Alpha  occ. eigenvalues --   -0.65129  -0.65069  -0.64240  -0.63734  -0.63280
 Alpha  occ. eigenvalues --   -0.62895  -0.62810  -0.62370  -0.62149  -0.61986
 Alpha  occ. eigenvalues --   -0.61493  -0.61113  -0.61009  -0.60678  -0.60175
 Alpha  occ. eigenvalues --   -0.59836  -0.59259  -0.59045  -0.58481  -0.58273
 Alpha  occ. eigenvalues --   -0.58151  -0.58047  -0.56932  -0.56758  -0.56531
 Alpha  occ. eigenvalues --   -0.56350  -0.55850  -0.55709  -0.55460  -0.55043
 Alpha  occ. eigenvalues --   -0.54481  -0.53882  -0.53689  -0.53279  -0.53027
 Alpha  occ. eigenvalues --   -0.52698  -0.52634  -0.52376  -0.52144  -0.51470
 Alpha  occ. eigenvalues --   -0.51239  -0.51172  -0.50802  -0.50180  -0.50119
 Alpha  occ. eigenvalues --   -0.49804  -0.49737  -0.49499  -0.49168  -0.49108
 Alpha  occ. eigenvalues --   -0.48890  -0.48638  -0.48539  -0.48283  -0.48259
 Alpha  occ. eigenvalues --   -0.47551  -0.47326  -0.46909  -0.46858  -0.46631
 Alpha  occ. eigenvalues --   -0.46541  -0.46180  -0.46061  -0.45686  -0.45461
 Alpha  occ. eigenvalues --   -0.45265  -0.45097  -0.44701  -0.44596  -0.43770
 Alpha  occ. eigenvalues --   -0.43542  -0.43190  -0.42670  -0.42439  -0.42088
 Alpha  occ. eigenvalues --   -0.41923  -0.41864  -0.40115  -0.39391  -0.38820
 Alpha  occ. eigenvalues --   -0.38473  -0.37157  -0.36474  -0.35403  -0.35108
 Alpha  occ. eigenvalues --   -0.33554  -0.32940  -0.32219  -0.31780  -0.27004
 Alpha  occ. eigenvalues --   -0.22418
 Alpha virt. eigenvalues --   -0.09318  -0.02376  -0.00945   0.00732   0.01255
 Alpha virt. eigenvalues --    0.02063   0.02689   0.02945   0.04160   0.04213
 Alpha virt. eigenvalues --    0.05644   0.05684   0.06937   0.07385   0.07773

 Mulliken charges:
               1
     1  Mg   0.426738
     2  C   -0.038390
     3  C   -0.078598
     4  C   -0.087195
     5  C   -0.049916
     6  N   -0.301555
     7  C    0.115710
     8  C    0.010854
     9  C   -0.006005
    10  C    0.160113
    11  C   -0.058862
    12  C   -0.016619
    13  C    0.007507
    14  C    0.474229
    15  O   -0.517845
    16  O   -0.277662
    17  N   -0.309864
    18  C    0.119930
    19  C    0.041440
    20  C   -0.067946
    21  C    0.140346
    22  C   -0.038933
    23  C    0.327144
    24  O   -0.501131
    25  C   -0.032228
    26  N   -0.280165
    27  C    0.146185
    28  C   -0.003940
    29  C    0.001454
    30  C    0.104188
    31  C   -0.051118
    32  C   -0.030919
    33  C   -0.058351
    34  N   -0.319510
    35  C    0.073761
    36  C    0.023352
    37  C   -0.061772
    38  C    0.131359
    39  C   -0.049234
    40  C    0.327319
    41  O   -0.522023
    42  C    0.065205
    43  C    0.498454
    44  O   -0.521139
    45  O   -0.281148
    46  C    0.073432
    47  C    0.108850
    48  C   -0.113923
    49  C    0.008687
    50  C   -0.039980
    51  C   -0.020286
    52  C   -0.028349
    53  C   -0.041377
    54  C   -0.010370
    55  C   -0.054446
    56  C   -0.037656
    57  C   -0.034132
    58  C   -0.034166
    59  C   -0.014903
    60  C   -0.062619
    61  C   -0.027859
    62  C   -0.058694
    63  C   -0.038738
    64  C   -0.016459
    65  C   -0.063087
    66  C   -0.067353
    67  H    0.025989
    68  H    0.027898
    69  H    0.027651
    70  H    0.038728
    71  H    0.038569
    72  H    0.029464
    73  H    0.020810
    74  H    0.030441
    75  H    0.031711
    76  H    0.031029
    77  H    0.044340
    78  H    0.035932
    79  H    0.030850
    80  H    0.024147
    81  H    0.044497
    82  H    0.043061
    83  H    0.041517
    84  H    0.028703
    85  H    0.036105
    86  H    0.037958
    87  H    0.019128
    88  H    0.029572
    89  H    0.023214
    90  H    0.016339
    91  H    0.024831
    92  H    0.010109
    93  H    0.021579
    94  H    0.019011
    95  H    0.032524
    96  H    0.030979
    97  H    0.029001
    98  H    0.053227
    99  H    0.051028
   100  H    0.048843
   101  H    0.021057
   102  H    0.046047
   103  H    0.037101
   104  H    0.024931
   105  H    0.023094
   106  H    0.027341
   107  H    0.037699
   108  H    0.007528
   109  H    0.025967
   110  H    0.026719
   111  H    0.024084
   112  H    0.034576
   113  H    0.002781
   114  H    0.016537
   115  H    0.014759
   116  H    0.021562
   117  H    0.018054
   118  H    0.014786
   119  H    0.019506
   120  H    0.015824
   121  H    0.014557
   122  H    0.015293
   123  H    0.016481
   124  H    0.028774
   125  H    0.014569
   126  H    0.021117
   127  H    0.009563
   128  H    0.031708
   129  H    0.016217
   130  H   -0.004791
   131  H    0.027872
   132  H    0.026014
   133  H    0.028515
   134  H    0.030867
   135  H    0.017658
   136  H    0.018650
   137  H    0.020791
   138  H    0.021629
   139  H    0.023570
   140  H    0.022412
 Sum of Mulliken charges =  -0.00000

 Dipole moment (field-independent basis, Debye):
    X=              1.1389    Y=              4.4587    Z=              0.9839  Tot=              4.7059
 N-N= 4.464806212537D+03 E-N= 0.000000000000D+00  KE=-9.603423284040D+03
 Leave Link  601 at Thu May  5 06:07:49 2022, MaxMem=  6710886400 cpu:               1.5 elap:               0.1
 (Enter /sw/apps/gaussian-16.0/g16/l9999.exe)
 1\1\GINC-BP1-COMPUTE215\SP\RZINDO CIS\STO-3G\C55H74Mg1N4O6\OF15641\05-
 May-2022\0\\#p ZINDO=(nstates=5)\\step_651_chromophore_20 ZINDO\\0,1\M
 g,0,7.015,56.735,42.203\C,0,6.04,53.304,41.862\C,0,9.944,55.904,40.679
 \C,0,7.725,60.059,41.957\C,0,3.794,57.449,43.407\N,0,7.796,54.874,41.2
 18\C,0,7.302,53.578,41.266\C,0,8.36,52.569,40.786\C,0,9.691,53.423,40.
 891\C,0,9.136,54.819,40.922\C,0,10.582,53.15,42.201\C,0,8.094,52.304,3
 9.272\C,0,8.068,50.797,38.819\C,0,9.044,50.473,37.789\O,0,10.162,50.04

 Normal termination of Gaussian 16 at Thu May  5 06:07:49 2022.
