 Gaussian 16, Revision A.03,
 Gaussian 16:  ES64L-G16RevA.03 25-Dec-2016

 ------------------------------
 #p blyp/Def2SVP td=(nstates=5)
 ------------------------------

 ---------------------------------------------------
 step_1451_chromophore_26 TDDFT with blyp functional
 ---------------------------------------------------
 Symbolic Z-matrix:
 Charge =  0 Multiplicity = 1

                         Standard orientation:
 ---------------------------------------------------------------------
 Center     Atomic      Atomic             Coordinates (Angstroms)
 Number     Number       Type             X           Y           Z
 ---------------------------------------------------------------------
      1         12           0       -3.997930    1.283372    0.606766
      2          6           0       -5.091036   -1.938261   -0.182797
      3          6           0       -2.295356   -0.086590    3.350328
      4          6           0       -2.495948    4.304692    1.191429
      5          6           0       -5.123810    2.396056   -2.460566
      6          7           0       -3.640336   -0.778897    1.463334
      7          6           0       -4.293873   -1.934507    0.933002
      8          6           0       -3.825390   -3.166619    1.751346
      9          6           0       -3.142993   -2.502049    2.963238
     10          6           0       -3.055218   -0.996710    2.609296
     11          6           0       -3.866017   -2.699971    4.366838
     12          6           0       -2.787120   -4.208482    1.153915
     13          6           0       -1.747767   -3.548999    0.234468
     14          6           0       -0.457157   -4.412919    0.127130
     15          8           0       -0.369580   -5.560610   -0.292293
     16          8           0        0.693654   -3.752824    0.545432
     17          7           0       -2.599215    2.026938    2.094124
     18          6           0       -2.050437    1.301362    3.146785
     19          6           0       -1.228790    2.154442    3.912540
     20          6           0       -1.311041    3.471291    3.350984
     21          6           0       -2.250644    3.353852    2.192668
     22          6           0       -0.323462    1.615279    5.060379
     23          6           0       -0.661680    4.675594    3.811276
     24          8           0        0.178256    4.575392    4.703180
     25          6           0       -1.032154    6.087017    3.390364
     26          7           0       -3.973980    3.155199   -0.477164
     27          6           0       -3.275118    4.253117   -0.030362
     28          6           0       -3.081835    5.329550   -1.120535
     29          6           0       -3.784973    4.602978   -2.327580
     30          6           0       -4.304380    3.294114   -1.771805
     31          6           0       -3.739835    6.645511   -0.682344
     32          6           0       -2.925062    4.451275   -3.593855
     33          6           0       -3.197683    5.442712   -4.725565
     34          7           0       -5.033689    0.467214   -1.016676
     35          6           0       -5.525235    1.048795   -2.186093
     36          6           0       -6.163484    0.067738   -2.982379
     37          6           0       -6.064515   -1.126814   -2.227644
     38          6           0       -5.352808   -0.822302   -1.035879
     39          6           0       -6.751979    0.283242   -4.373664
     40          6           0       -6.289523   -2.565785   -2.208802
     41          8           0       -6.708745   -3.270294   -3.118018
     42          6           0       -5.759365   -3.067573   -0.833871
     43          6           0       -6.963752   -3.664320   -0.135201
     44          8           0       -7.188758   -4.821604    0.044195
     45          8           0       -7.740770   -2.680751    0.394834
     46          6           0       -8.800914   -3.064213    1.255015
     47          6           0        2.027480   -4.367000    0.494010
     48          6           0        3.049140   -3.458563   -0.074361
     49          6           0        3.327628   -3.183755   -1.320992
     50          6           0        2.538775   -3.815876   -2.485874
     51          6           0        4.594655   -2.476379   -1.713417
     52          6           0        4.316424   -0.975276   -1.845798
     53          6           0        5.233340   -0.279941   -2.961961
     54          6           0        5.608017    1.162171   -2.620807
     55          6           0        5.753849    1.810582   -3.980720
     56          6           0        7.046211    1.359904   -1.940708
     57          6           0        7.086176    1.062118   -0.394669
     58          6           0        7.545724   -0.337671    0.114716
     59          6           0        8.821399   -0.334949    1.057837
     60          6           0        8.575097   -0.985021    2.488119
     61          6           0       10.145234   -0.930346    0.397675
     62          6           0       11.174385    0.203127   -0.058439
     63          6           0       12.576089   -0.011761    0.721227
     64          6           0       13.692477    0.137292   -0.307772
     65          6           0       13.968029   -1.227961   -1.029533
     66          6           0       14.922338    0.839812    0.244008
     67          1           0       -1.805544   -0.537731    4.215186
     68          1           0       -2.083665    5.312107    1.280444
     69          1           0       -5.536904    2.962795   -3.296833
     70          1           0       -4.753933   -3.643521    2.063218
     71          1           0       -2.111921   -2.837177    3.080818
     72          1           0       -4.130460   -1.726837    4.781232
     73          1           0       -3.252437   -3.203437    5.113038
     74          1           0       -4.794347   -3.239701    4.178847
     75          1           0       -3.256801   -5.020304    0.598845
     76          1           0       -2.191413   -4.653378    1.951652
     77          1           0       -1.569474   -2.511898    0.516225
     78          1           0       -2.144883   -3.587326   -0.779658
     79          1           0        0.751774    1.751329    4.948185
     80          1           0       -0.354025    0.526881    5.106328
     81          1           0       -0.786103    2.032212    5.955494
     82          1           0       -2.068675    6.399708    3.263677
     83          1           0       -0.507207    6.314413    2.462084
     84          1           0       -0.555265    6.688943    4.163987
     85          1           0       -2.023513    5.524152   -1.292642
     86          1           0       -4.633494    5.206222   -2.650570
     87          1           0       -4.343328    6.594140    0.223821
     88          1           0       -4.370096    6.865498   -1.543949
     89          1           0       -2.961153    7.399748   -0.566544
     90          1           0       -3.102339    3.442653   -3.967039
     91          1           0       -1.882114    4.588987   -3.305780
     92          1           0       -2.289806    5.711637   -5.265333
     93          1           0       -3.625812    6.391264   -4.402383
     94          1           0       -3.873955    5.135912   -5.523915
     95          1           0       -6.371211    1.205993   -4.809680
     96          1           0       -7.833137    0.201846   -4.258829
     97          1           0       -6.385910   -0.630575   -4.842600
     98          1           0       -5.008594   -3.848492   -0.955991
     99          1           0       -9.347567   -2.216731    1.667540
    100          1           0       -8.398647   -3.499800    2.169300
    101          1           0       -9.459626   -3.760819    0.735419
    102          1           0        2.016386   -5.279087   -0.102937
    103          1           0        2.183075   -4.567201    1.553580
    104          1           0        3.686538   -2.902630    0.613743
    105          1           0        2.346316   -2.942433   -3.110360
    106          1           0        1.531345   -4.201317   -2.331072
    107          1           0        3.094076   -4.495318   -3.132691
    108          1           0        4.854653   -2.757526   -2.733546
    109          1           0        5.467149   -2.591676   -1.070014
    110          1           0        4.571465   -0.530580   -0.883433
    111          1           0        3.268707   -0.792802   -2.085533
    112          1           0        4.929247   -0.382194   -4.002732
    113          1           0        6.151353   -0.867645   -2.935424
    114          1           0        4.786033    1.745945   -2.207513
    115          1           0        6.311034    1.242707   -4.725000
    116          1           0        6.317244    2.743146   -3.934977
    117          1           0        4.751410    1.941593   -4.388716
    118          1           0        7.368781    2.389700   -2.090809
    119          1           0        7.796319    0.767631   -2.465763
    120          1           0        6.087614    1.197803    0.022330
    121          1           0        7.713225    1.797651    0.109018
    122          1           0        7.685776   -0.978573   -0.756794
    123          1           0        6.665256   -0.728588    0.623264
    124          1           0        8.922288    0.699206    1.386806
    125          1           0        8.892281   -2.022690    2.590395
    126          1           0        7.509362   -0.865804    2.681026
    127          1           0        9.140596   -0.379388    3.196287
    128          1           0        9.849827   -1.614370   -0.398455
    129          1           0       10.639833   -1.551731    1.143876
    130          1           0       10.715528    1.172736    0.131528
    131          1           0       11.268244    0.039828   -1.131808
    132          1           0       12.560046   -0.961794    1.255281
    133          1           0       12.698733    0.854546    1.371031
    134          1           0       13.381241    0.868417   -1.053902
    135          1           0       13.681705   -1.085409   -2.071116
    136          1           0       13.336477   -1.967546   -0.536963
    137          1           0       14.992610   -1.585703   -0.926145
    138          1           0       14.775868    1.345058    1.198832
    139          1           0       15.407911    1.491943   -0.482528
    140          1           0       15.606583    0.029216    0.494887
 ---------------------------------------------------------------------

 SCF Done:  E(RB-LYP) =  -3007.38420617     A.U. after   20 cycles

 Excitation energies and oscillator strengths:

 Excited State   1:      Singlet-A      1.7004 eV  729.16 nm  f=0.0018  <S**2>=0.000
     244 -> 247        0.70298
 This state for optimization and/or second-order correction.
 Total Energy, E(TD-HF/TD-DFT) =  -3007.32171830
 Copying the excited state density for this state as the 1-particle RhoCI density.

 Excited State   2:      Singlet-A      1.7395 eV  712.74 nm  f=0.1066  <S**2>=0.000
     243 -> 247       -0.39303
     245 -> 247        0.21948
     245 -> 248        0.12891
     246 -> 247        0.52786
     246 <- 247       -0.10052

 Excited State   3:      Singlet-A      1.8598 eV  666.65 nm  f=0.1769  <S**2>=0.000
     243 -> 247        0.43899
     245 -> 247       -0.31021
     245 -> 248        0.13164
     246 -> 247        0.43130
     246 -> 248        0.10565

 Excited State   4:      Singlet-A      2.0187 eV  614.17 nm  f=0.0717  <S**2>=0.000
     240 -> 247        0.10122
     243 -> 247        0.37925
     245 -> 247        0.53120
     246 -> 248       -0.22846

 Excited State   5:      Singlet-A      2.2145 eV  559.87 nm  f=0.0000  <S**2>=0.000
     242 -> 247        0.70706

 The electronic state is 1-A.
 Alpha  occ. eigenvalues --  -46.28544 -18.82053 -18.80449 -18.76842 -18.76243
 Alpha  occ. eigenvalues --  -18.75799 -18.74877 -14.03903 -14.03745 -14.01510
 Alpha  occ. eigenvalues --  -14.01134 -10.04096 -10.03897  -9.99789  -9.99225
 Alpha  occ. eigenvalues --   -9.97845  -9.97545  -9.97198  -9.97187  -9.96867
 Alpha  occ. eigenvalues --   -9.96769  -9.96680  -9.96134  -9.95893  -9.94851
 Alpha  occ. eigenvalues --   -9.94792  -9.94765  -9.94310  -9.94246  -9.94242
 Alpha  occ. eigenvalues --   -9.94144  -9.93992  -9.93984  -9.93904  -9.93893
 Alpha  occ. eigenvalues --   -9.93814  -9.93542  -9.93317  -9.93272  -9.93136
 Alpha  occ. eigenvalues --   -9.92925  -9.92880  -9.92797  -9.92759  -9.92443
 Alpha  occ. eigenvalues --   -9.92411  -9.92200  -9.92121  -9.92006  -9.91961
 Alpha  occ. eigenvalues --   -9.91913  -9.91912  -9.91861  -9.91578  -9.91540
 Alpha  occ. eigenvalues --   -9.91431  -9.91339  -9.91270  -9.91198  -9.91188
 Alpha  occ. eigenvalues --   -9.91156  -9.90974  -9.90825  -9.90682  -9.90401
 Alpha  occ. eigenvalues --   -9.90301  -2.92916  -1.73364  -1.72791  -1.72623
 Alpha  occ. eigenvalues --   -0.99412  -0.96246  -0.91368  -0.91138  -0.91121
 Alpha  occ. eigenvalues --   -0.88494  -0.87068  -0.86519  -0.86025  -0.84876
 Alpha  occ. eigenvalues --   -0.76753  -0.74006  -0.73226  -0.73029  -0.72404
 Alpha  occ. eigenvalues --   -0.72384  -0.71950  -0.71036  -0.70362  -0.70332
 Alpha  occ. eigenvalues --   -0.69287  -0.69100  -0.68262  -0.68108  -0.67491
 Alpha  occ. eigenvalues --   -0.66397  -0.66192  -0.65457  -0.64969  -0.64482
 Alpha  occ. eigenvalues --   -0.63922  -0.62852  -0.62529  -0.61807  -0.61400
 Alpha  occ. eigenvalues --   -0.60509  -0.60232  -0.60197  -0.59094  -0.58785
 Alpha  occ. eigenvalues --   -0.58588  -0.58194  -0.57223  -0.55930  -0.55298
 Alpha  occ. eigenvalues --   -0.54537  -0.53476  -0.53067  -0.52386  -0.52299
 Alpha  occ. eigenvalues --   -0.51815  -0.51594  -0.51174  -0.50855  -0.49940
 Alpha  occ. eigenvalues --   -0.49893  -0.49323  -0.48952  -0.48794  -0.47164
 Alpha  occ. eigenvalues --   -0.46371  -0.45918  -0.45607  -0.45187  -0.44862
 Alpha  occ. eigenvalues --   -0.44606  -0.44167  -0.43439  -0.43246  -0.43056
 Alpha  occ. eigenvalues --   -0.42504  -0.42349  -0.41839  -0.41623  -0.41227
 Alpha  occ. eigenvalues --   -0.40903  -0.40508  -0.40388  -0.40320  -0.40113
 Alpha  occ. eigenvalues --   -0.39837  -0.39606  -0.39440  -0.39357  -0.39269
 Alpha  occ. eigenvalues --   -0.38979  -0.38845  -0.38759  -0.38578  -0.38322
 Alpha  occ. eigenvalues --   -0.37981  -0.37766  -0.37678  -0.37361  -0.37283
 Alpha  occ. eigenvalues --   -0.37180  -0.36811  -0.36729  -0.36659  -0.36524
 Alpha  occ. eigenvalues --   -0.36404  -0.36084  -0.35973  -0.35880  -0.35534
 Alpha  occ. eigenvalues --   -0.35378  -0.35248  -0.35087  -0.34818  -0.34729
 Alpha  occ. eigenvalues --   -0.34610  -0.34411  -0.34381  -0.34234  -0.34159
 Alpha  occ. eigenvalues --   -0.34078  -0.33858  -0.33788  -0.33655  -0.33376
 Alpha  occ. eigenvalues --   -0.33179  -0.33050  -0.33011  -0.32738  -0.32508
 Alpha  occ. eigenvalues --   -0.32336  -0.32058  -0.31756  -0.31582  -0.31504
 Alpha  occ. eigenvalues --   -0.31419  -0.31193  -0.31092  -0.30716  -0.30648
 Alpha  occ. eigenvalues --   -0.30443  -0.30267  -0.30222  -0.30042  -0.29834
 Alpha  occ. eigenvalues --   -0.29622  -0.29496  -0.29478  -0.29341  -0.29158
 Alpha  occ. eigenvalues --   -0.29029  -0.28589  -0.28533  -0.28297  -0.28040
 Alpha  occ. eigenvalues --   -0.27719  -0.27515  -0.27040  -0.26768  -0.26746
 Alpha  occ. eigenvalues --   -0.26411  -0.26383  -0.25991  -0.25946  -0.25758
 Alpha  occ. eigenvalues --   -0.25432  -0.24627  -0.24439  -0.24061  -0.23759
 Alpha  occ. eigenvalues --   -0.23225  -0.22761  -0.21974  -0.21836  -0.20819
 Alpha  occ. eigenvalues --   -0.20534  -0.20377  -0.18920  -0.18390  -0.17764
 Alpha  occ. eigenvalues --   -0.16587
 Alpha virt. eigenvalues --   -0.12239  -0.07753  -0.06388  -0.04715  -0.02873
 Alpha virt. eigenvalues --   -0.02685  -0.02037  -0.01820  -0.01628  -0.00537
 Alpha virt. eigenvalues --    0.00546   0.00886   0.02087   0.02243   0.02480

 Mulliken charges:
               1
     1  Mg   0.667796
     2  C    0.103267
     3  C   -0.058177
     4  C   -0.025083
     5  C   -0.078442
     6  N   -0.202687
     7  C   -0.144663
     8  C    0.101108
     9  C   -0.057448
    10  C    0.016961
    11  C    0.123160
    12  C    0.088535
    13  C    0.130184
    14  C    0.068372
    15  O   -0.200634
    16  O   -0.295470
    17  N   -0.287488
    18  C    0.150981
    19  C   -0.128166
    20  C    0.073400
    21  C    0.150093
    22  C    0.184481
    23  C   -0.128635
    24  O   -0.179528
    25  C    0.131995
    26  N   -0.207186
    27  C   -0.016117
    28  C   -0.033257
    29  C    0.052609
    30  C   -0.018997
    31  C    0.136599
    32  C    0.124094
    33  C    0.045863
    34  N   -0.262493
    35  C    0.141696
    36  C   -0.205125
    37  C    0.108374
    38  C    0.031638
    39  C    0.191265
    40  C   -0.085369
    41  O   -0.129018
    42  C    0.064527
    43  C    0.088586
    44  O   -0.134281
    45  O   -0.260779
    46  C    0.228678
    47  C    0.366477
    48  C   -0.109896
    49  C   -0.118304
    50  C    0.125025
    51  C    0.147399
    52  C    0.048196
    53  C    0.107999
    54  C   -0.047974
    55  C    0.090895
    56  C    0.092228
    57  C    0.069986
    58  C    0.087727
    59  C   -0.078239
    60  C    0.072725
    61  C    0.096177
    62  C    0.054385
    63  C    0.110437
    64  C   -0.123241
    65  C    0.116655
    66  C    0.108557
    67  H   -0.066593
    68  H   -0.084466
    69  H   -0.051569
    70  H   -0.026819
    71  H   -0.010870
    72  H   -0.008043
    73  H    0.000153
    74  H   -0.009946
    75  H    0.007384
    76  H   -0.004759
    77  H    0.006130
    78  H    0.003616
    79  H    0.015736
    80  H   -0.035210
    81  H    0.014528
    82  H    0.009975
    83  H    0.007526
    84  H   -0.010438
    85  H   -0.009920
    86  H   -0.028252
    87  H    0.006961
    88  H   -0.015107
    89  H   -0.004308
    90  H   -0.016813
    91  H   -0.022466
    92  H   -0.013114
    93  H   -0.017690
    94  H   -0.009915
    95  H   -0.004432
    96  H    0.014184
    97  H    0.016224
    98  H   -0.008918
    99  H    0.004728
   100  H   -0.006122
   101  H    0.019826
   102  H    0.004217
   103  H   -0.023268
   104  H   -0.056030
   105  H   -0.027802
   106  H    0.001590
   107  H    0.004897
   108  H   -0.035995
   109  H   -0.014523
   110  H   -0.022536
   111  H   -0.016214
   112  H   -0.027451
   113  H   -0.045326
   114  H   -0.031331
   115  H   -0.029656
   116  H   -0.034123
   117  H   -0.021901
   118  H   -0.034541
   119  H   -0.032511
   120  H   -0.032706
   121  H   -0.038072
   122  H   -0.026942
   123  H   -0.033261
   124  H   -0.033401
   125  H   -0.006231
   126  H   -0.020777
   127  H   -0.013663
   128  H   -0.031159
   129  H   -0.038057
   130  H   -0.015720
   131  H   -0.019511
   132  H   -0.013254
   133  H   -0.038229
   134  H   -0.032797
   135  H   -0.005120
   136  H   -0.019549
   137  H   -0.013528
   138  H   -0.023161
   139  H   -0.010728
   140  H   -0.035260
 Sum of Mulliken charges =  -0.00000

 Dipole moment (field-independent basis, Debye):
    X=              0.6871    Y=              6.1858    Z=              0.1939  Tot=              6.2269
 Quadrupole moment (field-independent basis, Debye-Ang):
   XX=           -398.4906   YY=           -427.7373   ZZ=           -409.9739
   XY=            -41.9043   XZ=            -28.4035   YZ=            -39.0582

 Normal termination of Gaussian 16 at Thu Apr 28 05:51:59 2022.
