 Gaussian 16, Revision A.03,
 Gaussian 16:  ES64L-G16RevA.03 25-Dec-2016

 -----------------------------------
 #p cam-b3lyp/Def2SVP td=(nstates=5)
 -----------------------------------

 --------------------------------------------------------
 step_1451_chromophore_26 TDDFT with cam-b3lyp functional
 --------------------------------------------------------
 Symbolic Z-matrix:
 Charge =  0 Multiplicity = 1

                         Standard orientation:
 ---------------------------------------------------------------------
 Center     Atomic      Atomic             Coordinates (Angstroms)
 Number     Number       Type             X           Y           Z
 ---------------------------------------------------------------------
      1         12           0       -3.997930    1.283372    0.606766
      2          6           0       -5.091036   -1.938261   -0.182797
      3          6           0       -2.295356   -0.086590    3.350328
      4          6           0       -2.495948    4.304692    1.191429
      5          6           0       -5.123810    2.396056   -2.460566
      6          7           0       -3.640336   -0.778897    1.463334
      7          6           0       -4.293873   -1.934507    0.933002
      8          6           0       -3.825390   -3.166619    1.751346
      9          6           0       -3.142993   -2.502049    2.963238
     10          6           0       -3.055218   -0.996710    2.609296
     11          6           0       -3.866017   -2.699971    4.366838
     12          6           0       -2.787120   -4.208482    1.153915
     13          6           0       -1.747767   -3.548999    0.234468
     14          6           0       -0.457157   -4.412919    0.127130
     15          8           0       -0.369580   -5.560610   -0.292293
     16          8           0        0.693654   -3.752824    0.545432
     17          7           0       -2.599215    2.026938    2.094124
     18          6           0       -2.050437    1.301362    3.146785
     19          6           0       -1.228790    2.154442    3.912540
     20          6           0       -1.311041    3.471291    3.350984
     21          6           0       -2.250644    3.353852    2.192668
     22          6           0       -0.323462    1.615279    5.060379
     23          6           0       -0.661680    4.675594    3.811276
     24          8           0        0.178256    4.575392    4.703180
     25          6           0       -1.032154    6.087017    3.390364
     26          7           0       -3.973980    3.155199   -0.477164
     27          6           0       -3.275118    4.253117   -0.030362
     28          6           0       -3.081835    5.329550   -1.120535
     29          6           0       -3.784973    4.602978   -2.327580
     30          6           0       -4.304380    3.294114   -1.771805
     31          6           0       -3.739835    6.645511   -0.682344
     32          6           0       -2.925062    4.451275   -3.593855
     33          6           0       -3.197683    5.442712   -4.725565
     34          7           0       -5.033689    0.467214   -1.016676
     35          6           0       -5.525235    1.048795   -2.186093
     36          6           0       -6.163484    0.067738   -2.982379
     37          6           0       -6.064515   -1.126814   -2.227644
     38          6           0       -5.352808   -0.822302   -1.035879
     39          6           0       -6.751979    0.283242   -4.373664
     40          6           0       -6.289523   -2.565785   -2.208802
     41          8           0       -6.708745   -3.270294   -3.118018
     42          6           0       -5.759365   -3.067573   -0.833871
     43          6           0       -6.963752   -3.664320   -0.135201
     44          8           0       -7.188758   -4.821604    0.044195
     45          8           0       -7.740770   -2.680751    0.394834
     46          6           0       -8.800914   -3.064213    1.255015
     47          6           0        2.027480   -4.367000    0.494010
     48          6           0        3.049140   -3.458563   -0.074361
     49          6           0        3.327628   -3.183755   -1.320992
     50          6           0        2.538775   -3.815876   -2.485874
     51          6           0        4.594655   -2.476379   -1.713417
     52          6           0        4.316424   -0.975276   -1.845798
     53          6           0        5.233340   -0.279941   -2.961961
     54          6           0        5.608017    1.162171   -2.620807
     55          6           0        5.753849    1.810582   -3.980720
     56          6           0        7.046211    1.359904   -1.940708
     57          6           0        7.086176    1.062118   -0.394669
     58          6           0        7.545724   -0.337671    0.114716
     59          6           0        8.821399   -0.334949    1.057837
     60          6           0        8.575097   -0.985021    2.488119
     61          6           0       10.145234   -0.930346    0.397675
     62          6           0       11.174385    0.203127   -0.058439
     63          6           0       12.576089   -0.011761    0.721227
     64          6           0       13.692477    0.137292   -0.307772
     65          6           0       13.968029   -1.227961   -1.029533
     66          6           0       14.922338    0.839812    0.244008
     67          1           0       -1.805544   -0.537731    4.215186
     68          1           0       -2.083665    5.312107    1.280444
     69          1           0       -5.536904    2.962795   -3.296833
     70          1           0       -4.753933   -3.643521    2.063218
     71          1           0       -2.111921   -2.837177    3.080818
     72          1           0       -4.130460   -1.726837    4.781232
     73          1           0       -3.252437   -3.203437    5.113038
     74          1           0       -4.794347   -3.239701    4.178847
     75          1           0       -3.256801   -5.020304    0.598845
     76          1           0       -2.191413   -4.653378    1.951652
     77          1           0       -1.569474   -2.511898    0.516225
     78          1           0       -2.144883   -3.587326   -0.779658
     79          1           0        0.751774    1.751329    4.948185
     80          1           0       -0.354025    0.526881    5.106328
     81          1           0       -0.786103    2.032212    5.955494
     82          1           0       -2.068675    6.399708    3.263677
     83          1           0       -0.507207    6.314413    2.462084
     84          1           0       -0.555265    6.688943    4.163987
     85          1           0       -2.023513    5.524152   -1.292642
     86          1           0       -4.633494    5.206222   -2.650570
     87          1           0       -4.343328    6.594140    0.223821
     88          1           0       -4.370096    6.865498   -1.543949
     89          1           0       -2.961153    7.399748   -0.566544
     90          1           0       -3.102339    3.442653   -3.967039
     91          1           0       -1.882114    4.588987   -3.305780
     92          1           0       -2.289806    5.711637   -5.265333
     93          1           0       -3.625812    6.391264   -4.402383
     94          1           0       -3.873955    5.135912   -5.523915
     95          1           0       -6.371211    1.205993   -4.809680
     96          1           0       -7.833137    0.201846   -4.258829
     97          1           0       -6.385910   -0.630575   -4.842600
     98          1           0       -5.008594   -3.848492   -0.955991
     99          1           0       -9.347567   -2.216731    1.667540
    100          1           0       -8.398647   -3.499800    2.169300
    101          1           0       -9.459626   -3.760819    0.735419
    102          1           0        2.016386   -5.279087   -0.102937
    103          1           0        2.183075   -4.567201    1.553580
    104          1           0        3.686538   -2.902630    0.613743
    105          1           0        2.346316   -2.942433   -3.110360
    106          1           0        1.531345   -4.201317   -2.331072
    107          1           0        3.094076   -4.495318   -3.132691
    108          1           0        4.854653   -2.757526   -2.733546
    109          1           0        5.467149   -2.591676   -1.070014
    110          1           0        4.571465   -0.530580   -0.883433
    111          1           0        3.268707   -0.792802   -2.085533
    112          1           0        4.929247   -0.382194   -4.002732
    113          1           0        6.151353   -0.867645   -2.935424
    114          1           0        4.786033    1.745945   -2.207513
    115          1           0        6.311034    1.242707   -4.725000
    116          1           0        6.317244    2.743146   -3.934977
    117          1           0        4.751410    1.941593   -4.388716
    118          1           0        7.368781    2.389700   -2.090809
    119          1           0        7.796319    0.767631   -2.465763
    120          1           0        6.087614    1.197803    0.022330
    121          1           0        7.713225    1.797651    0.109018
    122          1           0        7.685776   -0.978573   -0.756794
    123          1           0        6.665256   -0.728588    0.623264
    124          1           0        8.922288    0.699206    1.386806
    125          1           0        8.892281   -2.022690    2.590395
    126          1           0        7.509362   -0.865804    2.681026
    127          1           0        9.140596   -0.379388    3.196287
    128          1           0        9.849827   -1.614370   -0.398455
    129          1           0       10.639833   -1.551731    1.143876
    130          1           0       10.715528    1.172736    0.131528
    131          1           0       11.268244    0.039828   -1.131808
    132          1           0       12.560046   -0.961794    1.255281
    133          1           0       12.698733    0.854546    1.371031
    134          1           0       13.381241    0.868417   -1.053902
    135          1           0       13.681705   -1.085409   -2.071116
    136          1           0       13.336477   -1.967546   -0.536963
    137          1           0       14.992610   -1.585703   -0.926145
    138          1           0       14.775868    1.345058    1.198832
    139          1           0       15.407911    1.491943   -0.482528
    140          1           0       15.606583    0.029216    0.494887
 ---------------------------------------------------------------------

 SCF Done:  E(RCAM-B3LYP) =  -3007.17697475     A.U. after   18 cycles

 Excitation energies and oscillator strengths:

 Excited State   1:      Singlet-A      1.7704 eV  700.30 nm  f=0.3437  <S**2>=0.000
     245 -> 248        0.17014
     246 -> 247        0.68614
 This state for optimization and/or second-order correction.
 Total Energy, E(TD-HF/TD-DFT) =  -3007.11191232
 Copying the excited state density for this state as the 1-particle RhoCI density.

 Excited State   2:      Singlet-A      2.2264 eV  556.89 nm  f=0.1237  <S**2>=0.000
     245 -> 247        0.64035
     246 -> 248       -0.27662

 Excited State   3:      Singlet-A      3.2296 eV  383.89 nm  f=0.0033  <S**2>=0.000
     241 -> 247       -0.29826
     242 -> 247        0.52188
     244 -> 247       -0.30867
     246 -> 248        0.14336

 Excited State   4:      Singlet-A      3.3088 eV  374.71 nm  f=0.0008  <S**2>=0.000
     240 -> 247        0.57189
     240 -> 248        0.19357
     240 -> 249        0.26490
     240 -> 250        0.14935
     240 -> 251       -0.11630

 Excited State   5:      Singlet-A      3.4362 eV  360.82 nm  f=0.0289  <S**2>=0.000
     241 -> 247       -0.19019
     242 -> 247        0.16481
     244 -> 247        0.57364
     246 -> 248        0.26889

 The electronic state is 1-A.
 Alpha  occ. eigenvalues --  -46.90220 -19.24735 -19.23219 -19.19803 -19.19209
 Alpha  occ. eigenvalues --  -19.18561 -19.18523 -14.42890 -14.42632 -14.40207
 Alpha  occ. eigenvalues --  -14.39317 -10.39293 -10.39268 -10.34797 -10.34708
 Alpha  occ. eigenvalues --  -10.32522 -10.31749 -10.31729 -10.31569 -10.31516
 Alpha  occ. eigenvalues --  -10.31228 -10.31153 -10.30740 -10.29515 -10.29438
 Alpha  occ. eigenvalues --  -10.28944 -10.28832 -10.28633 -10.28402 -10.28280
 Alpha  occ. eigenvalues --  -10.28210 -10.28143 -10.28139 -10.27954 -10.27826
 Alpha  occ. eigenvalues --  -10.27806 -10.27710 -10.27540 -10.27538 -10.26970
 Alpha  occ. eigenvalues --  -10.26917 -10.26847 -10.26795 -10.26690 -10.26429
 Alpha  occ. eigenvalues --  -10.26075 -10.26041 -10.25984 -10.25803 -10.25655
 Alpha  occ. eigenvalues --  -10.25608 -10.25522 -10.25510 -10.25324 -10.25226
 Alpha  occ. eigenvalues --  -10.25105 -10.25044 -10.25024 -10.24931 -10.24865
 Alpha  occ. eigenvalues --  -10.24700 -10.24565 -10.24476 -10.24458 -10.23980
 Alpha  occ. eigenvalues --  -10.23883  -3.18484  -1.93412  -1.92927  -1.92772
 Alpha  occ. eigenvalues --   -1.17831  -1.14658  -1.09989  -1.09334  -1.08952
 Alpha  occ. eigenvalues --   -1.06275  -1.04754  -1.04264  -1.03430  -1.02753
 Alpha  occ. eigenvalues --   -0.93725  -0.90865  -0.89898  -0.89831  -0.89271
 Alpha  occ. eigenvalues --   -0.89128  -0.88656  -0.87652  -0.86901  -0.86648
 Alpha  occ. eigenvalues --   -0.86178  -0.85550  -0.84535  -0.84159  -0.83657
 Alpha  occ. eigenvalues --   -0.82481  -0.82225  -0.81322  -0.81120  -0.80228
 Alpha  occ. eigenvalues --   -0.79729  -0.78318  -0.78190  -0.77630  -0.76744
 Alpha  occ. eigenvalues --   -0.75835  -0.75560  -0.75542  -0.74352  -0.73851
 Alpha  occ. eigenvalues --   -0.73810  -0.73194  -0.72203  -0.70855  -0.69880
 Alpha  occ. eigenvalues --   -0.69264  -0.67997  -0.67591  -0.66717  -0.66390
 Alpha  occ. eigenvalues --   -0.65935  -0.65748  -0.65432  -0.64747  -0.63918
 Alpha  occ. eigenvalues --   -0.63501  -0.63306  -0.62721  -0.62593  -0.60766
 Alpha  occ. eigenvalues --   -0.59933  -0.59577  -0.59033  -0.58684  -0.58274
 Alpha  occ. eigenvalues --   -0.58050  -0.57620  -0.56812  -0.56471  -0.56090
 Alpha  occ. eigenvalues --   -0.55542  -0.55369  -0.54708  -0.54444  -0.54131
 Alpha  occ. eigenvalues --   -0.53702  -0.53433  -0.52964  -0.52921  -0.52874
 Alpha  occ. eigenvalues --   -0.52734  -0.52464  -0.52160  -0.51918  -0.51854
 Alpha  occ. eigenvalues --   -0.51713  -0.51346  -0.51223  -0.51141  -0.50788
 Alpha  occ. eigenvalues --   -0.50610  -0.50240  -0.49908  -0.49604  -0.49432
 Alpha  occ. eigenvalues --   -0.49318  -0.49156  -0.49088  -0.48969  -0.48804
 Alpha  occ. eigenvalues --   -0.48627  -0.48542  -0.48373  -0.48199  -0.48097
 Alpha  occ. eigenvalues --   -0.47591  -0.47264  -0.47046  -0.46951  -0.46652
 Alpha  occ. eigenvalues --   -0.46448  -0.46362  -0.46108  -0.46021  -0.45908
 Alpha  occ. eigenvalues --   -0.45839  -0.45672  -0.45477  -0.45438  -0.45286
 Alpha  occ. eigenvalues --   -0.45032  -0.44685  -0.44616  -0.44374  -0.44059
 Alpha  occ. eigenvalues --   -0.43958  -0.43733  -0.43458  -0.43200  -0.42958
 Alpha  occ. eigenvalues --   -0.42922  -0.42517  -0.42467  -0.42085  -0.41987
 Alpha  occ. eigenvalues --   -0.41868  -0.41648  -0.41474  -0.41361  -0.41301
 Alpha  occ. eigenvalues --   -0.41071  -0.40785  -0.40693  -0.40563  -0.40291
 Alpha  occ. eigenvalues --   -0.40169  -0.40016  -0.39584  -0.39252  -0.38967
 Alpha  occ. eigenvalues --   -0.38651  -0.38436  -0.37865  -0.37850  -0.37550
 Alpha  occ. eigenvalues --   -0.37427  -0.37162  -0.37037  -0.36782  -0.36649
 Alpha  occ. eigenvalues --   -0.36353  -0.35423  -0.35052  -0.34970  -0.34710
 Alpha  occ. eigenvalues --   -0.33795  -0.33568  -0.33421  -0.31666  -0.31314
 Alpha  occ. eigenvalues --   -0.30533  -0.30345  -0.30294  -0.29565  -0.24668
 Alpha  occ. eigenvalues --   -0.22060
 Alpha virt. eigenvalues --   -0.09376  -0.02634   0.00042   0.02087   0.02405
 Alpha virt. eigenvalues --    0.04716   0.04812   0.05744   0.06181   0.06364
 Alpha virt. eigenvalues --    0.07330   0.08022   0.08318   0.08454   0.08732

 Mulliken charges:
               1
     1  Mg   0.797591
     2  C    0.068146
     3  C   -0.077083
     4  C   -0.052350
     5  C   -0.077770
     6  N   -0.273230
     7  C   -0.100591
     8  C    0.054945
     9  C   -0.111673
    10  C    0.043071
    11  C    0.066613
    12  C    0.033456
    13  C    0.061850
    14  C    0.152510
    15  O   -0.241599
    16  O   -0.361267
    17  N   -0.375046
    18  C    0.163397
    19  C   -0.128516
    20  C    0.003198
    21  C    0.185716
    22  C    0.135249
    23  C   -0.053545
    24  O   -0.216740
    25  C    0.046916
    26  N   -0.277265
    27  C    0.015267
    28  C   -0.088799
    29  C   -0.006569
    30  C   -0.006233
    31  C    0.078576
    32  C    0.064903
    33  C   -0.014023
    34  N   -0.350869
    35  C    0.136810
    36  C   -0.203179
    37  C    0.029725
    38  C    0.070032
    39  C    0.144754
    40  C    0.009506
    41  O   -0.171380
    42  C   -0.009873
    43  C    0.175773
    44  O   -0.173670
    45  O   -0.321582
    46  C    0.186684
    47  C    0.330759
    48  C   -0.130393
    49  C   -0.143985
    50  C    0.066876
    51  C    0.083370
    52  C    0.004507
    53  C    0.052747
    54  C   -0.107398
    55  C    0.029117
    56  C    0.040516
    57  C    0.017880
    58  C    0.038349
    59  C   -0.132599
    60  C    0.021319
    61  C    0.044660
    62  C    0.005416
    63  C    0.052718
    64  C   -0.182765
    65  C    0.056358
    66  C    0.050163
    67  H   -0.031080
    68  H   -0.049172
    69  H   -0.018427
    70  H    0.008358
    71  H    0.023200
    72  H    0.017953
    73  H    0.024727
    74  H    0.015225
    75  H    0.037476
    76  H    0.024849
    77  H    0.038576
    78  H    0.034945
    79  H    0.045413
    80  H   -0.006581
    81  H    0.041993
    82  H    0.040531
    83  H    0.036660
    84  H    0.028115
    85  H    0.024772
    86  H    0.006124
    87  H    0.031992
    88  H    0.009891
    89  H    0.019355
    90  H    0.015372
    91  H    0.004859
    92  H    0.011834
    93  H    0.003351
    94  H    0.014029
    95  H    0.016774
    96  H    0.038263
    97  H    0.039929
    98  H    0.031933
    99  H    0.028411
   100  H    0.014591
   101  H    0.043250
   102  H    0.037006
   103  H    0.007270
   104  H   -0.023908
   105  H   -0.004754
   106  H    0.025750
   107  H    0.029737
   108  H   -0.003911
   109  H    0.014382
   110  H    0.000179
   111  H    0.011740
   112  H    0.002689
   113  H   -0.017899
   114  H    0.000622
   115  H   -0.004603
   116  H   -0.007729
   117  H    0.004676
   118  H   -0.004719
   119  H   -0.005193
   120  H   -0.005202
   121  H   -0.009517
   122  H   -0.003985
   123  H   -0.007785
   124  H   -0.003195
   125  H    0.015763
   126  H    0.002496
   127  H    0.009345
   128  H   -0.002887
   129  H   -0.010417
   130  H    0.010225
   131  H    0.006936
   132  H    0.012861
   133  H   -0.008176
   134  H   -0.000372
   135  H    0.017753
   136  H    0.003168
   137  H    0.010808
   138  H    0.002019
   139  H    0.013481
   140  H   -0.011590
 Sum of Mulliken charges =  -0.00000

 Dipole moment (field-independent basis, Debye):
    X=              1.3415    Y=              7.1428    Z=              1.2770  Tot=              7.3791
 Quadrupole moment (field-independent basis, Debye-Ang):
   XX=           -404.0697   YY=           -423.5412   ZZ=           -407.1355
   XY=            -44.1447   XZ=            -31.8910   YZ=            -38.7511

 Normal termination of Gaussian 16 at Thu Apr 28 04:51:41 2022.
