 Gaussian 16, Revision A.03,
 Gaussian 16:  ES64L-G16RevA.03 25-Dec-2016

 ---------------------------------
 #p PBE1PBE/Def2SVP td=(nstates=5)
 ---------------------------------

 ------------------------------------------------------
 step_1451_chromophore_26 TDDFT with PBE1PBE functional
 ------------------------------------------------------
 Symbolic Z-matrix:
 Charge =  0 Multiplicity = 1

                         Standard orientation:
 ---------------------------------------------------------------------
 Center     Atomic      Atomic             Coordinates (Angstroms)
 Number     Number       Type             X           Y           Z
 ---------------------------------------------------------------------
      1         12           0       -3.997930    1.283372    0.606766
      2          6           0       -5.091036   -1.938261   -0.182797
      3          6           0       -2.295356   -0.086590    3.350328
      4          6           0       -2.495948    4.304692    1.191429
      5          6           0       -5.123810    2.396056   -2.460566
      6          7           0       -3.640336   -0.778897    1.463334
      7          6           0       -4.293873   -1.934507    0.933002
      8          6           0       -3.825390   -3.166619    1.751346
      9          6           0       -3.142993   -2.502049    2.963238
     10          6           0       -3.055218   -0.996710    2.609296
     11          6           0       -3.866017   -2.699971    4.366838
     12          6           0       -2.787120   -4.208482    1.153915
     13          6           0       -1.747767   -3.548999    0.234468
     14          6           0       -0.457157   -4.412919    0.127130
     15          8           0       -0.369580   -5.560610   -0.292293
     16          8           0        0.693654   -3.752824    0.545432
     17          7           0       -2.599215    2.026938    2.094124
     18          6           0       -2.050437    1.301362    3.146785
     19          6           0       -1.228790    2.154442    3.912540
     20          6           0       -1.311041    3.471291    3.350984
     21          6           0       -2.250644    3.353852    2.192668
     22          6           0       -0.323462    1.615279    5.060379
     23          6           0       -0.661680    4.675594    3.811276
     24          8           0        0.178256    4.575392    4.703180
     25          6           0       -1.032154    6.087017    3.390364
     26          7           0       -3.973980    3.155199   -0.477164
     27          6           0       -3.275118    4.253117   -0.030362
     28          6           0       -3.081835    5.329550   -1.120535
     29          6           0       -3.784973    4.602978   -2.327580
     30          6           0       -4.304380    3.294114   -1.771805
     31          6           0       -3.739835    6.645511   -0.682344
     32          6           0       -2.925062    4.451275   -3.593855
     33          6           0       -3.197683    5.442712   -4.725565
     34          7           0       -5.033689    0.467214   -1.016676
     35          6           0       -5.525235    1.048795   -2.186093
     36          6           0       -6.163484    0.067738   -2.982379
     37          6           0       -6.064515   -1.126814   -2.227644
     38          6           0       -5.352808   -0.822302   -1.035879
     39          6           0       -6.751979    0.283242   -4.373664
     40          6           0       -6.289523   -2.565785   -2.208802
     41          8           0       -6.708745   -3.270294   -3.118018
     42          6           0       -5.759365   -3.067573   -0.833871
     43          6           0       -6.963752   -3.664320   -0.135201
     44          8           0       -7.188758   -4.821604    0.044195
     45          8           0       -7.740770   -2.680751    0.394834
     46          6           0       -8.800914   -3.064213    1.255015
     47          6           0        2.027480   -4.367000    0.494010
     48          6           0        3.049140   -3.458563   -0.074361
     49          6           0        3.327628   -3.183755   -1.320992
     50          6           0        2.538775   -3.815876   -2.485874
     51          6           0        4.594655   -2.476379   -1.713417
     52          6           0        4.316424   -0.975276   -1.845798
     53          6           0        5.233340   -0.279941   -2.961961
     54          6           0        5.608017    1.162171   -2.620807
     55          6           0        5.753849    1.810582   -3.980720
     56          6           0        7.046211    1.359904   -1.940708
     57          6           0        7.086176    1.062118   -0.394669
     58          6           0        7.545724   -0.337671    0.114716
     59          6           0        8.821399   -0.334949    1.057837
     60          6           0        8.575097   -0.985021    2.488119
     61          6           0       10.145234   -0.930346    0.397675
     62          6           0       11.174385    0.203127   -0.058439
     63          6           0       12.576089   -0.011761    0.721227
     64          6           0       13.692477    0.137292   -0.307772
     65          6           0       13.968029   -1.227961   -1.029533
     66          6           0       14.922338    0.839812    0.244008
     67          1           0       -1.805544   -0.537731    4.215186
     68          1           0       -2.083665    5.312107    1.280444
     69          1           0       -5.536904    2.962795   -3.296833
     70          1           0       -4.753933   -3.643521    2.063218
     71          1           0       -2.111921   -2.837177    3.080818
     72          1           0       -4.130460   -1.726837    4.781232
     73          1           0       -3.252437   -3.203437    5.113038
     74          1           0       -4.794347   -3.239701    4.178847
     75          1           0       -3.256801   -5.020304    0.598845
     76          1           0       -2.191413   -4.653378    1.951652
     77          1           0       -1.569474   -2.511898    0.516225
     78          1           0       -2.144883   -3.587326   -0.779658
     79          1           0        0.751774    1.751329    4.948185
     80          1           0       -0.354025    0.526881    5.106328
     81          1           0       -0.786103    2.032212    5.955494
     82          1           0       -2.068675    6.399708    3.263677
     83          1           0       -0.507207    6.314413    2.462084
     84          1           0       -0.555265    6.688943    4.163987
     85          1           0       -2.023513    5.524152   -1.292642
     86          1           0       -4.633494    5.206222   -2.650570
     87          1           0       -4.343328    6.594140    0.223821
     88          1           0       -4.370096    6.865498   -1.543949
     89          1           0       -2.961153    7.399748   -0.566544
     90          1           0       -3.102339    3.442653   -3.967039
     91          1           0       -1.882114    4.588987   -3.305780
     92          1           0       -2.289806    5.711637   -5.265333
     93          1           0       -3.625812    6.391264   -4.402383
     94          1           0       -3.873955    5.135912   -5.523915
     95          1           0       -6.371211    1.205993   -4.809680
     96          1           0       -7.833137    0.201846   -4.258829
     97          1           0       -6.385910   -0.630575   -4.842600
     98          1           0       -5.008594   -3.848492   -0.955991
     99          1           0       -9.347567   -2.216731    1.667540
    100          1           0       -8.398647   -3.499800    2.169300
    101          1           0       -9.459626   -3.760819    0.735419
    102          1           0        2.016386   -5.279087   -0.102937
    103          1           0        2.183075   -4.567201    1.553580
    104          1           0        3.686538   -2.902630    0.613743
    105          1           0        2.346316   -2.942433   -3.110360
    106          1           0        1.531345   -4.201317   -2.331072
    107          1           0        3.094076   -4.495318   -3.132691
    108          1           0        4.854653   -2.757526   -2.733546
    109          1           0        5.467149   -2.591676   -1.070014
    110          1           0        4.571465   -0.530580   -0.883433
    111          1           0        3.268707   -0.792802   -2.085533
    112          1           0        4.929247   -0.382194   -4.002732
    113          1           0        6.151353   -0.867645   -2.935424
    114          1           0        4.786033    1.745945   -2.207513
    115          1           0        6.311034    1.242707   -4.725000
    116          1           0        6.317244    2.743146   -3.934977
    117          1           0        4.751410    1.941593   -4.388716
    118          1           0        7.368781    2.389700   -2.090809
    119          1           0        7.796319    0.767631   -2.465763
    120          1           0        6.087614    1.197803    0.022330
    121          1           0        7.713225    1.797651    0.109018
    122          1           0        7.685776   -0.978573   -0.756794
    123          1           0        6.665256   -0.728588    0.623264
    124          1           0        8.922288    0.699206    1.386806
    125          1           0        8.892281   -2.022690    2.590395
    126          1           0        7.509362   -0.865804    2.681026
    127          1           0        9.140596   -0.379388    3.196287
    128          1           0        9.849827   -1.614370   -0.398455
    129          1           0       10.639833   -1.551731    1.143876
    130          1           0       10.715528    1.172736    0.131528
    131          1           0       11.268244    0.039828   -1.131808
    132          1           0       12.560046   -0.961794    1.255281
    133          1           0       12.698733    0.854546    1.371031
    134          1           0       13.381241    0.868417   -1.053902
    135          1           0       13.681705   -1.085409   -2.071116
    136          1           0       13.336477   -1.967546   -0.536963
    137          1           0       14.992610   -1.585703   -0.926145
    138          1           0       14.775868    1.345058    1.198832
    139          1           0       15.407911    1.491943   -0.482528
    140          1           0       15.606583    0.029216    0.494887
 ---------------------------------------------------------------------

 SCF Done:  E(RPBE1PBE) =  -3005.36439089     A.U. after   16 cycles

 Excitation energies and oscillator strengths:

 Excited State   1:      Singlet-A      1.8669 eV  664.12 nm  f=0.3236  <S**2>=0.000
     245 -> 248        0.16860
     246 -> 247        0.69094
 This state for optimization and/or second-order correction.
 Total Energy, E(TD-HF/TD-DFT) =  -3005.29578397
 Copying the excited state density for this state as the 1-particle RhoCI density.

 Excited State   2:      Singlet-A      2.2093 eV  561.19 nm  f=0.1196  <S**2>=0.000
     245 -> 247        0.65147
     246 -> 248       -0.25421

 Excited State   3:      Singlet-A      2.8080 eV  441.53 nm  f=0.0002  <S**2>=0.000
     240 -> 247        0.28840
     242 -> 247        0.59105
     242 -> 248        0.10707
     242 -> 249        0.11804
     244 -> 247       -0.12279

 Excited State   4:      Singlet-A      2.8808 eV  430.38 nm  f=0.0041  <S**2>=0.000
     240 -> 247        0.15344
     241 -> 247       -0.12591
     244 -> 247        0.66109

 Excited State   5:      Singlet-A      2.9824 eV  415.72 nm  f=0.0010  <S**2>=0.000
     240 -> 247        0.42587
     241 -> 247        0.46575
     242 -> 247       -0.25437

 The electronic state is 1-A.
 Alpha  occ. eigenvalues --  -46.93577 -19.25461 -19.23915 -19.20123 -19.19477
 Alpha  occ. eigenvalues --  -19.19082 -19.18465 -14.42342 -14.42145 -14.39723
 Alpha  occ. eigenvalues --  -14.39142 -10.36408 -10.36306 -10.32148 -10.31619
 Alpha  occ. eigenvalues --  -10.30020 -10.29458 -10.29131 -10.29024 -10.28837
 Alpha  occ. eigenvalues --  -10.28746 -10.28565 -10.28360 -10.27636 -10.26737
 Alpha  occ. eigenvalues --  -10.26708 -10.26687 -10.26633 -10.26129 -10.26060
 Alpha  occ. eigenvalues --  -10.26038 -10.25988 -10.25824 -10.25750 -10.25473
 Alpha  occ. eigenvalues --  -10.25430 -10.25291 -10.25113 -10.25095 -10.24621
 Alpha  occ. eigenvalues --  -10.24488 -10.24405 -10.24199 -10.23856 -10.23780
 Alpha  occ. eigenvalues --  -10.23772 -10.23528 -10.23501 -10.23467 -10.23226
 Alpha  occ. eigenvalues --  -10.23138 -10.23069 -10.22897 -10.22888 -10.22863
 Alpha  occ. eigenvalues --  -10.22801 -10.22762 -10.22617 -10.22605 -10.22481
 Alpha  occ. eigenvalues --  -10.22392 -10.21951 -10.21944 -10.21866 -10.21393
 Alpha  occ. eigenvalues --  -10.21255  -3.15429  -1.88297  -1.87791  -1.87639
 Alpha  occ. eigenvalues --   -1.12712  -1.09444  -1.04415  -1.04372  -1.03900
 Alpha  occ. eigenvalues --   -1.01131  -0.99405  -0.98838  -0.98249  -0.97190
 Alpha  occ. eigenvalues --   -0.88245  -0.84994  -0.84202  -0.84046  -0.83481
 Alpha  occ. eigenvalues --   -0.83225  -0.82738  -0.81952  -0.81147  -0.80983
 Alpha  occ. eigenvalues --   -0.80261  -0.79740  -0.78771  -0.78551  -0.77855
 Alpha  occ. eigenvalues --   -0.76607  -0.76466  -0.75618  -0.75318  -0.74413
 Alpha  occ. eigenvalues --   -0.73852  -0.72703  -0.72449  -0.71739  -0.71140
 Alpha  occ. eigenvalues --   -0.70142  -0.69717  -0.69635  -0.68495  -0.68292
 Alpha  occ. eigenvalues --   -0.67969  -0.67507  -0.66600  -0.65097  -0.64271
 Alpha  occ. eigenvalues --   -0.63706  -0.62498  -0.61789  -0.60939  -0.60807
 Alpha  occ. eigenvalues --   -0.60330  -0.60309  -0.59609  -0.59348  -0.58126
 Alpha  occ. eigenvalues --   -0.58072  -0.57447  -0.57094  -0.56892  -0.55336
 Alpha  occ. eigenvalues --   -0.54460  -0.54122  -0.53365  -0.53204  -0.52737
 Alpha  occ. eigenvalues --   -0.52673  -0.52092  -0.51242  -0.50864  -0.50623
 Alpha  occ. eigenvalues --   -0.50223  -0.49954  -0.49150  -0.49088  -0.48696
 Alpha  occ. eigenvalues --   -0.48337  -0.48072  -0.47517  -0.47461  -0.47354
 Alpha  occ. eigenvalues --   -0.47229  -0.46795  -0.46613  -0.46562  -0.46240
 Alpha  occ. eigenvalues --   -0.46178  -0.45877  -0.45804  -0.45699  -0.45294
 Alpha  occ. eigenvalues --   -0.45112  -0.44705  -0.44601  -0.44157  -0.44080
 Alpha  occ. eigenvalues --   -0.44011  -0.43799  -0.43692  -0.43592  -0.43351
 Alpha  occ. eigenvalues --   -0.43158  -0.43074  -0.42963  -0.42774  -0.42661
 Alpha  occ. eigenvalues --   -0.42173  -0.41873  -0.41764  -0.41606  -0.41323
 Alpha  occ. eigenvalues --   -0.41226  -0.41033  -0.40718  -0.40663  -0.40578
 Alpha  occ. eigenvalues --   -0.40549  -0.40479  -0.40252  -0.40132  -0.39976
 Alpha  occ. eigenvalues --   -0.39703  -0.39540  -0.39317  -0.39077  -0.38753
 Alpha  occ. eigenvalues --   -0.38665  -0.38377  -0.38201  -0.38033  -0.37832
 Alpha  occ. eigenvalues --   -0.37715  -0.37378  -0.37359  -0.36822  -0.36735
 Alpha  occ. eigenvalues --   -0.36670  -0.36496  -0.36228  -0.36191  -0.36064
 Alpha  occ. eigenvalues --   -0.35895  -0.35642  -0.35569  -0.35467  -0.35076
 Alpha  occ. eigenvalues --   -0.35023  -0.34790  -0.34527  -0.34035  -0.33708
 Alpha  occ. eigenvalues --   -0.33416  -0.33245  -0.32851  -0.32637  -0.32434
 Alpha  occ. eigenvalues --   -0.32327  -0.32097  -0.31952  -0.31779  -0.31488
 Alpha  occ. eigenvalues --   -0.31239  -0.30374  -0.30045  -0.30012  -0.29892
 Alpha  occ. eigenvalues --   -0.28909  -0.28571  -0.28545  -0.27293  -0.25805
 Alpha  occ. eigenvalues --   -0.25757  -0.25669  -0.25566  -0.25364  -0.21539
 Alpha  occ. eigenvalues --   -0.19615
 Alpha virt. eigenvalues --   -0.11878  -0.06149  -0.04149  -0.02164  -0.00524
 Alpha virt. eigenvalues --    0.00317   0.00846   0.01232   0.01609   0.02304
 Alpha virt. eigenvalues --    0.03283   0.03836   0.04967   0.05035   0.05315

 Mulliken charges:
               1
     1  Mg   0.937487
     2  C    0.039567
     3  C   -0.064743
     4  C   -0.052242
     5  C   -0.078309
     6  N   -0.375207
     7  C   -0.017092
     8  C   -0.008126
     9  C   -0.188734
    10  C    0.079837
    11  C    0.011613
    12  C   -0.023209
    13  C   -0.018556
    14  C    0.222662
    15  O   -0.275541
    16  O   -0.391999
    17  N   -0.483133
    18  C    0.181674
    19  C   -0.149440
    20  C   -0.053847
    21  C    0.217798
    22  C    0.080462
    23  C   -0.005831
    24  O   -0.252062
    25  C   -0.028648
    26  N   -0.382549
    27  C    0.054413
    28  C   -0.166403
    29  C   -0.084458
    30  C    0.037672
    31  C    0.024076
    32  C    0.002949
    33  C   -0.084405
    34  N   -0.478745
    35  C    0.165780
    36  C   -0.223989
    37  C   -0.016193
    38  C    0.132577
    39  C    0.089760
    40  C    0.102605
    41  O   -0.214858
    42  C   -0.122514
    43  C    0.271163
    44  O   -0.212819
    45  O   -0.353111
    46  C    0.131740
    47  C    0.286031
    48  C   -0.134993
    49  C   -0.193002
    50  C    0.004761
    51  C    0.010693
    52  C   -0.055340
    53  C    0.002243
    54  C   -0.198227
    55  C   -0.033158
    56  C   -0.013771
    57  C   -0.042949
    58  C   -0.015016
    59  C   -0.213631
    60  C   -0.040583
    61  C   -0.007741
    62  C   -0.053496
    63  C   -0.009631
    64  C   -0.273660
    65  C   -0.002930
    66  C   -0.009886
    67  H    0.001348
    68  H   -0.013719
    69  H    0.014070
    70  H    0.048423
    71  H    0.059147
    72  H    0.045834
    73  H    0.051071
    74  H    0.041497
    75  H    0.067115
    76  H    0.059243
    77  H    0.073758
    78  H    0.068500
    79  H    0.069943
    80  H    0.018768
    81  H    0.068445
    82  H    0.065374
    83  H    0.062298
    84  H    0.055367
    85  H    0.059437
    86  H    0.043710
    87  H    0.058830
    88  H    0.036897
    89  H    0.046545
    90  H    0.049084
    91  H    0.038520
    92  H    0.040129
    93  H    0.031614
    94  H    0.041258
    95  H    0.044691
    96  H    0.067987
    97  H    0.069145
    98  H    0.072599
    99  H    0.051139
   100  H    0.037344
   101  H    0.064919
   102  H    0.062561
   103  H    0.035246
   104  H    0.007195
   105  H    0.024915
   106  H    0.053848
   107  H    0.056745
   108  H    0.030895
   109  H    0.047617
   110  H    0.036855
   111  H    0.045174
   112  H    0.033516
   113  H    0.015801
   114  H    0.037666
   115  H    0.024095
   116  H    0.020776
   117  H    0.034365
   118  H    0.027626
   119  H    0.026462
   120  H    0.027317
   121  H    0.022759
   122  H    0.028532
   123  H    0.023802
   124  H    0.034060
   125  H    0.042521
   126  H    0.030718
   127  H    0.037662
   128  H    0.028236
   129  H    0.022284
   130  H    0.041988
   131  H    0.039001
   132  H    0.042990
   133  H    0.026037
   134  H    0.038494
   135  H    0.044297
   136  H    0.031184
   137  H    0.037171
   138  H    0.028954
   139  H    0.040601
   140  H    0.016918
 Sum of Mulliken charges =  -0.00000

 Dipole moment (field-independent basis, Debye):
    X=              0.9701    Y=              6.9103    Z=              0.5998  Tot=              7.0038
 Quadrupole moment (field-independent basis, Debye-Ang):
   XX=           -397.8784   YY=           -420.7294   ZZ=           -403.8271
   XY=            -43.5535   XZ=            -29.5227   YZ=            -40.8702

 Normal termination of Gaussian 16 at Thu Apr 28 05:11:49 2022.
