 Gaussian 16, Revision A.03,
 Gaussian 16:  ES64L-G16RevA.03 25-Dec-2016

 --------------------------------
 #p wB97XD/Def2SVP td=(nstates=5)
 --------------------------------

 -----------------------------------------------------
 step_1451_chromophore_26 TDDFT with wB97XD functional
 -----------------------------------------------------
 Symbolic Z-matrix:
 Charge =  0 Multiplicity = 1

                         Standard orientation:
 ---------------------------------------------------------------------
 Center     Atomic      Atomic             Coordinates (Angstroms)
 Number     Number       Type             X           Y           Z
 ---------------------------------------------------------------------
      1         12           0       -3.997930    1.283372    0.606766
      2          6           0       -5.091036   -1.938261   -0.182797
      3          6           0       -2.295356   -0.086590    3.350328
      4          6           0       -2.495948    4.304692    1.191429
      5          6           0       -5.123810    2.396056   -2.460566
      6          7           0       -3.640336   -0.778897    1.463334
      7          6           0       -4.293873   -1.934507    0.933002
      8          6           0       -3.825390   -3.166619    1.751346
      9          6           0       -3.142993   -2.502049    2.963238
     10          6           0       -3.055218   -0.996710    2.609296
     11          6           0       -3.866017   -2.699971    4.366838
     12          6           0       -2.787120   -4.208482    1.153915
     13          6           0       -1.747767   -3.548999    0.234468
     14          6           0       -0.457157   -4.412919    0.127130
     15          8           0       -0.369580   -5.560610   -0.292293
     16          8           0        0.693654   -3.752824    0.545432
     17          7           0       -2.599215    2.026938    2.094124
     18          6           0       -2.050437    1.301362    3.146785
     19          6           0       -1.228790    2.154442    3.912540
     20          6           0       -1.311041    3.471291    3.350984
     21          6           0       -2.250644    3.353852    2.192668
     22          6           0       -0.323462    1.615279    5.060379
     23          6           0       -0.661680    4.675594    3.811276
     24          8           0        0.178256    4.575392    4.703180
     25          6           0       -1.032154    6.087017    3.390364
     26          7           0       -3.973980    3.155199   -0.477164
     27          6           0       -3.275118    4.253117   -0.030362
     28          6           0       -3.081835    5.329550   -1.120535
     29          6           0       -3.784973    4.602978   -2.327580
     30          6           0       -4.304380    3.294114   -1.771805
     31          6           0       -3.739835    6.645511   -0.682344
     32          6           0       -2.925062    4.451275   -3.593855
     33          6           0       -3.197683    5.442712   -4.725565
     34          7           0       -5.033689    0.467214   -1.016676
     35          6           0       -5.525235    1.048795   -2.186093
     36          6           0       -6.163484    0.067738   -2.982379
     37          6           0       -6.064515   -1.126814   -2.227644
     38          6           0       -5.352808   -0.822302   -1.035879
     39          6           0       -6.751979    0.283242   -4.373664
     40          6           0       -6.289523   -2.565785   -2.208802
     41          8           0       -6.708745   -3.270294   -3.118018
     42          6           0       -5.759365   -3.067573   -0.833871
     43          6           0       -6.963752   -3.664320   -0.135201
     44          8           0       -7.188758   -4.821604    0.044195
     45          8           0       -7.740770   -2.680751    0.394834
     46          6           0       -8.800914   -3.064213    1.255015
     47          6           0        2.027480   -4.367000    0.494010
     48          6           0        3.049140   -3.458563   -0.074361
     49          6           0        3.327628   -3.183755   -1.320992
     50          6           0        2.538775   -3.815876   -2.485874
     51          6           0        4.594655   -2.476379   -1.713417
     52          6           0        4.316424   -0.975276   -1.845798
     53          6           0        5.233340   -0.279941   -2.961961
     54          6           0        5.608017    1.162171   -2.620807
     55          6           0        5.753849    1.810582   -3.980720
     56          6           0        7.046211    1.359904   -1.940708
     57          6           0        7.086176    1.062118   -0.394669
     58          6           0        7.545724   -0.337671    0.114716
     59          6           0        8.821399   -0.334949    1.057837
     60          6           0        8.575097   -0.985021    2.488119
     61          6           0       10.145234   -0.930346    0.397675
     62          6           0       11.174385    0.203127   -0.058439
     63          6           0       12.576089   -0.011761    0.721227
     64          6           0       13.692477    0.137292   -0.307772
     65          6           0       13.968029   -1.227961   -1.029533
     66          6           0       14.922338    0.839812    0.244008
     67          1           0       -1.805544   -0.537731    4.215186
     68          1           0       -2.083665    5.312107    1.280444
     69          1           0       -5.536904    2.962795   -3.296833
     70          1           0       -4.753933   -3.643521    2.063218
     71          1           0       -2.111921   -2.837177    3.080818
     72          1           0       -4.130460   -1.726837    4.781232
     73          1           0       -3.252437   -3.203437    5.113038
     74          1           0       -4.794347   -3.239701    4.178847
     75          1           0       -3.256801   -5.020304    0.598845
     76          1           0       -2.191413   -4.653378    1.951652
     77          1           0       -1.569474   -2.511898    0.516225
     78          1           0       -2.144883   -3.587326   -0.779658
     79          1           0        0.751774    1.751329    4.948185
     80          1           0       -0.354025    0.526881    5.106328
     81          1           0       -0.786103    2.032212    5.955494
     82          1           0       -2.068675    6.399708    3.263677
     83          1           0       -0.507207    6.314413    2.462084
     84          1           0       -0.555265    6.688943    4.163987
     85          1           0       -2.023513    5.524152   -1.292642
     86          1           0       -4.633494    5.206222   -2.650570
     87          1           0       -4.343328    6.594140    0.223821
     88          1           0       -4.370096    6.865498   -1.543949
     89          1           0       -2.961153    7.399748   -0.566544
     90          1           0       -3.102339    3.442653   -3.967039
     91          1           0       -1.882114    4.588987   -3.305780
     92          1           0       -2.289806    5.711637   -5.265333
     93          1           0       -3.625812    6.391264   -4.402383
     94          1           0       -3.873955    5.135912   -5.523915
     95          1           0       -6.371211    1.205993   -4.809680
     96          1           0       -7.833137    0.201846   -4.258829
     97          1           0       -6.385910   -0.630575   -4.842600
     98          1           0       -5.008594   -3.848492   -0.955991
     99          1           0       -9.347567   -2.216731    1.667540
    100          1           0       -8.398647   -3.499800    2.169300
    101          1           0       -9.459626   -3.760819    0.735419
    102          1           0        2.016386   -5.279087   -0.102937
    103          1           0        2.183075   -4.567201    1.553580
    104          1           0        3.686538   -2.902630    0.613743
    105          1           0        2.346316   -2.942433   -3.110360
    106          1           0        1.531345   -4.201317   -2.331072
    107          1           0        3.094076   -4.495318   -3.132691
    108          1           0        4.854653   -2.757526   -2.733546
    109          1           0        5.467149   -2.591676   -1.070014
    110          1           0        4.571465   -0.530580   -0.883433
    111          1           0        3.268707   -0.792802   -2.085533
    112          1           0        4.929247   -0.382194   -4.002732
    113          1           0        6.151353   -0.867645   -2.935424
    114          1           0        4.786033    1.745945   -2.207513
    115          1           0        6.311034    1.242707   -4.725000
    116          1           0        6.317244    2.743146   -3.934977
    117          1           0        4.751410    1.941593   -4.388716
    118          1           0        7.368781    2.389700   -2.090809
    119          1           0        7.796319    0.767631   -2.465763
    120          1           0        6.087614    1.197803    0.022330
    121          1           0        7.713225    1.797651    0.109018
    122          1           0        7.685776   -0.978573   -0.756794
    123          1           0        6.665256   -0.728588    0.623264
    124          1           0        8.922288    0.699206    1.386806
    125          1           0        8.892281   -2.022690    2.590395
    126          1           0        7.509362   -0.865804    2.681026
    127          1           0        9.140596   -0.379388    3.196287
    128          1           0        9.849827   -1.614370   -0.398455
    129          1           0       10.639833   -1.551731    1.143876
    130          1           0       10.715528    1.172736    0.131528
    131          1           0       11.268244    0.039828   -1.131808
    132          1           0       12.560046   -0.961794    1.255281
    133          1           0       12.698733    0.854546    1.371031
    134          1           0       13.381241    0.868417   -1.053902
    135          1           0       13.681705   -1.085409   -2.071116
    136          1           0       13.336477   -1.967546   -0.536963
    137          1           0       14.992610   -1.585703   -0.926145
    138          1           0       14.775868    1.345058    1.198832
    139          1           0       15.407911    1.491943   -0.482528
    140          1           0       15.606583    0.029216    0.494887
 ---------------------------------------------------------------------

 SCF Done:  E(RwB97XD) =  -3007.87587446     A.U. after   19 cycles

 Excitation energies and oscillator strengths:

 Excited State   1:      Singlet-A      1.7428 eV  711.43 nm  f=0.3421  <S**2>=0.000
     245 -> 248        0.17296
     246 -> 247        0.68374
     245 <- 248        0.10410
 This state for optimization and/or second-order correction.
 Total Energy, E(TD-HF/TD-DFT) =  -3007.81182929
 Copying the excited state density for this state as the 1-particle RhoCI density.

 Excited State   2:      Singlet-A      2.1824 eV  568.11 nm  f=0.1242  <S**2>=0.000
     245 -> 247        0.63767
     246 -> 248       -0.27596

 Excited State   3:      Singlet-A      3.2341 eV  383.37 nm  f=0.0041  <S**2>=0.000
     241 -> 247        0.59340
     242 -> 247        0.16616
     244 -> 247       -0.24868
     246 -> 248        0.16775

 Excited State   4:      Singlet-A      3.2940 eV  376.40 nm  f=0.0010  <S**2>=0.000
     240 -> 247        0.56283
     240 -> 248        0.19280
     240 -> 249        0.28468
     240 -> 250        0.18583

 Excited State   5:      Singlet-A      3.4959 eV  354.66 nm  f=0.0954  <S**2>=0.000
     241 -> 247        0.14245
     244 -> 247        0.55543
     244 -> 249       -0.11564
     245 -> 247        0.11204
     246 -> 248        0.34664

 The electronic state is 1-A.
 Alpha  occ. eigenvalues --  -46.96546 -19.29916 -19.28466 -19.24705 -19.24148
 Alpha  occ. eigenvalues --  -19.23652 -19.23493 -14.47475 -14.47224 -14.44861
 Alpha  occ. eigenvalues --  -14.43852 -10.43103 -10.43092 -10.38812 -10.38655
 Alpha  occ. eigenvalues --  -10.36640 -10.35889 -10.35830 -10.35533 -10.35318
 Alpha  occ. eigenvalues --  -10.35252 -10.35093 -10.34661 -10.33777 -10.33348
 Alpha  occ. eigenvalues --  -10.33006 -10.32899 -10.32535 -10.32476 -10.32320
 Alpha  occ. eigenvalues --  -10.32265 -10.32200 -10.32168 -10.31995 -10.31848
 Alpha  occ. eigenvalues --  -10.31791 -10.31709 -10.31632 -10.31545 -10.30858
 Alpha  occ. eigenvalues --  -10.30830 -10.30826 -10.30691 -10.30687 -10.30360
 Alpha  occ. eigenvalues --  -10.30059 -10.29872 -10.29792 -10.29782 -10.29603
 Alpha  occ. eigenvalues --  -10.29526 -10.29449 -10.29332 -10.29253 -10.29170
 Alpha  occ. eigenvalues --  -10.29040 -10.28976 -10.28968 -10.28873 -10.28788
 Alpha  occ. eigenvalues --  -10.28653 -10.28372 -10.28336 -10.28313 -10.27818
 Alpha  occ. eigenvalues --  -10.27689  -3.22284  -1.95896  -1.95390  -1.95235
 Alpha  occ. eigenvalues --   -1.19970  -1.16820  -1.12265  -1.11491  -1.11121
 Alpha  occ. eigenvalues --   -1.08475  -1.06740  -1.06265  -1.05438  -1.04842
 Alpha  occ. eigenvalues --   -0.95650  -0.92662  -0.91750  -0.91684  -0.91231
 Alpha  occ. eigenvalues --   -0.90901  -0.90413  -0.89595  -0.88673  -0.88589
 Alpha  occ. eigenvalues --   -0.88182  -0.87426  -0.86436  -0.86039  -0.85521
 Alpha  occ. eigenvalues --   -0.84289  -0.84159  -0.83285  -0.83064  -0.82073
 Alpha  occ. eigenvalues --   -0.81543  -0.80240  -0.80114  -0.79563  -0.78648
 Alpha  occ. eigenvalues --   -0.77775  -0.77396  -0.77343  -0.76184  -0.75793
 Alpha  occ. eigenvalues --   -0.75654  -0.75106  -0.74192  -0.72789  -0.71797
 Alpha  occ. eigenvalues --   -0.71259  -0.70014  -0.69454  -0.68579  -0.68294
 Alpha  occ. eigenvalues --   -0.67910  -0.67746  -0.67278  -0.66731  -0.65741
 Alpha  occ. eigenvalues --   -0.65448  -0.65125  -0.64576  -0.64535  -0.62738
 Alpha  occ. eigenvalues --   -0.61923  -0.61626  -0.60900  -0.60662  -0.60166
 Alpha  occ. eigenvalues --   -0.60024  -0.59537  -0.58825  -0.58328  -0.57965
 Alpha  occ. eigenvalues --   -0.57506  -0.57272  -0.56577  -0.56373  -0.56041
 Alpha  occ. eigenvalues --   -0.55653  -0.55374  -0.54897  -0.54802  -0.54764
 Alpha  occ. eigenvalues --   -0.54605  -0.54445  -0.54030  -0.53880  -0.53762
 Alpha  occ. eigenvalues --   -0.53584  -0.53237  -0.53105  -0.53035  -0.52718
 Alpha  occ. eigenvalues --   -0.52485  -0.52179  -0.51822  -0.51491  -0.51316
 Alpha  occ. eigenvalues --   -0.51217  -0.51090  -0.51007  -0.50920  -0.50677
 Alpha  occ. eigenvalues --   -0.50608  -0.50435  -0.50262  -0.50130  -0.49994
 Alpha  occ. eigenvalues --   -0.49520  -0.49157  -0.49013  -0.48849  -0.48509
 Alpha  occ. eigenvalues --   -0.48342  -0.48252  -0.47928  -0.47871  -0.47836
 Alpha  occ. eigenvalues --   -0.47762  -0.47588  -0.47398  -0.47323  -0.47224
 Alpha  occ. eigenvalues --   -0.46939  -0.46618  -0.46510  -0.46258  -0.45939
 Alpha  occ. eigenvalues --   -0.45881  -0.45634  -0.45378  -0.45188  -0.44906
 Alpha  occ. eigenvalues --   -0.44793  -0.44425  -0.44350  -0.44108  -0.43867
 Alpha  occ. eigenvalues --   -0.43809  -0.43545  -0.43335  -0.43266  -0.43165
 Alpha  occ. eigenvalues --   -0.42929  -0.42656  -0.42600  -0.42474  -0.42159
 Alpha  occ. eigenvalues --   -0.42062  -0.41901  -0.41489  -0.41106  -0.40798
 Alpha  occ. eigenvalues --   -0.40488  -0.40290  -0.39807  -0.39690  -0.39508
 Alpha  occ. eigenvalues --   -0.39387  -0.39005  -0.39004  -0.38776  -0.38500
 Alpha  occ. eigenvalues --   -0.38214  -0.37428  -0.36968  -0.36891  -0.36719
 Alpha  occ. eigenvalues --   -0.35708  -0.35572  -0.35408  -0.33874  -0.33289
 Alpha  occ. eigenvalues --   -0.32679  -0.32386  -0.32284  -0.31648  -0.26605
 Alpha  occ. eigenvalues --   -0.23896
 Alpha virt. eigenvalues --   -0.07705  -0.00700   0.02105   0.04353   0.05377
 Alpha virt. eigenvalues --    0.07034   0.07408   0.08066   0.08550   0.08757
 Alpha virt. eigenvalues --    0.09843   0.10665   0.11594   0.11685   0.12055

 Mulliken charges:
               1
     1  Mg   0.930536
     2  C    0.046190
     3  C   -0.089452
     4  C   -0.064693
     5  C   -0.088515
     6  N   -0.341989
     7  C   -0.059468
     8  C    0.017669
     9  C   -0.164945
    10  C    0.072063
    11  C    0.022218
    12  C   -0.011744
    13  C    0.001869
    14  C    0.209847
    15  O   -0.271468
    16  O   -0.390424
    17  N   -0.454460
    18  C    0.181425
    19  C   -0.142293
    20  C   -0.042747
    21  C    0.214013
    22  C    0.090523
    23  C   -0.008982
    24  O   -0.245525
    25  C   -0.017072
    26  N   -0.349181
    27  C    0.043440
    28  C   -0.142396
    29  C   -0.054917
    30  C    0.020613
    31  C    0.032569
    32  C    0.017328
    33  C   -0.068429
    34  N   -0.439536
    35  C    0.148763
    36  C   -0.219679
    37  C   -0.014596
    38  C    0.106710
    39  C    0.102738
    40  C    0.082867
    41  O   -0.208421
    42  C   -0.077889
    43  C    0.246246
    44  O   -0.207815
    45  O   -0.351969
    46  C    0.146681
    47  C    0.298782
    48  C   -0.147804
    49  C   -0.175807
    50  C    0.018935
    51  C    0.034503
    52  C   -0.037773
    53  C    0.016932
    54  C   -0.169864
    55  C   -0.018522
    56  C    0.001303
    57  C   -0.025773
    58  C    0.002029
    59  C   -0.184691
    60  C   -0.025316
    61  C    0.007993
    62  C   -0.038469
    63  C    0.008690
    64  C   -0.243853
    65  C    0.007857
    66  C    0.002877
    67  H   -0.006068
    68  H   -0.026518
    69  H    0.007286
    70  H    0.036710
    71  H    0.048019
    72  H    0.038621
    73  H    0.046892
    74  H    0.036704
    75  H    0.062933
    76  H    0.049160
    77  H    0.063153
    78  H    0.062023
    79  H    0.069039
    80  H    0.015671
    81  H    0.065771
    82  H    0.062341
    83  H    0.058936
    84  H    0.054801
    85  H    0.050789
    86  H    0.029287
    87  H    0.053480
    88  H    0.030767
    89  H    0.041665
    90  H    0.040550
    91  H    0.029521
    92  H    0.034422
    93  H    0.023249
    94  H    0.035783
    95  H    0.037823
    96  H    0.061431
    97  H    0.062615
    98  H    0.063746
    99  H    0.047412
   100  H    0.031816
   101  H    0.061012
   102  H    0.057780
   103  H    0.032386
   104  H    0.003186
   105  H    0.016439
   106  H    0.048582
   107  H    0.052260
   108  H    0.020597
   109  H    0.039209
   110  H    0.020979
   111  H    0.036578
   112  H    0.026076
   113  H    0.001991
   114  H    0.028072
   115  H    0.016262
   116  H    0.014157
   117  H    0.028042
   118  H    0.019378
   119  H    0.016894
   120  H    0.018510
   121  H    0.013873
   122  H    0.014087
   123  H    0.012808
   124  H    0.019037
   125  H    0.036716
   126  H    0.023813
   127  H    0.031482
   128  H    0.021278
   129  H    0.009863
   130  H    0.033244
   131  H    0.029617
   132  H    0.033767
   133  H    0.016660
   134  H    0.025872
   135  H    0.039222
   136  H    0.023132
   137  H    0.031921
   138  H    0.023019
   139  H    0.036015
   140  H    0.008621
 Sum of Mulliken charges =  -0.00000

 Dipole moment (field-independent basis, Debye):
    X=              1.4866    Y=              7.3665    Z=              1.4589  Tot=              7.6553
 Quadrupole moment (field-independent basis, Debye-Ang):
   XX=           -401.3701   YY=           -419.4812   ZZ=           -402.5728
   XY=            -44.5373   XZ=            -32.2605   YZ=            -39.1745

 Normal termination of Gaussian 16 at Thu Apr 28 05:38:54 2022.
