 Gaussian 16, Revision A.03,
 Gaussian 16:  ES64L-G16RevA.03 25-Dec-2016

 --------------------
 #p ZINDO=(nstates=5)
 --------------------

 ------------------------------
 step_1451_chromophore_26 ZINDO
 ------------------------------
 Symbolic Z-matrix:
 Charge =  0 Multiplicity = 1

                         Standard orientation:
 ---------------------------------------------------------------------
 Center     Atomic      Atomic             Coordinates (Angstroms)
 Number     Number       Type             X           Y           Z
 ---------------------------------------------------------------------
      1         12           0       -3.997930    1.283372    0.606766
      2          6           0       -5.091036   -1.938261   -0.182797
      3          6           0       -2.295356   -0.086590    3.350328
      4          6           0       -2.495948    4.304692    1.191429
      5          6           0       -5.123810    2.396056   -2.460566
      6          7           0       -3.640336   -0.778897    1.463334
      7          6           0       -4.293873   -1.934507    0.933002
      8          6           0       -3.825390   -3.166619    1.751346
      9          6           0       -3.142993   -2.502049    2.963238
     10          6           0       -3.055218   -0.996710    2.609296
     11          6           0       -3.866017   -2.699971    4.366838
     12          6           0       -2.787120   -4.208482    1.153915
     13          6           0       -1.747767   -3.548999    0.234468
     14          6           0       -0.457157   -4.412919    0.127130
     15          8           0       -0.369580   -5.560610   -0.292293
     16          8           0        0.693654   -3.752824    0.545432
     17          7           0       -2.599215    2.026938    2.094124
     18          6           0       -2.050437    1.301362    3.146785
     19          6           0       -1.228790    2.154442    3.912540
     20          6           0       -1.311041    3.471291    3.350984
     21          6           0       -2.250644    3.353852    2.192668
     22          6           0       -0.323462    1.615279    5.060379
     23          6           0       -0.661680    4.675594    3.811276
     24          8           0        0.178256    4.575392    4.703180
     25          6           0       -1.032154    6.087017    3.390364
     26          7           0       -3.973980    3.155199   -0.477164
     27          6           0       -3.275118    4.253117   -0.030362
     28          6           0       -3.081835    5.329550   -1.120535
     29          6           0       -3.784973    4.602978   -2.327580
     30          6           0       -4.304380    3.294114   -1.771805
     31          6           0       -3.739835    6.645511   -0.682344
     32          6           0       -2.925062    4.451275   -3.593855
     33          6           0       -3.197683    5.442712   -4.725565
     34          7           0       -5.033689    0.467214   -1.016676
     35          6           0       -5.525235    1.048795   -2.186093
     36          6           0       -6.163484    0.067738   -2.982379
     37          6           0       -6.064515   -1.126814   -2.227644
     38          6           0       -5.352808   -0.822302   -1.035879
     39          6           0       -6.751979    0.283242   -4.373664
     40          6           0       -6.289523   -2.565785   -2.208802
     41          8           0       -6.708745   -3.270294   -3.118018
     42          6           0       -5.759365   -3.067573   -0.833871
     43          6           0       -6.963752   -3.664320   -0.135201
     44          8           0       -7.188758   -4.821604    0.044195
     45          8           0       -7.740770   -2.680751    0.394834
     46          6           0       -8.800914   -3.064213    1.255015
     47          6           0        2.027480   -4.367000    0.494010
     48          6           0        3.049140   -3.458563   -0.074361
     49          6           0        3.327628   -3.183755   -1.320992
     50          6           0        2.538775   -3.815876   -2.485874
     51          6           0        4.594655   -2.476379   -1.713417
     52          6           0        4.316424   -0.975276   -1.845798
     53          6           0        5.233340   -0.279941   -2.961961
     54          6           0        5.608017    1.162171   -2.620807
     55          6           0        5.753849    1.810582   -3.980720
     56          6           0        7.046211    1.359904   -1.940708
     57          6           0        7.086176    1.062118   -0.394669
     58          6           0        7.545724   -0.337671    0.114716
     59          6           0        8.821399   -0.334949    1.057837
     60          6           0        8.575097   -0.985021    2.488119
     61          6           0       10.145234   -0.930346    0.397675
     62          6           0       11.174385    0.203127   -0.058439
     63          6           0       12.576089   -0.011761    0.721227
     64          6           0       13.692477    0.137292   -0.307772
     65          6           0       13.968029   -1.227961   -1.029533
     66          6           0       14.922338    0.839812    0.244008
     67          1           0       -1.805544   -0.537731    4.215186
     68          1           0       -2.083665    5.312107    1.280444
     69          1           0       -5.536904    2.962795   -3.296833
     70          1           0       -4.753933   -3.643521    2.063218
     71          1           0       -2.111921   -2.837177    3.080818
     72          1           0       -4.130460   -1.726837    4.781232
     73          1           0       -3.252437   -3.203437    5.113038
     74          1           0       -4.794347   -3.239701    4.178847
     75          1           0       -3.256801   -5.020304    0.598845
     76          1           0       -2.191413   -4.653378    1.951652
     77          1           0       -1.569474   -2.511898    0.516225
     78          1           0       -2.144883   -3.587326   -0.779658
     79          1           0        0.751774    1.751329    4.948185
     80          1           0       -0.354025    0.526881    5.106328
     81          1           0       -0.786103    2.032212    5.955494
     82          1           0       -2.068675    6.399708    3.263677
     83          1           0       -0.507207    6.314413    2.462084
     84          1           0       -0.555265    6.688943    4.163987
     85          1           0       -2.023513    5.524152   -1.292642
     86          1           0       -4.633494    5.206222   -2.650570
     87          1           0       -4.343328    6.594140    0.223821
     88          1           0       -4.370096    6.865498   -1.543949
     89          1           0       -2.961153    7.399748   -0.566544
     90          1           0       -3.102339    3.442653   -3.967039
     91          1           0       -1.882114    4.588987   -3.305780
     92          1           0       -2.289806    5.711637   -5.265333
     93          1           0       -3.625812    6.391264   -4.402383
     94          1           0       -3.873955    5.135912   -5.523915
     95          1           0       -6.371211    1.205993   -4.809680
     96          1           0       -7.833137    0.201846   -4.258829
     97          1           0       -6.385910   -0.630575   -4.842600
     98          1           0       -5.008594   -3.848492   -0.955991
     99          1           0       -9.347567   -2.216731    1.667540
    100          1           0       -8.398647   -3.499800    2.169300
    101          1           0       -9.459626   -3.760819    0.735419
    102          1           0        2.016386   -5.279087   -0.102937
    103          1           0        2.183075   -4.567201    1.553580
    104          1           0        3.686538   -2.902630    0.613743
    105          1           0        2.346316   -2.942433   -3.110360
    106          1           0        1.531345   -4.201317   -2.331072
    107          1           0        3.094076   -4.495318   -3.132691
    108          1           0        4.854653   -2.757526   -2.733546
    109          1           0        5.467149   -2.591676   -1.070014
    110          1           0        4.571465   -0.530580   -0.883433
    111          1           0        3.268707   -0.792802   -2.085533
    112          1           0        4.929247   -0.382194   -4.002732
    113          1           0        6.151353   -0.867645   -2.935424
    114          1           0        4.786033    1.745945   -2.207513
    115          1           0        6.311034    1.242707   -4.725000
    116          1           0        6.317244    2.743146   -3.934977
    117          1           0        4.751410    1.941593   -4.388716
    118          1           0        7.368781    2.389700   -2.090809
    119          1           0        7.796319    0.767631   -2.465763
    120          1           0        6.087614    1.197803    0.022330
    121          1           0        7.713225    1.797651    0.109018
    122          1           0        7.685776   -0.978573   -0.756794
    123          1           0        6.665256   -0.728588    0.623264
    124          1           0        8.922288    0.699206    1.386806
    125          1           0        8.892281   -2.022690    2.590395
    126          1           0        7.509362   -0.865804    2.681026
    127          1           0        9.140596   -0.379388    3.196287
    128          1           0        9.849827   -1.614370   -0.398455
    129          1           0       10.639833   -1.551731    1.143876
    130          1           0       10.715528    1.172736    0.131528
    131          1           0       11.268244    0.039828   -1.131808
    132          1           0       12.560046   -0.961794    1.255281
    133          1           0       12.698733    0.854546    1.371031
    134          1           0       13.381241    0.868417   -1.053902
    135          1           0       13.681705   -1.085409   -2.071116
    136          1           0       13.336477   -1.967546   -0.536963
    137          1           0       14.992610   -1.585703   -0.926145
    138          1           0       14.775868    1.345058    1.198832
    139          1           0       15.407911    1.491943   -0.482528
    140          1           0       15.606583    0.029216    0.494887
 ---------------------------------------------------------------------

 SCF Done:  E(RZINDO/S) =  -474.266753005     A.U. after   19 cycles

 Excitation energies and oscillator strengths:

 Excited State   1:      Singlet-A      1.3639 eV  909.07 nm  f=0.5238  <S**2>=0.000
     175 ->178        -0.15113
     176 ->177         0.67086
 This state for optimization and/or second-order correction.
 Total Energy, E(CIS/TDA) =  -474.216632063
 Copying the excited state density for this state as the 1-particle RhoCI density.

 Excited State   2:      Singlet-A      1.9685 eV  629.85 nm  f=0.0479  <S**2>=0.000
     175 ->177         0.53400
     176 ->178         0.41661

 Excited State   3:      Singlet-A      2.7840 eV  445.35 nm  f=0.0006  <S**2>=0.000
     167 ->177         0.10900
     167 ->179        -0.11733
     168 ->177         0.36825
     168 ->178        -0.23866
     168 ->179        -0.31661
     168 ->180         0.25449
     168 ->184        -0.13699
     168 ->185         0.12787
     168 ->189        -0.10004

 Excited State   4:      Singlet-A      2.9665 eV  417.95 nm  f=1.0617  <S**2>=0.000
     170 ->177         0.11912
     171 ->177        -0.10633
     175 ->177        -0.37412
     176 ->178         0.52642
     176 ->179         0.13152

 Excited State   5:      Singlet-A      3.0706 eV  403.77 nm  f=0.0091  <S**2>=0.000
     170 ->177         0.15919
     170 ->179         0.24528
     170 ->180         0.24882
     170 ->185        -0.13239
     170 ->187         0.13995
     171 ->177         0.18111
     171 ->179         0.23592
     171 ->180         0.24132
     171 ->185        -0.13075
     171 ->187         0.13478
     176 ->179        -0.18254

 The electronic state is 1-A.
 Alpha  occ. eigenvalues --   -1.84545  -1.80911  -1.80500  -1.75001  -1.72338
 Alpha  occ. eigenvalues --   -1.70477  -1.63725  -1.61166  -1.60101  -1.58743
 Alpha  occ. eigenvalues --   -1.54640  -1.51616  -1.48878  -1.48000  -1.47329
 Alpha  occ. eigenvalues --   -1.46424  -1.42900  -1.41733  -1.38611  -1.36162
 Alpha  occ. eigenvalues --   -1.35733  -1.33253  -1.32880  -1.31124  -1.28450
 Alpha  occ. eigenvalues --   -1.27888  -1.27035  -1.22343  -1.20736  -1.19166
 Alpha  occ. eigenvalues --   -1.16517  -1.15984  -1.14642  -1.13327  -1.13145
 Alpha  occ. eigenvalues --   -1.11398  -1.10788  -1.10093  -1.06287  -1.04725
 Alpha  occ. eigenvalues --   -1.02946  -1.02127  -0.99479  -0.97857  -0.96356
 Alpha  occ. eigenvalues --   -0.96175  -0.94535  -0.94134  -0.93100  -0.92483
 Alpha  occ. eigenvalues --   -0.91783  -0.90606  -0.89370  -0.89085  -0.87551
 Alpha  occ. eigenvalues --   -0.85589  -0.84667  -0.84401  -0.83028  -0.81624
 Alpha  occ. eigenvalues --   -0.80242  -0.79602  -0.78599  -0.78054  -0.77505
 Alpha  occ. eigenvalues --   -0.76793  -0.75119  -0.74399  -0.73606  -0.73412
 Alpha  occ. eigenvalues --   -0.72891  -0.72436  -0.71629  -0.71486  -0.70861
 Alpha  occ. eigenvalues --   -0.70508  -0.70008  -0.69018  -0.68916  -0.68588
 Alpha  occ. eigenvalues --   -0.67476  -0.66617  -0.66471  -0.65970  -0.65673
 Alpha  occ. eigenvalues --   -0.65368  -0.64804  -0.64336  -0.64038  -0.63840
 Alpha  occ. eigenvalues --   -0.63239  -0.63131  -0.62674  -0.62459  -0.62191
 Alpha  occ. eigenvalues --   -0.61648  -0.61120  -0.60751  -0.60350  -0.60103
 Alpha  occ. eigenvalues --   -0.59983  -0.59114  -0.59079  -0.58683  -0.58096
 Alpha  occ. eigenvalues --   -0.57938  -0.57499  -0.56997  -0.56646  -0.56479
 Alpha  occ. eigenvalues --   -0.56361  -0.56154  -0.55851  -0.55637  -0.54975
 Alpha  occ. eigenvalues --   -0.54453  -0.54064  -0.53733  -0.53330  -0.53142
 Alpha  occ. eigenvalues --   -0.52770  -0.52712  -0.52104  -0.51946  -0.51940
 Alpha  occ. eigenvalues --   -0.51004  -0.50925  -0.50847  -0.50646  -0.50455
 Alpha  occ. eigenvalues --   -0.49641  -0.49453  -0.49425  -0.49170  -0.48795
 Alpha  occ. eigenvalues --   -0.48525  -0.48339  -0.48070  -0.47948  -0.47847
 Alpha  occ. eigenvalues --   -0.47524  -0.47483  -0.47292  -0.47166  -0.46942
 Alpha  occ. eigenvalues --   -0.46593  -0.46350  -0.45915  -0.45798  -0.45679
 Alpha  occ. eigenvalues --   -0.45568  -0.45422  -0.45114  -0.44805  -0.44420
 Alpha  occ. eigenvalues --   -0.44224  -0.43885  -0.43278  -0.42822  -0.42501
 Alpha  occ. eigenvalues --   -0.41925  -0.41756  -0.41355  -0.39445  -0.38851
 Alpha  occ. eigenvalues --   -0.38418  -0.37501  -0.36189  -0.35172  -0.34333
 Alpha  occ. eigenvalues --   -0.34215  -0.33034  -0.32786  -0.31991  -0.27519
 Alpha  occ. eigenvalues --   -0.22819
 Alpha virt. eigenvalues --   -0.09009  -0.03086  -0.01103   0.00963   0.01342
 Alpha virt. eigenvalues --    0.02116   0.02602   0.03197   0.04203   0.05086
 Alpha virt. eigenvalues --    0.05923   0.06072   0.06525   0.07152   0.07887

 Mulliken charges:
               1
     1  Mg   0.429067
     2  C   -0.012013
     3  C   -0.092691
     4  C   -0.086937
     5  C   -0.053128
     6  N   -0.289002
     7  C    0.067837
     8  C    0.002669
     9  C   -0.001099
    10  C    0.191513
    11  C   -0.055111
    12  C   -0.015013
    13  C    0.011174
    14  C    0.461361
    15  O   -0.518194
    16  O   -0.293232
    17  N   -0.350770
    18  C    0.148369
    19  C    0.063406
    20  C   -0.028751
    21  C    0.137764
    22  C   -0.038432
    23  C    0.331470
    24  O   -0.527571
    25  C   -0.033092
    26  N   -0.258675
    27  C    0.146803
    28  C    0.003298
    29  C    0.006532
    30  C    0.086934
    31  C   -0.051798
    32  C   -0.023358
    33  C   -0.058621
    34  N   -0.317589
    35  C    0.051229
    36  C    0.018322
    37  C   -0.078619
    38  C    0.098440
    39  C   -0.046416
    40  C    0.329760
    41  O   -0.526695
    42  C    0.066032
    43  C    0.491874
    44  O   -0.506206
    45  O   -0.272765
    46  C    0.080848
    47  C    0.116805
    48  C   -0.083358
    49  C    0.014438
    50  C   -0.053275
    51  C   -0.018642
    52  C   -0.036936
    53  C   -0.039412
    54  C   -0.013121
    55  C   -0.059271
    56  C   -0.029854
    57  C   -0.044414
    58  C   -0.036325
    59  C   -0.025211
    60  C   -0.063568
    61  C   -0.044505
    62  C   -0.048996
    63  C   -0.034234
    64  C   -0.012129
    65  C   -0.059455
    66  C   -0.060058
    67  H    0.025901
    68  H    0.025537
    69  H    0.019575
    70  H    0.033815
    71  H    0.031684
    72  H    0.020639
    73  H    0.026894
    74  H    0.026234
    75  H    0.035816
    76  H    0.028571
    77  H    0.043431
    78  H    0.043390
    79  H    0.048630
    80  H    0.016254
    81  H    0.044412
    82  H    0.038033
    83  H    0.036739
    84  H    0.035445
    85  H    0.038687
    86  H    0.028256
    87  H    0.029885
    88  H    0.024515
    89  H    0.020441
    90  H    0.027517
    91  H    0.020248
    92  H    0.013383
    93  H    0.014059
    94  H    0.020056
    95  H    0.031556
    96  H    0.039668
    97  H    0.039233
    98  H    0.053579
    99  H    0.028440
   100  H    0.030890
   101  H    0.051111
   102  H    0.057648
   103  H    0.035216
   104  H    0.016289
   105  H    0.011944
   106  H    0.034162
   107  H    0.031471
   108  H    0.018769
   109  H    0.031106
   110  H    0.021981
   111  H    0.023976
   112  H    0.030913
   113  H    0.011027
   114  H    0.033185
   115  H    0.012980
   116  H    0.008319
   117  H    0.009992
   118  H    0.016786
   119  H    0.024615
   120  H    0.014345
   121  H    0.016081
   122  H    0.017945
   123  H    0.017052
   124  H    0.022072
   125  H    0.023506
   126  H    0.017479
   127  H    0.016372
   128  H    0.022047
   129  H    0.018206
   130  H    0.029548
   131  H    0.022593
   132  H    0.036931
   133  H    0.017207
   134  H    0.014427
   135  H    0.022215
   136  H    0.018797
   137  H    0.023715
   138  H    0.019791
   139  H    0.020746
   140  H    0.008624
 Sum of Mulliken charges =  -0.00000

 Dipole moment (field-independent basis, Debye):
    X=              2.6371    Y=              9.7573    Z=              3.5586  Tot=             10.7156
 N-N= 4.474746326817D+03 E-N= 0.000000000000D+00  KE=-9.623046015455D+03
 Leave Link  601 at Thu Apr 28 05:52:06 2022, MaxMem=  6710886400 cpu:               0.8 elap:               0.1
 (Enter /sw/apps/gaussian-16.0/g16/l9999.exe)
 1\1\GINC-BP1-COMPUTE070\SP\RZINDO CIS\STO-3G\C55H74Mg1N4O6\OF15641\28-
 Apr-2022\0\\#p ZINDO=(nstates=5)\\step_1451_chromophore_26 ZINDO\\0,1\
 Mg,0,-9.181,17.752,42.468\C,0,-5.729,17.258,42.66\C,0,-8.546,21.123,41
 .736\C,0,-12.503,18.238,41.794\C,0,-9.653,14.333,42.511\N,0,-7.361,19.
 054,42.141\C,0,-6.037,18.559,42.355\C,0,-5.041,19.707,42.043\C,0,-5.97
 6,20.931,41.983\C,0,-7.412,20.351,42.006\C,0,-5.794,22.006,43.142\C,0,
 -4.185,19.717,40.706\C,0,-4.94,19.109,39.514\C,0,-4.369,19.623,38.16\O

 Normal termination of Gaussian 16 at Thu Apr 28 05:52:07 2022.
