 Gaussian 16, Revision A.03,
 Gaussian 16:  ES64L-G16RevA.03 25-Dec-2016

 ------------------------------
 #p blyp/Def2SVP td=(nstates=5)
 ------------------------------

 --------------------------------------------------
 step_301_chromophore_23 TDDFT with blyp functional
 --------------------------------------------------
 Symbolic Z-matrix:
 Charge =  0 Multiplicity = 1

                         Standard orientation:
 ---------------------------------------------------------------------
 Center     Atomic      Atomic             Coordinates (Angstroms)
 Number     Number       Type             X           Y           Z
 ---------------------------------------------------------------------
      1         12           0        4.481612    0.863083   -0.311913
      2          6           0        3.416916   -2.480368   -0.538265
      3          6           0        2.051431    1.631261   -2.563501
      4          6           0        5.165479    3.913035    0.442829
      5          6           0        6.849881   -0.206526    2.195164
      6          7           0        2.858546   -0.265003   -1.241905
      7          6           0        2.648384   -1.649913   -1.227204
      8          6           0        1.351481   -2.063468   -2.096824
      9          6           0        1.127206   -0.756299   -2.854785
     10          6           0        2.087864    0.238475   -2.228056
     11          6           0        1.269529   -0.694947   -4.459378
     12          6           0        0.132082   -2.581033   -1.224004
     13          6           0       -0.506072   -3.969990   -1.527474
     14          6           0       -2.035325   -3.869695   -1.816005
     15          8           0       -2.484240   -3.405323   -2.844913
     16          8           0       -2.846144   -4.321099   -0.828472
     17          7           0        3.711490    2.586870   -0.971540
     18          6           0        2.750251    2.717204   -1.896361
     19          6           0        2.554805    4.106613   -2.171961
     20          6           0        3.416652    4.841491   -1.278966
     21          6           0        4.113872    3.818008   -0.515828
     22          6           0        1.416088    4.633689   -3.178473
     23          6           0        3.542947    6.361861   -1.184272
     24          8           0        2.831728    7.107235   -1.877037
     25          6           0        4.399579    6.980375   -0.199680
     26          7           0        5.773270    1.723694    1.169821
     27          6           0        5.954106    3.040559    1.087595
     28          6           0        6.947768    3.489179    2.150901
     29          6           0        7.817535    2.184566    2.322170
     30          6           0        6.762665    1.164738    1.875044
     31          6           0        7.773184    4.815826    1.819428
     32          6           0        8.243415    1.951959    3.840711
     33          6           0        9.665664    1.486345    4.155037
     34          7           0        5.095347   -1.006491    0.669645
     35          6           0        6.008929   -1.247093    1.703017
     36          6           0        6.038643   -2.746973    1.824222
     37          6           0        5.050003   -3.234576    0.944808
     38          6           0        4.476846   -2.112944    0.328017
     39          6           0        6.974845   -3.493303    2.781974
     40          6           0        4.462499   -4.427830    0.414072
     41          8           0        4.709824   -5.630258    0.687320
     42          6           0        3.307905   -4.007533   -0.474359
     43          6           0        3.508516   -4.789120   -1.741806
     44          8           0        3.919584   -4.393632   -2.813132
     45          8           0        2.727698   -5.904338   -1.556544
     46          6           0        2.465256   -6.710981   -2.732539
     47          6           0       -4.246472   -4.321029   -1.244762
     48          6           0       -5.050589   -4.442381   -0.067929
     49          6           0       -5.370104   -3.401922    0.752939
     50          6           0       -4.772682   -1.979261    0.774114
     51          6           0       -6.372864   -3.676040    1.860430
     52          6           0       -7.779597   -3.988189    1.372615
     53          6           0       -8.804455   -3.554835    2.453123
     54          6           0       -9.462131   -2.156795    2.162075
     55          6           0      -10.974025   -2.133804    2.305577
     56          6           0       -8.809105   -1.123572    3.134721
     57          6           0       -7.632080   -0.273297    2.543794
     58          6           0       -7.804391    1.261523    2.415440
     59          6           0       -7.608219    1.757431    0.941579
     60          6           0       -6.106946    1.637553    0.638230
     61          6           0       -8.225500    3.164211    0.811680
     62          6           0       -7.922026    3.869693   -0.529082
     63          6           0       -8.326797    5.365723   -0.478828
     64          6           0       -9.773258    5.464946   -0.795526
     65          6           0      -10.028449    5.771134   -2.312122
     66          6           0      -10.496953    6.568853    0.047858
     67          1           0        1.345979    1.832915   -3.371213
     68          1           0        5.460832    4.954790    0.584519
     69          1           0        7.681200   -0.589278    2.792377
     70          1           0        1.562313   -2.809333   -2.863579
     71          1           0        0.129599   -0.347921   -2.697275
     72          1           0        0.472854   -0.071131   -4.865026
     73          1           0        1.156256   -1.748322   -4.713143
     74          1           0        2.280965   -0.452604   -4.786971
     75          1           0       -0.638252   -1.811182   -1.262155
     76          1           0        0.407254   -2.566800   -0.170119
     77          1           0       -0.363767   -4.479146   -0.573961
     78          1           0       -0.029002   -4.440757   -2.387661
     79          1           0        1.237730    5.707129   -3.240546
     80          1           0        0.451312    4.149153   -3.028902
     81          1           0        1.723791    4.239701   -4.147209
     82          1           0        4.299149    8.064238   -0.137718
     83          1           0        5.466902    6.879613   -0.395422
     84          1           0        4.245805    6.611638    0.814739
     85          1           0        6.256939    3.700842    2.966258
     86          1           0        8.706911    2.242129    1.695417
     87          1           0        7.279670    5.619858    2.364218
     88          1           0        7.752619    5.125461    0.774566
     89          1           0        8.801533    4.706145    2.165022
     90          1           0        7.640500    1.190284    4.335125
     91          1           0        8.073016    2.866034    4.409334
     92          1           0       10.063409    2.223657    4.851477
     93          1           0       10.210171    1.605772    3.218325
     94          1           0        9.755466    0.424891    4.387999
     95          1           0        7.619821   -2.692869    3.143834
     96          1           0        7.585898   -4.273632    2.326783
     97          1           0        6.310645   -4.004422    3.479551
     98          1           0        2.332277   -4.245955   -0.050400
     99          1           0        1.786050   -7.485754   -2.377976
    100          1           0        3.357651   -7.252442   -3.044594
    101          1           0        2.083296   -6.049435   -3.510555
    102          1           0       -4.284799   -5.157488   -1.942084
    103          1           0       -4.576485   -3.446790   -1.806539
    104          1           0       -5.576161   -5.387390    0.075151
    105          1           0       -4.528302   -1.830335    1.826054
    106          1           0       -5.560353   -1.333405    0.385145
    107          1           0       -3.935635   -2.027718    0.076542
    108          1           0       -6.404591   -2.759967    2.450664
    109          1           0       -6.133618   -4.515162    2.513717
    110          1           0       -7.948458   -5.061824    1.285836
    111          1           0       -7.931365   -3.513056    0.403518
    112          1           0       -8.465961   -3.752086    3.469419
    113          1           0       -9.719472   -4.146945    2.435228
    114          1           0       -9.098727   -1.883393    1.171331
    115          1           0      -11.429977   -1.699673    3.195644
    116          1           0      -11.412181   -3.125435    2.198659
    117          1           0      -11.267563   -1.621864    1.388533
    118          1           0       -8.591729   -1.487602    4.138988
    119          1           0       -9.653355   -0.469774    3.356512
    120          1           0       -7.465873   -0.709869    1.559260
    121          1           0       -6.757824   -0.460239    3.166709
    122          1           0       -7.181575    1.788386    3.138920
    123          1           0       -8.846775    1.448066    2.675506
    124          1           0       -8.214022    1.094221    0.324104
    125          1           0       -5.980033    1.409631   -0.421071
    126          1           0       -5.645527    0.852118    1.237039
    127          1           0       -5.761821    2.645169    0.867478
    128          1           0       -7.880861    3.838454    1.595732
    129          1           0       -9.284582    3.013723    1.021181
    130          1           0       -8.374046    3.407338   -1.406627
    131          1           0       -6.845636    3.811997   -0.691717
    132          1           0       -7.755243    5.887958   -1.245290
    133          1           0       -8.116521    5.714724    0.531820
    134          1           0      -10.153641    4.458476   -0.622082
    135          1           0       -9.135650    6.121764   -2.830657
    136          1           0      -10.816303    6.509960   -2.462542
    137          1           0      -10.343940    4.865786   -2.830122
    138          1           0      -11.383054    6.948867   -0.458842
    139          1           0       -9.849259    7.438206    0.163019
    140          1           0      -10.778496    6.205520    1.036749
 ---------------------------------------------------------------------

 SCF Done:  E(RB-LYP) =  -3007.35834098     A.U. after   22 cycles

 Excitation energies and oscillator strengths:

 Excited State   1:      Singlet-A      1.6655 eV  744.44 nm  f=0.0200  <S**2>=0.000
     244 -> 247        0.60620
     245 -> 247        0.29140
     246 -> 247       -0.21634
 This state for optimization and/or second-order correction.
 Total Energy, E(TD-HF/TD-DFT) =  -3007.29713583
 Copying the excited state density for this state as the 1-particle RhoCI density.

 Excited State   2:      Singlet-A      1.7891 eV  692.98 nm  f=0.1961  <S**2>=0.000
     243 -> 247        0.40033
     244 -> 247        0.16235
     245 -> 248       -0.10434
     246 -> 247        0.54583
     246 <- 247       -0.13168

 Excited State   3:      Singlet-A      1.8064 eV  686.38 nm  f=0.1016  <S**2>=0.000
     243 -> 247        0.58206
     246 -> 247       -0.37836

 Excited State   4:      Singlet-A      2.0615 eV  601.42 nm  f=0.0836  <S**2>=0.000
     242 -> 247       -0.25071
     244 -> 247       -0.27304
     245 -> 247        0.54282
     246 -> 248        0.19385

 Excited State   5:      Singlet-A      2.1105 eV  587.46 nm  f=0.0092  <S**2>=0.000
     242 -> 247        0.66028
     245 -> 247        0.19861

 The electronic state is 1-A.
 Alpha  occ. eigenvalues --  -46.27500 -18.82171 -18.81656 -18.77389 -18.76440
 Alpha  occ. eigenvalues --  -18.75258 -18.74873 -14.03581 -14.03022 -14.01198
 Alpha  occ. eigenvalues --  -14.00657 -10.04051 -10.03843  -9.99859  -9.98983
 Alpha  occ. eigenvalues --   -9.97578  -9.96810  -9.96781  -9.96743  -9.96354
 Alpha  occ. eigenvalues --   -9.96337  -9.96006  -9.95863  -9.95830  -9.94815
 Alpha  occ. eigenvalues --   -9.94698  -9.94480  -9.94214  -9.94196  -9.94113
 Alpha  occ. eigenvalues --   -9.94025  -9.93999  -9.93906  -9.93682  -9.93479
 Alpha  occ. eigenvalues --   -9.93252  -9.93181  -9.93001  -9.92971  -9.92866
 Alpha  occ. eigenvalues --   -9.92858  -9.92802  -9.92739  -9.92468  -9.92314
 Alpha  occ. eigenvalues --   -9.92120  -9.92087  -9.92054  -9.91994  -9.91888
 Alpha  occ. eigenvalues --   -9.91587  -9.91519  -9.91436  -9.91324  -9.91218
 Alpha  occ. eigenvalues --   -9.91129  -9.91067  -9.91059  -9.90925  -9.90908
 Alpha  occ. eigenvalues --   -9.90837  -9.90822  -9.90688  -9.90565  -9.90525
 Alpha  occ. eigenvalues --   -9.90465  -2.92142  -1.72559  -1.72044  -1.71842
 Alpha  occ. eigenvalues --   -0.98840  -0.98042  -0.90535  -0.90461  -0.89974
 Alpha  occ. eigenvalues --   -0.89150  -0.87905  -0.86437  -0.86042  -0.85177
 Alpha  occ. eigenvalues --   -0.75906  -0.73965  -0.73350  -0.72614  -0.72549
 Alpha  occ. eigenvalues --   -0.72207  -0.72019  -0.71222  -0.70731  -0.69527
 Alpha  occ. eigenvalues --   -0.69247  -0.68760  -0.68274  -0.67854  -0.67471
 Alpha  occ. eigenvalues --   -0.66757  -0.66451  -0.65593  -0.65332  -0.65105
 Alpha  occ. eigenvalues --   -0.64187  -0.62604  -0.62141  -0.61447  -0.60777
 Alpha  occ. eigenvalues --   -0.60387  -0.59948  -0.59858  -0.59572  -0.59019
 Alpha  occ. eigenvalues --   -0.58100  -0.57658  -0.56790  -0.55581  -0.54618
 Alpha  occ. eigenvalues --   -0.54264  -0.53567  -0.53065  -0.52429  -0.52105
 Alpha  occ. eigenvalues --   -0.51460  -0.51211  -0.51116  -0.50507  -0.50096
 Alpha  occ. eigenvalues --   -0.49869  -0.48878  -0.48780  -0.48401  -0.46600
 Alpha  occ. eigenvalues --   -0.46262  -0.46004  -0.45922  -0.45270  -0.44694
 Alpha  occ. eigenvalues --   -0.44547  -0.44234  -0.43804  -0.43388  -0.43111
 Alpha  occ. eigenvalues --   -0.42225  -0.42001  -0.41862  -0.41491  -0.41399
 Alpha  occ. eigenvalues --   -0.40871  -0.40717  -0.40587  -0.40348  -0.40100
 Alpha  occ. eigenvalues --   -0.39840  -0.39628  -0.39483  -0.39305  -0.39098
 Alpha  occ. eigenvalues --   -0.39074  -0.38896  -0.38839  -0.38337  -0.38246
 Alpha  occ. eigenvalues --   -0.38152  -0.37929  -0.37634  -0.37376  -0.37309
 Alpha  occ. eigenvalues --   -0.37169  -0.37039  -0.36839  -0.36666  -0.36634
 Alpha  occ. eigenvalues --   -0.36172  -0.35804  -0.35697  -0.35680  -0.35306
 Alpha  occ. eigenvalues --   -0.35250  -0.35237  -0.35104  -0.35018  -0.34825
 Alpha  occ. eigenvalues --   -0.34617  -0.34504  -0.34379  -0.34325  -0.34145
 Alpha  occ. eigenvalues --   -0.33868  -0.33528  -0.33512  -0.33466  -0.33264
 Alpha  occ. eigenvalues --   -0.32948  -0.32661  -0.32542  -0.32508  -0.32211
 Alpha  occ. eigenvalues --   -0.32159  -0.31834  -0.31661  -0.31446  -0.31368
 Alpha  occ. eigenvalues --   -0.31110  -0.30994  -0.30695  -0.30624  -0.30544
 Alpha  occ. eigenvalues --   -0.30412  -0.30002  -0.29902  -0.29790  -0.29719
 Alpha  occ. eigenvalues --   -0.29606  -0.29483  -0.29321  -0.29167  -0.29034
 Alpha  occ. eigenvalues --   -0.28830  -0.28806  -0.28736  -0.28342  -0.28209
 Alpha  occ. eigenvalues --   -0.27847  -0.27528  -0.26991  -0.26838  -0.26715
 Alpha  occ. eigenvalues --   -0.26512  -0.26198  -0.26017  -0.25877  -0.25770
 Alpha  occ. eigenvalues --   -0.25177  -0.25168  -0.24854  -0.23921  -0.23416
 Alpha  occ. eigenvalues --   -0.23100  -0.22533  -0.22293  -0.22155  -0.20652
 Alpha  occ. eigenvalues --   -0.20116  -0.19721  -0.18544  -0.18119  -0.17716
 Alpha  occ. eigenvalues --   -0.16011
 Alpha virt. eigenvalues --   -0.11992  -0.07043  -0.06007  -0.05042  -0.03313
 Alpha virt. eigenvalues --   -0.03178  -0.02942  -0.02507  -0.01689   0.00066
 Alpha virt. eigenvalues --    0.01112   0.01679   0.01989   0.02111   0.02888

 Mulliken charges:
               1
     1  Mg   0.693020
     2  C    0.031612
     3  C   -0.076936
     4  C   -0.031784
     5  C   -0.060486
     6  N   -0.223347
     7  C   -0.121189
     8  C    0.070304
     9  C   -0.045174
    10  C    0.031986
    11  C    0.125222
    12  C    0.092516
    13  C    0.173079
    14  C    0.035990
    15  O   -0.206868
    16  O   -0.251991
    17  N   -0.318687
    18  C    0.158793
    19  C   -0.136216
    20  C    0.029528
    21  C    0.104642
    22  C    0.159927
    23  C   -0.063268
    24  O   -0.167298
    25  C    0.152242
    26  N   -0.180277
    27  C    0.026227
    28  C   -0.037890
    29  C    0.080161
    30  C    0.022045
    31  C    0.124289
    32  C    0.050946
    33  C    0.073481
    34  N   -0.219275
    35  C    0.082860
    36  C   -0.212819
    37  C    0.132342
    38  C    0.075914
    39  C    0.173198
    40  C   -0.080424
    41  O   -0.174145
    42  C    0.060635
    43  C    0.139697
    44  O   -0.172712
    45  O   -0.273344
    46  C    0.222198
    47  C    0.309727
    48  C   -0.065775
    49  C   -0.211150
    50  C    0.166294
    51  C    0.140902
    52  C    0.078967
    53  C    0.115723
    54  C   -0.104189
    55  C    0.136410
    56  C    0.102659
    57  C    0.032458
    58  C    0.109078
    59  C   -0.085286
    60  C    0.120235
    61  C    0.088209
    62  C    0.059666
    63  C    0.158066
    64  C   -0.101667
    65  C    0.095976
    66  C    0.098409
    67  H   -0.067646
    68  H   -0.119022
    69  H   -0.058680
    70  H   -0.021349
    71  H   -0.014646
    72  H    0.013975
    73  H   -0.010706
    74  H    0.002116
    75  H   -0.015924
    76  H   -0.015221
    77  H   -0.007821
    78  H    0.009568
    79  H    0.015405
    80  H   -0.008434
    81  H   -0.010692
    82  H   -0.019370
    83  H    0.011479
    84  H    0.014011
    85  H   -0.003200
    86  H   -0.017033
    87  H   -0.010162
    88  H    0.004700
    89  H   -0.007283
    90  H   -0.016642
    91  H   -0.025116
    92  H   -0.002912
    93  H   -0.029618
    94  H    0.006516
    95  H   -0.019173
    96  H    0.008531
    97  H    0.018862
    98  H    0.020805
    99  H    0.012521
   100  H    0.013169
   101  H    0.017277
   102  H   -0.027053
   103  H    0.005862
   104  H   -0.042277
   105  H    0.020908
   106  H    0.019412
   107  H   -0.006911
   108  H   -0.043981
   109  H   -0.015160
   110  H   -0.026605
   111  H   -0.028998
   112  H   -0.037279
   113  H   -0.068330
   114  H   -0.036694
   115  H    0.001967
   116  H   -0.025719
   117  H   -0.018092
   118  H   -0.036820
   119  H   -0.056713
   120  H   -0.019356
   121  H   -0.016669
   122  H   -0.032422
   123  H   -0.048279
   124  H   -0.044417
   125  H   -0.009900
   126  H   -0.003546
   127  H   -0.011022
   128  H   -0.039741
   129  H   -0.031840
   130  H   -0.036946
   131  H   -0.044852
   132  H   -0.039068
   133  H   -0.040461
   134  H   -0.029699
   135  H   -0.021140
   136  H   -0.019487
   137  H   -0.019860
   138  H   -0.021179
   139  H   -0.015570
   140  H   -0.013778
 Sum of Mulliken charges =  -0.00000

 Dipole moment (field-independent basis, Debye):
    X=             -0.3704    Y=              0.9365    Z=              2.5878  Tot=              2.7769
 Quadrupole moment (field-independent basis, Debye-Ang):
   XX=           -367.7013   YY=           -437.6071   ZZ=           -403.4897
   XY=             36.1379   XZ=             11.1812   YZ=             19.6101

 Normal termination of Gaussian 16 at Fri Apr 29 13:30:19 2022.
