 Gaussian 16, Revision A.03,
 Gaussian 16:  ES64L-G16RevA.03 25-Dec-2016

 -----------------------------------
 #p cam-b3lyp/Def2SVP td=(nstates=5)
 -----------------------------------

 -------------------------------------------------------
 step_301_chromophore_23 TDDFT with cam-b3lyp functional
 -------------------------------------------------------
 Symbolic Z-matrix:
 Charge =  0 Multiplicity = 1

                         Standard orientation:
 ---------------------------------------------------------------------
 Center     Atomic      Atomic             Coordinates (Angstroms)
 Number     Number       Type             X           Y           Z
 ---------------------------------------------------------------------
      1         12           0        4.481612    0.863083   -0.311913
      2          6           0        3.416916   -2.480368   -0.538265
      3          6           0        2.051431    1.631261   -2.563501
      4          6           0        5.165479    3.913035    0.442829
      5          6           0        6.849881   -0.206526    2.195164
      6          7           0        2.858546   -0.265003   -1.241905
      7          6           0        2.648384   -1.649913   -1.227204
      8          6           0        1.351481   -2.063468   -2.096824
      9          6           0        1.127206   -0.756299   -2.854785
     10          6           0        2.087864    0.238475   -2.228056
     11          6           0        1.269529   -0.694947   -4.459378
     12          6           0        0.132082   -2.581033   -1.224004
     13          6           0       -0.506072   -3.969990   -1.527474
     14          6           0       -2.035325   -3.869695   -1.816005
     15          8           0       -2.484240   -3.405323   -2.844913
     16          8           0       -2.846144   -4.321099   -0.828472
     17          7           0        3.711490    2.586870   -0.971540
     18          6           0        2.750251    2.717204   -1.896361
     19          6           0        2.554805    4.106613   -2.171961
     20          6           0        3.416652    4.841491   -1.278966
     21          6           0        4.113872    3.818008   -0.515828
     22          6           0        1.416088    4.633689   -3.178473
     23          6           0        3.542947    6.361861   -1.184272
     24          8           0        2.831728    7.107235   -1.877037
     25          6           0        4.399579    6.980375   -0.199680
     26          7           0        5.773270    1.723694    1.169821
     27          6           0        5.954106    3.040559    1.087595
     28          6           0        6.947768    3.489179    2.150901
     29          6           0        7.817535    2.184566    2.322170
     30          6           0        6.762665    1.164738    1.875044
     31          6           0        7.773184    4.815826    1.819428
     32          6           0        8.243415    1.951959    3.840711
     33          6           0        9.665664    1.486345    4.155037
     34          7           0        5.095347   -1.006491    0.669645
     35          6           0        6.008929   -1.247093    1.703017
     36          6           0        6.038643   -2.746973    1.824222
     37          6           0        5.050003   -3.234576    0.944808
     38          6           0        4.476846   -2.112944    0.328017
     39          6           0        6.974845   -3.493303    2.781974
     40          6           0        4.462499   -4.427830    0.414072
     41          8           0        4.709824   -5.630258    0.687320
     42          6           0        3.307905   -4.007533   -0.474359
     43          6           0        3.508516   -4.789120   -1.741806
     44          8           0        3.919584   -4.393632   -2.813132
     45          8           0        2.727698   -5.904338   -1.556544
     46          6           0        2.465256   -6.710981   -2.732539
     47          6           0       -4.246472   -4.321029   -1.244762
     48          6           0       -5.050589   -4.442381   -0.067929
     49          6           0       -5.370104   -3.401922    0.752939
     50          6           0       -4.772682   -1.979261    0.774114
     51          6           0       -6.372864   -3.676040    1.860430
     52          6           0       -7.779597   -3.988189    1.372615
     53          6           0       -8.804455   -3.554835    2.453123
     54          6           0       -9.462131   -2.156795    2.162075
     55          6           0      -10.974025   -2.133804    2.305577
     56          6           0       -8.809105   -1.123572    3.134721
     57          6           0       -7.632080   -0.273297    2.543794
     58          6           0       -7.804391    1.261523    2.415440
     59          6           0       -7.608219    1.757431    0.941579
     60          6           0       -6.106946    1.637553    0.638230
     61          6           0       -8.225500    3.164211    0.811680
     62          6           0       -7.922026    3.869693   -0.529082
     63          6           0       -8.326797    5.365723   -0.478828
     64          6           0       -9.773258    5.464946   -0.795526
     65          6           0      -10.028449    5.771134   -2.312122
     66          6           0      -10.496953    6.568853    0.047858
     67          1           0        1.345979    1.832915   -3.371213
     68          1           0        5.460832    4.954790    0.584519
     69          1           0        7.681200   -0.589278    2.792377
     70          1           0        1.562313   -2.809333   -2.863579
     71          1           0        0.129599   -0.347921   -2.697275
     72          1           0        0.472854   -0.071131   -4.865026
     73          1           0        1.156256   -1.748322   -4.713143
     74          1           0        2.280965   -0.452604   -4.786971
     75          1           0       -0.638252   -1.811182   -1.262155
     76          1           0        0.407254   -2.566800   -0.170119
     77          1           0       -0.363767   -4.479146   -0.573961
     78          1           0       -0.029002   -4.440757   -2.387661
     79          1           0        1.237730    5.707129   -3.240546
     80          1           0        0.451312    4.149153   -3.028902
     81          1           0        1.723791    4.239701   -4.147209
     82          1           0        4.299149    8.064238   -0.137718
     83          1           0        5.466902    6.879613   -0.395422
     84          1           0        4.245805    6.611638    0.814739
     85          1           0        6.256939    3.700842    2.966258
     86          1           0        8.706911    2.242129    1.695417
     87          1           0        7.279670    5.619858    2.364218
     88          1           0        7.752619    5.125461    0.774566
     89          1           0        8.801533    4.706145    2.165022
     90          1           0        7.640500    1.190284    4.335125
     91          1           0        8.073016    2.866034    4.409334
     92          1           0       10.063409    2.223657    4.851477
     93          1           0       10.210171    1.605772    3.218325
     94          1           0        9.755466    0.424891    4.387999
     95          1           0        7.619821   -2.692869    3.143834
     96          1           0        7.585898   -4.273632    2.326783
     97          1           0        6.310645   -4.004422    3.479551
     98          1           0        2.332277   -4.245955   -0.050400
     99          1           0        1.786050   -7.485754   -2.377976
    100          1           0        3.357651   -7.252442   -3.044594
    101          1           0        2.083296   -6.049435   -3.510555
    102          1           0       -4.284799   -5.157488   -1.942084
    103          1           0       -4.576485   -3.446790   -1.806539
    104          1           0       -5.576161   -5.387390    0.075151
    105          1           0       -4.528302   -1.830335    1.826054
    106          1           0       -5.560353   -1.333405    0.385145
    107          1           0       -3.935635   -2.027718    0.076542
    108          1           0       -6.404591   -2.759967    2.450664
    109          1           0       -6.133618   -4.515162    2.513717
    110          1           0       -7.948458   -5.061824    1.285836
    111          1           0       -7.931365   -3.513056    0.403518
    112          1           0       -8.465961   -3.752086    3.469419
    113          1           0       -9.719472   -4.146945    2.435228
    114          1           0       -9.098727   -1.883393    1.171331
    115          1           0      -11.429977   -1.699673    3.195644
    116          1           0      -11.412181   -3.125435    2.198659
    117          1           0      -11.267563   -1.621864    1.388533
    118          1           0       -8.591729   -1.487602    4.138988
    119          1           0       -9.653355   -0.469774    3.356512
    120          1           0       -7.465873   -0.709869    1.559260
    121          1           0       -6.757824   -0.460239    3.166709
    122          1           0       -7.181575    1.788386    3.138920
    123          1           0       -8.846775    1.448066    2.675506
    124          1           0       -8.214022    1.094221    0.324104
    125          1           0       -5.980033    1.409631   -0.421071
    126          1           0       -5.645527    0.852118    1.237039
    127          1           0       -5.761821    2.645169    0.867478
    128          1           0       -7.880861    3.838454    1.595732
    129          1           0       -9.284582    3.013723    1.021181
    130          1           0       -8.374046    3.407338   -1.406627
    131          1           0       -6.845636    3.811997   -0.691717
    132          1           0       -7.755243    5.887958   -1.245290
    133          1           0       -8.116521    5.714724    0.531820
    134          1           0      -10.153641    4.458476   -0.622082
    135          1           0       -9.135650    6.121764   -2.830657
    136          1           0      -10.816303    6.509960   -2.462542
    137          1           0      -10.343940    4.865786   -2.830122
    138          1           0      -11.383054    6.948867   -0.458842
    139          1           0       -9.849259    7.438206    0.163019
    140          1           0      -10.778496    6.205520    1.036749
 ---------------------------------------------------------------------

 SCF Done:  E(RCAM-B3LYP) =  -3007.15748793     A.U. after   18 cycles

 Excitation energies and oscillator strengths:

 Excited State   1:      Singlet-A      1.6683 eV  743.18 nm  f=0.3900  <S**2>=0.000
     245 -> 248        0.14740
     246 -> 247        0.69048
 This state for optimization and/or second-order correction.
 Total Energy, E(TD-HF/TD-DFT) =  -3007.09617913
 Copying the excited state density for this state as the 1-particle RhoCI density.

 Excited State   2:      Singlet-A      2.2619 eV  548.14 nm  f=0.1394  <S**2>=0.000
     245 -> 247        0.64604
     246 -> 248       -0.25823

 Excited State   3:      Singlet-A      3.2234 eV  384.63 nm  f=0.0041  <S**2>=0.000
     241 -> 247        0.13751
     241 -> 249        0.10272
     242 -> 247       -0.18696
     244 -> 247        0.63707

 Excited State   4:      Singlet-A      3.3371 eV  371.53 nm  f=0.0016  <S**2>=0.000
     241 -> 247        0.16563
     241 -> 249        0.15673
     242 -> 247        0.61816
     246 -> 248       -0.17078

 Excited State   5:      Singlet-A      3.4006 eV  364.60 nm  f=0.0002  <S**2>=0.000
     241 -> 247        0.51697
     241 -> 249        0.28436
     241 -> 250        0.14701
     242 -> 247       -0.18274
     244 -> 247       -0.22762

 The electronic state is 1-A.
 Alpha  occ. eigenvalues --  -46.89083 -19.25007 -19.24528 -19.20486 -19.19371
 Alpha  occ. eigenvalues --  -19.18628 -19.18052 -14.42417 -14.41949 -14.39749
 Alpha  occ. eigenvalues --  -14.39011 -10.39496 -10.39081 -10.35167 -10.34283
 Alpha  occ. eigenvalues --  -10.31516 -10.31429 -10.31071 -10.31015 -10.30778
 Alpha  occ. eigenvalues --  -10.30742 -10.30376 -10.30336 -10.30093 -10.28954
 Alpha  occ. eigenvalues --  -10.28848 -10.28675 -10.28557 -10.28513 -10.28363
 Alpha  occ. eigenvalues --  -10.28233 -10.28009 -10.28001 -10.27853 -10.27673
 Alpha  occ. eigenvalues --  -10.27561 -10.27401 -10.27195 -10.27038 -10.26969
 Alpha  occ. eigenvalues --  -10.26630 -10.26558 -10.26504 -10.26474 -10.26139
 Alpha  occ. eigenvalues --  -10.26092 -10.26084 -10.25845 -10.25688 -10.25607
 Alpha  occ. eigenvalues --  -10.25223 -10.25207 -10.25108 -10.25038 -10.24908
 Alpha  occ. eigenvalues --  -10.24745 -10.24743 -10.24738 -10.24699 -10.24524
 Alpha  occ. eigenvalues --  -10.24521 -10.24488 -10.24447 -10.24298 -10.24178
 Alpha  occ. eigenvalues --  -10.24095  -3.17629  -1.92522  -1.92100  -1.91922
 Alpha  occ. eigenvalues --   -1.17301  -1.16587  -1.09040  -1.08389  -1.07818
 Alpha  occ. eigenvalues --   -1.07460  -1.05720  -1.04198  -1.03686  -1.02678
 Alpha  occ. eigenvalues --   -0.93025  -0.90851  -0.90190  -0.89378  -0.89328
 Alpha  occ. eigenvalues --   -0.88915  -0.88669  -0.87827  -0.87342  -0.86023
 Alpha  occ. eigenvalues --   -0.85639  -0.85436  -0.84538  -0.84030  -0.83680
 Alpha  occ. eigenvalues --   -0.82848  -0.82735  -0.81494  -0.81234  -0.80994
 Alpha  occ. eigenvalues --   -0.80001  -0.78242  -0.77684  -0.77076  -0.76185
 Alpha  occ. eigenvalues --   -0.75727  -0.75309  -0.75178  -0.74889  -0.74259
 Alpha  occ. eigenvalues --   -0.73126  -0.72638  -0.71706  -0.70395  -0.69197
 Alpha  occ. eigenvalues --   -0.68919  -0.68192  -0.67682  -0.66803  -0.66256
 Alpha  occ. eigenvalues --   -0.65686  -0.65353  -0.65177  -0.64571  -0.64102
 Alpha  occ. eigenvalues --   -0.63650  -0.62829  -0.62663  -0.62113  -0.60333
 Alpha  occ. eigenvalues --   -0.59832  -0.59553  -0.59498  -0.58692  -0.58181
 Alpha  occ. eigenvalues --   -0.58020  -0.57593  -0.57235  -0.56728  -0.56351
 Alpha  occ. eigenvalues --   -0.55311  -0.55032  -0.54745  -0.54514  -0.54319
 Alpha  occ. eigenvalues --   -0.53609  -0.53378  -0.53319  -0.53113  -0.52889
 Alpha  occ. eigenvalues --   -0.52523  -0.52410  -0.52198  -0.52014  -0.51983
 Alpha  occ. eigenvalues --   -0.51494  -0.51420  -0.51219  -0.51119  -0.50742
 Alpha  occ. eigenvalues --   -0.50632  -0.50206  -0.49836  -0.49656  -0.49553
 Alpha  occ. eigenvalues --   -0.49512  -0.49350  -0.49228  -0.48977  -0.48878
 Alpha  occ. eigenvalues --   -0.48697  -0.48210  -0.47972  -0.47725  -0.47608
 Alpha  occ. eigenvalues --   -0.47387  -0.47170  -0.46987  -0.46871  -0.46717
 Alpha  occ. eigenvalues --   -0.46480  -0.46396  -0.46265  -0.46179  -0.45973
 Alpha  occ. eigenvalues --   -0.45861  -0.45441  -0.45315  -0.45188  -0.45083
 Alpha  occ. eigenvalues --   -0.44888  -0.44664  -0.44160  -0.44070  -0.43839
 Alpha  occ. eigenvalues --   -0.43582  -0.43351  -0.43244  -0.43021  -0.42752
 Alpha  occ. eigenvalues --   -0.42728  -0.42436  -0.42341  -0.42173  -0.42126
 Alpha  occ. eigenvalues --   -0.41988  -0.41466  -0.41277  -0.41148  -0.41128
 Alpha  occ. eigenvalues --   -0.40904  -0.40848  -0.40537  -0.40407  -0.40100
 Alpha  occ. eigenvalues --   -0.40001  -0.39861  -0.39746  -0.39348  -0.39129
 Alpha  occ. eigenvalues --   -0.38674  -0.38326  -0.37800  -0.37661  -0.37524
 Alpha  occ. eigenvalues --   -0.37462  -0.37305  -0.36798  -0.36725  -0.36585
 Alpha  occ. eigenvalues --   -0.36429  -0.36380  -0.35348  -0.34841  -0.34295
 Alpha  occ. eigenvalues --   -0.34034  -0.33454  -0.33191  -0.31733  -0.31226
 Alpha  occ. eigenvalues --   -0.30410  -0.30173  -0.29511  -0.29290  -0.24651
 Alpha  occ. eigenvalues --   -0.21309
 Alpha virt. eigenvalues --   -0.09264  -0.01601   0.00400   0.01766   0.02362
 Alpha virt. eigenvalues --    0.04179   0.04279   0.04538   0.05701   0.06785
 Alpha virt. eigenvalues --    0.07798   0.08146   0.08330   0.08624   0.09165

 Mulliken charges:
               1
     1  Mg   0.825836
     2  C   -0.004488
     3  C   -0.089209
     4  C   -0.055164
     5  C   -0.063354
     6  N   -0.296947
     7  C   -0.079070
     8  C    0.025756
     9  C   -0.096497
    10  C    0.054562
    11  C    0.067282
    12  C    0.042403
    13  C    0.103696
    14  C    0.115757
    15  O   -0.248676
    16  O   -0.314289
    17  N   -0.410979
    18  C    0.164620
    19  C   -0.137207
    20  C   -0.043080
    21  C    0.136862
    22  C    0.107129
    23  C    0.022115
    24  O   -0.207438
    25  C    0.055858
    26  N   -0.252129
    27  C    0.052503
    28  C   -0.092491
    29  C    0.021313
    30  C    0.037845
    31  C    0.065445
    32  C   -0.005187
    33  C    0.014074
    34  N   -0.304216
    35  C    0.081014
    36  C   -0.203064
    37  C    0.044200
    38  C    0.119053
    39  C    0.129726
    40  C    0.019680
    41  O   -0.212214
    42  C   -0.008405
    43  C    0.221101
    44  O   -0.208824
    45  O   -0.335694
    46  C    0.181491
    47  C    0.266451
    48  C   -0.090938
    49  C   -0.221753
    50  C    0.108802
    51  C    0.082537
    52  C    0.022213
    53  C    0.058741
    54  C   -0.156200
    55  C    0.071833
    56  C    0.051463
    57  C   -0.017863
    58  C    0.058699
    59  C   -0.136296
    60  C    0.058511
    61  C    0.037280
    62  C    0.003353
    63  C    0.095548
    64  C   -0.162703
    65  C    0.039486
    66  C    0.041472
    67  H   -0.031017
    68  H   -0.081988
    69  H   -0.025558
    70  H    0.011238
    71  H    0.021730
    72  H    0.036425
    73  H    0.013716
    74  H    0.028395
    75  H    0.014683
    76  H    0.016337
    77  H    0.027775
    78  H    0.037530
    79  H    0.047196
    80  H    0.018253
    81  H    0.014602
    82  H    0.019856
    83  H    0.039236
    84  H    0.042270
    85  H    0.031218
    86  H    0.016473
    87  H    0.013523
    88  H    0.027905
    89  H    0.018408
    90  H    0.013667
    91  H    0.004024
    92  H    0.021279
    93  H   -0.006565
    94  H    0.027991
    95  H    0.001093
    96  H    0.034768
    97  H    0.043409
    98  H    0.061104
    99  H    0.036487
   100  H    0.036513
   101  H    0.037799
   102  H    0.005960
   103  H    0.037414
   104  H   -0.008186
   105  H    0.043237
   106  H    0.038992
   107  H    0.016256
   108  H   -0.017014
   109  H    0.015978
   110  H    0.002018
   111  H    0.000461
   112  H   -0.007728
   113  H   -0.035765
   114  H   -0.005087
   115  H    0.025776
   116  H   -0.000325
   117  H    0.007027
   118  H   -0.007269
   119  H   -0.026184
   120  H   -0.001382
   121  H    0.009563
   122  H   -0.002866
   123  H   -0.018538
   124  H   -0.014031
   125  H    0.014030
   126  H    0.017440
   127  H    0.013084
   128  H   -0.012294
   129  H   -0.004374
   130  H   -0.009163
   131  H   -0.013718
   132  H   -0.008349
   133  H   -0.009753
   134  H    0.001940
   135  H    0.002367
   136  H    0.004989
   137  H    0.003894
   138  H    0.002855
   139  H    0.007763
   140  H    0.009869
 Sum of Mulliken charges =  -0.00000

 Dipole moment (field-independent basis, Debye):
    X=             -0.3719    Y=              1.5181    Z=              2.5253  Tot=              2.9698
 Quadrupole moment (field-independent basis, Debye-Ang):
   XX=           -365.5341   YY=           -433.9068   ZZ=           -402.7422
   XY=             39.5681   XZ=             11.9538   YZ=             20.3448

 Normal termination of Gaussian 16 at Fri Apr 29 12:29:06 2022.
