 Gaussian 16, Revision A.03,
 Gaussian 16:  ES64L-G16RevA.03 25-Dec-2016

 ---------------------------------
 #p PBE1PBE/Def2SVP td=(nstates=5)
 ---------------------------------

 -----------------------------------------------------
 step_301_chromophore_23 TDDFT with PBE1PBE functional
 -----------------------------------------------------
 Symbolic Z-matrix:
 Charge =  0 Multiplicity = 1

                         Standard orientation:
 ---------------------------------------------------------------------
 Center     Atomic      Atomic             Coordinates (Angstroms)
 Number     Number       Type             X           Y           Z
 ---------------------------------------------------------------------
      1         12           0        4.481612    0.863083   -0.311913
      2          6           0        3.416916   -2.480368   -0.538265
      3          6           0        2.051431    1.631261   -2.563501
      4          6           0        5.165479    3.913035    0.442829
      5          6           0        6.849881   -0.206526    2.195164
      6          7           0        2.858546   -0.265003   -1.241905
      7          6           0        2.648384   -1.649913   -1.227204
      8          6           0        1.351481   -2.063468   -2.096824
      9          6           0        1.127206   -0.756299   -2.854785
     10          6           0        2.087864    0.238475   -2.228056
     11          6           0        1.269529   -0.694947   -4.459378
     12          6           0        0.132082   -2.581033   -1.224004
     13          6           0       -0.506072   -3.969990   -1.527474
     14          6           0       -2.035325   -3.869695   -1.816005
     15          8           0       -2.484240   -3.405323   -2.844913
     16          8           0       -2.846144   -4.321099   -0.828472
     17          7           0        3.711490    2.586870   -0.971540
     18          6           0        2.750251    2.717204   -1.896361
     19          6           0        2.554805    4.106613   -2.171961
     20          6           0        3.416652    4.841491   -1.278966
     21          6           0        4.113872    3.818008   -0.515828
     22          6           0        1.416088    4.633689   -3.178473
     23          6           0        3.542947    6.361861   -1.184272
     24          8           0        2.831728    7.107235   -1.877037
     25          6           0        4.399579    6.980375   -0.199680
     26          7           0        5.773270    1.723694    1.169821
     27          6           0        5.954106    3.040559    1.087595
     28          6           0        6.947768    3.489179    2.150901
     29          6           0        7.817535    2.184566    2.322170
     30          6           0        6.762665    1.164738    1.875044
     31          6           0        7.773184    4.815826    1.819428
     32          6           0        8.243415    1.951959    3.840711
     33          6           0        9.665664    1.486345    4.155037
     34          7           0        5.095347   -1.006491    0.669645
     35          6           0        6.008929   -1.247093    1.703017
     36          6           0        6.038643   -2.746973    1.824222
     37          6           0        5.050003   -3.234576    0.944808
     38          6           0        4.476846   -2.112944    0.328017
     39          6           0        6.974845   -3.493303    2.781974
     40          6           0        4.462499   -4.427830    0.414072
     41          8           0        4.709824   -5.630258    0.687320
     42          6           0        3.307905   -4.007533   -0.474359
     43          6           0        3.508516   -4.789120   -1.741806
     44          8           0        3.919584   -4.393632   -2.813132
     45          8           0        2.727698   -5.904338   -1.556544
     46          6           0        2.465256   -6.710981   -2.732539
     47          6           0       -4.246472   -4.321029   -1.244762
     48          6           0       -5.050589   -4.442381   -0.067929
     49          6           0       -5.370104   -3.401922    0.752939
     50          6           0       -4.772682   -1.979261    0.774114
     51          6           0       -6.372864   -3.676040    1.860430
     52          6           0       -7.779597   -3.988189    1.372615
     53          6           0       -8.804455   -3.554835    2.453123
     54          6           0       -9.462131   -2.156795    2.162075
     55          6           0      -10.974025   -2.133804    2.305577
     56          6           0       -8.809105   -1.123572    3.134721
     57          6           0       -7.632080   -0.273297    2.543794
     58          6           0       -7.804391    1.261523    2.415440
     59          6           0       -7.608219    1.757431    0.941579
     60          6           0       -6.106946    1.637553    0.638230
     61          6           0       -8.225500    3.164211    0.811680
     62          6           0       -7.922026    3.869693   -0.529082
     63          6           0       -8.326797    5.365723   -0.478828
     64          6           0       -9.773258    5.464946   -0.795526
     65          6           0      -10.028449    5.771134   -2.312122
     66          6           0      -10.496953    6.568853    0.047858
     67          1           0        1.345979    1.832915   -3.371213
     68          1           0        5.460832    4.954790    0.584519
     69          1           0        7.681200   -0.589278    2.792377
     70          1           0        1.562313   -2.809333   -2.863579
     71          1           0        0.129599   -0.347921   -2.697275
     72          1           0        0.472854   -0.071131   -4.865026
     73          1           0        1.156256   -1.748322   -4.713143
     74          1           0        2.280965   -0.452604   -4.786971
     75          1           0       -0.638252   -1.811182   -1.262155
     76          1           0        0.407254   -2.566800   -0.170119
     77          1           0       -0.363767   -4.479146   -0.573961
     78          1           0       -0.029002   -4.440757   -2.387661
     79          1           0        1.237730    5.707129   -3.240546
     80          1           0        0.451312    4.149153   -3.028902
     81          1           0        1.723791    4.239701   -4.147209
     82          1           0        4.299149    8.064238   -0.137718
     83          1           0        5.466902    6.879613   -0.395422
     84          1           0        4.245805    6.611638    0.814739
     85          1           0        6.256939    3.700842    2.966258
     86          1           0        8.706911    2.242129    1.695417
     87          1           0        7.279670    5.619858    2.364218
     88          1           0        7.752619    5.125461    0.774566
     89          1           0        8.801533    4.706145    2.165022
     90          1           0        7.640500    1.190284    4.335125
     91          1           0        8.073016    2.866034    4.409334
     92          1           0       10.063409    2.223657    4.851477
     93          1           0       10.210171    1.605772    3.218325
     94          1           0        9.755466    0.424891    4.387999
     95          1           0        7.619821   -2.692869    3.143834
     96          1           0        7.585898   -4.273632    2.326783
     97          1           0        6.310645   -4.004422    3.479551
     98          1           0        2.332277   -4.245955   -0.050400
     99          1           0        1.786050   -7.485754   -2.377976
    100          1           0        3.357651   -7.252442   -3.044594
    101          1           0        2.083296   -6.049435   -3.510555
    102          1           0       -4.284799   -5.157488   -1.942084
    103          1           0       -4.576485   -3.446790   -1.806539
    104          1           0       -5.576161   -5.387390    0.075151
    105          1           0       -4.528302   -1.830335    1.826054
    106          1           0       -5.560353   -1.333405    0.385145
    107          1           0       -3.935635   -2.027718    0.076542
    108          1           0       -6.404591   -2.759967    2.450664
    109          1           0       -6.133618   -4.515162    2.513717
    110          1           0       -7.948458   -5.061824    1.285836
    111          1           0       -7.931365   -3.513056    0.403518
    112          1           0       -8.465961   -3.752086    3.469419
    113          1           0       -9.719472   -4.146945    2.435228
    114          1           0       -9.098727   -1.883393    1.171331
    115          1           0      -11.429977   -1.699673    3.195644
    116          1           0      -11.412181   -3.125435    2.198659
    117          1           0      -11.267563   -1.621864    1.388533
    118          1           0       -8.591729   -1.487602    4.138988
    119          1           0       -9.653355   -0.469774    3.356512
    120          1           0       -7.465873   -0.709869    1.559260
    121          1           0       -6.757824   -0.460239    3.166709
    122          1           0       -7.181575    1.788386    3.138920
    123          1           0       -8.846775    1.448066    2.675506
    124          1           0       -8.214022    1.094221    0.324104
    125          1           0       -5.980033    1.409631   -0.421071
    126          1           0       -5.645527    0.852118    1.237039
    127          1           0       -5.761821    2.645169    0.867478
    128          1           0       -7.880861    3.838454    1.595732
    129          1           0       -9.284582    3.013723    1.021181
    130          1           0       -8.374046    3.407338   -1.406627
    131          1           0       -6.845636    3.811997   -0.691717
    132          1           0       -7.755243    5.887958   -1.245290
    133          1           0       -8.116521    5.714724    0.531820
    134          1           0      -10.153641    4.458476   -0.622082
    135          1           0       -9.135650    6.121764   -2.830657
    136          1           0      -10.816303    6.509960   -2.462542
    137          1           0      -10.343940    4.865786   -2.830122
    138          1           0      -11.383054    6.948867   -0.458842
    139          1           0       -9.849259    7.438206    0.163019
    140          1           0      -10.778496    6.205520    1.036749
 ---------------------------------------------------------------------

 SCF Done:  E(RPBE1PBE) =  -3005.34590643     A.U. after   15 cycles

 Excitation energies and oscillator strengths:

 Excited State   1:      Singlet-A      1.8250 eV  679.38 nm  f=0.3708  <S**2>=0.000
     245 -> 248        0.13644
     246 -> 247        0.69906
     246 <- 247       -0.12491
 This state for optimization and/or second-order correction.
 Total Energy, E(TD-HF/TD-DFT) =  -3005.27884029
 Copying the excited state density for this state as the 1-particle RhoCI density.

 Excited State   2:      Singlet-A      2.2692 eV  546.38 nm  f=0.1308  <S**2>=0.000
     245 -> 247        0.65360
     246 -> 248       -0.23175

 Excited State   3:      Singlet-A      2.7821 eV  445.65 nm  f=0.0060  <S**2>=0.000
     242 -> 247        0.29124
     242 -> 249        0.12788
     243 -> 247        0.60632

 Excited State   4:      Singlet-A      2.9229 eV  424.18 nm  f=0.0030  <S**2>=0.000
     242 -> 247        0.61024
     243 -> 247       -0.30031

 Excited State   5:      Singlet-A      2.9883 eV  414.90 nm  f=0.0022  <S**2>=0.000
     240 -> 247        0.31411
     240 -> 248        0.11196
     240 -> 250        0.10884
     241 -> 247        0.59533

 The electronic state is 1-A.
 Alpha  occ. eigenvalues --  -46.92466 -19.25705 -19.25228 -19.20722 -19.19692
 Alpha  occ. eigenvalues --  -19.18745 -19.18369 -14.41984 -14.41376 -14.39332
 Alpha  occ. eigenvalues --  -14.38716 -10.36530 -10.36150 -10.32195 -10.31482
 Alpha  occ. eigenvalues --  -10.29045 -10.28918 -10.28748 -10.28588 -10.28573
 Alpha  occ. eigenvalues --  -10.28112 -10.28041 -10.27939 -10.27898 -10.26784
 Alpha  occ. eigenvalues --  -10.26542 -10.26434 -10.26374 -10.26337 -10.26108
 Alpha  occ. eigenvalues --  -10.25791 -10.25734 -10.25654 -10.25494 -10.25297
 Alpha  occ. eigenvalues --  -10.25152 -10.25105 -10.24888 -10.24805 -10.24511
 Alpha  occ. eigenvalues --  -10.24172 -10.24138 -10.24095 -10.23871 -10.23634
 Alpha  occ. eigenvalues --  -10.23585 -10.23471 -10.23323 -10.23296 -10.23138
 Alpha  occ. eigenvalues --  -10.22865 -10.22802 -10.22655 -10.22617 -10.22465
 Alpha  occ. eigenvalues --  -10.22326 -10.22290 -10.22287 -10.22280 -10.22139
 Alpha  occ. eigenvalues --  -10.22134 -10.22117 -10.21908 -10.21685 -10.21628
 Alpha  occ. eigenvalues --  -10.21582  -3.14592  -1.87426  -1.86982  -1.86807
 Alpha  occ. eigenvalues --   -1.12145  -1.11376  -1.03658  -1.03241  -1.02710
 Alpha  occ. eigenvalues --   -1.02222  -1.00340  -0.98796  -0.98372  -0.97389
 Alpha  occ. eigenvalues --   -0.87454  -0.84981  -0.84281  -0.83666  -0.83543
 Alpha  occ. eigenvalues --   -0.83071  -0.82935  -0.81953  -0.81665  -0.80327
 Alpha  occ. eigenvalues --   -0.79917  -0.79647  -0.78791  -0.78326  -0.77910
 Alpha  occ. eigenvalues --   -0.77010  -0.76888  -0.75796  -0.75582  -0.75235
 Alpha  occ. eigenvalues --   -0.74144  -0.72561  -0.71983  -0.71319  -0.70525
 Alpha  occ. eigenvalues --   -0.69904  -0.69624  -0.69286  -0.68974  -0.68446
 Alpha  occ. eigenvalues --   -0.67580  -0.66994  -0.66128  -0.64701  -0.63579
 Alpha  occ. eigenvalues --   -0.63136  -0.62647  -0.62105  -0.61045  -0.60596
 Alpha  occ. eigenvalues --   -0.60139  -0.59793  -0.59555  -0.59096  -0.58252
 Alpha  occ. eigenvalues --   -0.58181  -0.56985  -0.56813  -0.56700  -0.54850
 Alpha  occ. eigenvalues --   -0.54378  -0.54086  -0.53921  -0.53243  -0.52686
 Alpha  occ. eigenvalues --   -0.52617  -0.51923  -0.51713  -0.51230  -0.50901
 Alpha  occ. eigenvalues --   -0.49924  -0.49554  -0.49211  -0.49143  -0.48743
 Alpha  occ. eigenvalues --   -0.48194  -0.47950  -0.47775  -0.47693  -0.47417
 Alpha  occ. eigenvalues --   -0.47046  -0.46909  -0.46675  -0.46531  -0.46368
 Alpha  occ. eigenvalues --   -0.46048  -0.45969  -0.45768  -0.45692  -0.45359
 Alpha  occ. eigenvalues --   -0.45260  -0.44772  -0.44377  -0.44149  -0.44134
 Alpha  occ. eigenvalues --   -0.44057  -0.43946  -0.43842  -0.43631  -0.43522
 Alpha  occ. eigenvalues --   -0.43262  -0.42908  -0.42639  -0.42362  -0.42256
 Alpha  occ. eigenvalues --   -0.41994  -0.41861  -0.41643  -0.41531  -0.41406
 Alpha  occ. eigenvalues --   -0.41187  -0.41067  -0.40955  -0.40910  -0.40644
 Alpha  occ. eigenvalues --   -0.40566  -0.40210  -0.39965  -0.39832  -0.39710
 Alpha  occ. eigenvalues --   -0.39615  -0.39444  -0.38901  -0.38792  -0.38566
 Alpha  occ. eigenvalues --   -0.38390  -0.38154  -0.37999  -0.37835  -0.37573
 Alpha  occ. eigenvalues --   -0.37467  -0.37210  -0.37157  -0.37040  -0.36986
 Alpha  occ. eigenvalues --   -0.36768  -0.36236  -0.36063  -0.36003  -0.35835
 Alpha  occ. eigenvalues --   -0.35762  -0.35585  -0.35469  -0.35347  -0.35016
 Alpha  occ. eigenvalues --   -0.34879  -0.34817  -0.34562  -0.34328  -0.33924
 Alpha  occ. eigenvalues --   -0.33506  -0.33079  -0.32691  -0.32643  -0.32530
 Alpha  occ. eigenvalues --   -0.32265  -0.32148  -0.31812  -0.31612  -0.31596
 Alpha  occ. eigenvalues --   -0.31360  -0.31247  -0.30305  -0.29803  -0.29305
 Alpha  occ. eigenvalues --   -0.29006  -0.28769  -0.28423  -0.27357  -0.25867
 Alpha  occ. eigenvalues --   -0.25627  -0.25346  -0.24906  -0.24832  -0.21528
 Alpha  occ. eigenvalues --   -0.18959
 Alpha virt. eigenvalues --   -0.11669  -0.05215  -0.03785  -0.02561  -0.00389
 Alpha virt. eigenvalues --   -0.00260  -0.00196   0.00183   0.01323   0.02969
 Alpha virt. eigenvalues --    0.04024   0.04472   0.04839   0.04984   0.05792

 Mulliken charges:
               1
     1  Mg   0.972065
     2  C   -0.022845
     3  C   -0.071035
     4  C   -0.065117
     5  C   -0.070064
     6  N   -0.399544
     7  C   -0.006816
     8  C   -0.040727
     9  C   -0.164060
    10  C    0.090127
    11  C    0.005944
    12  C   -0.000212
    13  C    0.019960
    14  C    0.181566
    15  O   -0.279182
    16  O   -0.343648
    17  N   -0.532352
    18  C    0.182160
    19  C   -0.152786
    20  C   -0.096916
    21  C    0.173402
    22  C    0.047524
    23  C    0.075048
    24  O   -0.245455
    25  C   -0.020932
    26  N   -0.360142
    27  C    0.095472
    28  C   -0.168018
    29  C   -0.063407
    30  C    0.080137
    31  C    0.004107
    32  C   -0.060552
    33  C   -0.057459
    34  N   -0.429414
    35  C    0.114181
    36  C   -0.211942
    37  C   -0.008862
    38  C    0.176988
    39  C    0.075556
    40  C    0.109940
    41  O   -0.255514
    42  C   -0.113404
    43  C    0.305260
    44  O   -0.244879
    45  O   -0.366167
    46  C    0.126646
    47  C    0.217828
    48  C   -0.102646
    49  C   -0.253033
    50  C    0.029041
    51  C    0.016310
    52  C   -0.043761
    53  C    0.005274
    54  C   -0.241361
    55  C    0.009620
    56  C    0.005248
    57  C   -0.087460
    58  C    0.006622
    59  C   -0.223248
    60  C   -0.008086
    61  C   -0.013341
    62  C   -0.066869
    63  C    0.038680
    64  C   -0.255602
    65  C   -0.016480
    66  C   -0.021748
    67  H    0.000486
    68  H   -0.043900
    69  H    0.009122
    70  H    0.050268
    71  H    0.058622
    72  H    0.062048
    73  H    0.042298
    74  H    0.056361
    75  H    0.046469
    76  H    0.048076
    77  H    0.060570
    78  H    0.070728
    79  H    0.073630
    80  H    0.045065
    81  H    0.042447
    82  H    0.048217
    83  H    0.065462
    84  H    0.068164
    85  H    0.068412
    86  H    0.052344
    87  H    0.041557
    88  H    0.055089
    89  H    0.046735
    90  H    0.045919
    91  H    0.037167
    92  H    0.049084
    93  H    0.022518
    94  H    0.053872
    95  H    0.030129
    96  H    0.062438
    97  H    0.071115
    98  H    0.099752
    99  H    0.058430
   100  H    0.059089
   101  H    0.058651
   102  H    0.034617
   103  H    0.063931
   104  H    0.021596
   105  H    0.070131
   106  H    0.070133
   107  H    0.047816
   108  H    0.022547
   109  H    0.049039
   110  H    0.035054
   111  H    0.032771
   112  H    0.023259
   113  H   -0.001162
   114  H    0.031995
   115  H    0.051301
   116  H    0.026785
   117  H    0.036010
   118  H    0.024447
   119  H    0.007589
   120  H    0.035225
   121  H    0.040554
   122  H    0.029345
   123  H    0.015449
   124  H    0.024974
   125  H    0.042079
   126  H    0.048984
   127  H    0.042242
   128  H    0.019837
   129  H    0.027495
   130  H    0.024848
   131  H    0.020411
   132  H    0.024520
   133  H    0.023580
   134  H    0.041118
   135  H    0.028735
   136  H    0.031730
   137  H    0.031091
   138  H    0.030277
   139  H    0.035473
   140  H    0.038115
 Sum of Mulliken charges =  -0.00000

 Dipole moment (field-independent basis, Debye):
    X=             -0.3738    Y=              1.3249    Z=              2.6350  Tot=              2.9729
 Quadrupole moment (field-independent basis, Debye-Ang):
   XX=           -360.1642   YY=           -431.4161   ZZ=           -399.1621
   XY=             39.4576   XZ=             13.3682   YZ=             20.6254

 Normal termination of Gaussian 16 at Fri Apr 29 12:45:54 2022.
