 Gaussian 16, Revision A.03,
 Gaussian 16:  ES64L-G16RevA.03 25-Dec-2016

 --------------------------------
 #p wB97XD/Def2SVP td=(nstates=5)
 --------------------------------

 ----------------------------------------------------
 step_301_chromophore_23 TDDFT with wB97XD functional
 ----------------------------------------------------
 Symbolic Z-matrix:
 Charge =  0 Multiplicity = 1

                         Standard orientation:
 ---------------------------------------------------------------------
 Center     Atomic      Atomic             Coordinates (Angstroms)
 Number     Number       Type             X           Y           Z
 ---------------------------------------------------------------------
      1         12           0        4.481612    0.863083   -0.311913
      2          6           0        3.416916   -2.480368   -0.538265
      3          6           0        2.051431    1.631261   -2.563501
      4          6           0        5.165479    3.913035    0.442829
      5          6           0        6.849881   -0.206526    2.195164
      6          7           0        2.858546   -0.265003   -1.241905
      7          6           0        2.648384   -1.649913   -1.227204
      8          6           0        1.351481   -2.063468   -2.096824
      9          6           0        1.127206   -0.756299   -2.854785
     10          6           0        2.087864    0.238475   -2.228056
     11          6           0        1.269529   -0.694947   -4.459378
     12          6           0        0.132082   -2.581033   -1.224004
     13          6           0       -0.506072   -3.969990   -1.527474
     14          6           0       -2.035325   -3.869695   -1.816005
     15          8           0       -2.484240   -3.405323   -2.844913
     16          8           0       -2.846144   -4.321099   -0.828472
     17          7           0        3.711490    2.586870   -0.971540
     18          6           0        2.750251    2.717204   -1.896361
     19          6           0        2.554805    4.106613   -2.171961
     20          6           0        3.416652    4.841491   -1.278966
     21          6           0        4.113872    3.818008   -0.515828
     22          6           0        1.416088    4.633689   -3.178473
     23          6           0        3.542947    6.361861   -1.184272
     24          8           0        2.831728    7.107235   -1.877037
     25          6           0        4.399579    6.980375   -0.199680
     26          7           0        5.773270    1.723694    1.169821
     27          6           0        5.954106    3.040559    1.087595
     28          6           0        6.947768    3.489179    2.150901
     29          6           0        7.817535    2.184566    2.322170
     30          6           0        6.762665    1.164738    1.875044
     31          6           0        7.773184    4.815826    1.819428
     32          6           0        8.243415    1.951959    3.840711
     33          6           0        9.665664    1.486345    4.155037
     34          7           0        5.095347   -1.006491    0.669645
     35          6           0        6.008929   -1.247093    1.703017
     36          6           0        6.038643   -2.746973    1.824222
     37          6           0        5.050003   -3.234576    0.944808
     38          6           0        4.476846   -2.112944    0.328017
     39          6           0        6.974845   -3.493303    2.781974
     40          6           0        4.462499   -4.427830    0.414072
     41          8           0        4.709824   -5.630258    0.687320
     42          6           0        3.307905   -4.007533   -0.474359
     43          6           0        3.508516   -4.789120   -1.741806
     44          8           0        3.919584   -4.393632   -2.813132
     45          8           0        2.727698   -5.904338   -1.556544
     46          6           0        2.465256   -6.710981   -2.732539
     47          6           0       -4.246472   -4.321029   -1.244762
     48          6           0       -5.050589   -4.442381   -0.067929
     49          6           0       -5.370104   -3.401922    0.752939
     50          6           0       -4.772682   -1.979261    0.774114
     51          6           0       -6.372864   -3.676040    1.860430
     52          6           0       -7.779597   -3.988189    1.372615
     53          6           0       -8.804455   -3.554835    2.453123
     54          6           0       -9.462131   -2.156795    2.162075
     55          6           0      -10.974025   -2.133804    2.305577
     56          6           0       -8.809105   -1.123572    3.134721
     57          6           0       -7.632080   -0.273297    2.543794
     58          6           0       -7.804391    1.261523    2.415440
     59          6           0       -7.608219    1.757431    0.941579
     60          6           0       -6.106946    1.637553    0.638230
     61          6           0       -8.225500    3.164211    0.811680
     62          6           0       -7.922026    3.869693   -0.529082
     63          6           0       -8.326797    5.365723   -0.478828
     64          6           0       -9.773258    5.464946   -0.795526
     65          6           0      -10.028449    5.771134   -2.312122
     66          6           0      -10.496953    6.568853    0.047858
     67          1           0        1.345979    1.832915   -3.371213
     68          1           0        5.460832    4.954790    0.584519
     69          1           0        7.681200   -0.589278    2.792377
     70          1           0        1.562313   -2.809333   -2.863579
     71          1           0        0.129599   -0.347921   -2.697275
     72          1           0        0.472854   -0.071131   -4.865026
     73          1           0        1.156256   -1.748322   -4.713143
     74          1           0        2.280965   -0.452604   -4.786971
     75          1           0       -0.638252   -1.811182   -1.262155
     76          1           0        0.407254   -2.566800   -0.170119
     77          1           0       -0.363767   -4.479146   -0.573961
     78          1           0       -0.029002   -4.440757   -2.387661
     79          1           0        1.237730    5.707129   -3.240546
     80          1           0        0.451312    4.149153   -3.028902
     81          1           0        1.723791    4.239701   -4.147209
     82          1           0        4.299149    8.064238   -0.137718
     83          1           0        5.466902    6.879613   -0.395422
     84          1           0        4.245805    6.611638    0.814739
     85          1           0        6.256939    3.700842    2.966258
     86          1           0        8.706911    2.242129    1.695417
     87          1           0        7.279670    5.619858    2.364218
     88          1           0        7.752619    5.125461    0.774566
     89          1           0        8.801533    4.706145    2.165022
     90          1           0        7.640500    1.190284    4.335125
     91          1           0        8.073016    2.866034    4.409334
     92          1           0       10.063409    2.223657    4.851477
     93          1           0       10.210171    1.605772    3.218325
     94          1           0        9.755466    0.424891    4.387999
     95          1           0        7.619821   -2.692869    3.143834
     96          1           0        7.585898   -4.273632    2.326783
     97          1           0        6.310645   -4.004422    3.479551
     98          1           0        2.332277   -4.245955   -0.050400
     99          1           0        1.786050   -7.485754   -2.377976
    100          1           0        3.357651   -7.252442   -3.044594
    101          1           0        2.083296   -6.049435   -3.510555
    102          1           0       -4.284799   -5.157488   -1.942084
    103          1           0       -4.576485   -3.446790   -1.806539
    104          1           0       -5.576161   -5.387390    0.075151
    105          1           0       -4.528302   -1.830335    1.826054
    106          1           0       -5.560353   -1.333405    0.385145
    107          1           0       -3.935635   -2.027718    0.076542
    108          1           0       -6.404591   -2.759967    2.450664
    109          1           0       -6.133618   -4.515162    2.513717
    110          1           0       -7.948458   -5.061824    1.285836
    111          1           0       -7.931365   -3.513056    0.403518
    112          1           0       -8.465961   -3.752086    3.469419
    113          1           0       -9.719472   -4.146945    2.435228
    114          1           0       -9.098727   -1.883393    1.171331
    115          1           0      -11.429977   -1.699673    3.195644
    116          1           0      -11.412181   -3.125435    2.198659
    117          1           0      -11.267563   -1.621864    1.388533
    118          1           0       -8.591729   -1.487602    4.138988
    119          1           0       -9.653355   -0.469774    3.356512
    120          1           0       -7.465873   -0.709869    1.559260
    121          1           0       -6.757824   -0.460239    3.166709
    122          1           0       -7.181575    1.788386    3.138920
    123          1           0       -8.846775    1.448066    2.675506
    124          1           0       -8.214022    1.094221    0.324104
    125          1           0       -5.980033    1.409631   -0.421071
    126          1           0       -5.645527    0.852118    1.237039
    127          1           0       -5.761821    2.645169    0.867478
    128          1           0       -7.880861    3.838454    1.595732
    129          1           0       -9.284582    3.013723    1.021181
    130          1           0       -8.374046    3.407338   -1.406627
    131          1           0       -6.845636    3.811997   -0.691717
    132          1           0       -7.755243    5.887958   -1.245290
    133          1           0       -8.116521    5.714724    0.531820
    134          1           0      -10.153641    4.458476   -0.622082
    135          1           0       -9.135650    6.121764   -2.830657
    136          1           0      -10.816303    6.509960   -2.462542
    137          1           0      -10.343940    4.865786   -2.830122
    138          1           0      -11.383054    6.948867   -0.458842
    139          1           0       -9.849259    7.438206    0.163019
    140          1           0      -10.778496    6.205520    1.036749
 ---------------------------------------------------------------------

 SCF Done:  E(RwB97XD) =  -3007.85827553     A.U. after   19 cycles

 Excitation energies and oscillator strengths:

 Excited State   1:      Singlet-A      1.6125 eV  768.88 nm  f=0.3897  <S**2>=0.000
     245 -> 248        0.15416
     246 -> 247        0.68808
     245 <- 248        0.10517
 This state for optimization and/or second-order correction.
 Total Energy, E(TD-HF/TD-DFT) =  -3007.79901635
 Copying the excited state density for this state as the 1-particle RhoCI density.

 Excited State   2:      Singlet-A      2.2088 eV  561.31 nm  f=0.1363  <S**2>=0.000
     245 -> 247        0.64420
     246 -> 248       -0.26113

 Excited State   3:      Singlet-A      3.2546 eV  380.95 nm  f=0.0032  <S**2>=0.000
     241 -> 247        0.24809
     242 -> 249        0.11823
     244 -> 247        0.61644

 Excited State   4:      Singlet-A      3.3650 eV  368.46 nm  f=0.0031  <S**2>=0.000
     241 -> 247       -0.41633
     241 -> 249        0.12715
     242 -> 247        0.46158
     242 -> 249        0.10769
     244 -> 247        0.13230
     246 -> 248       -0.18845

 Excited State   5:      Singlet-A      3.4440 eV  360.00 nm  f=0.0008  <S**2>=0.000
     241 -> 247        0.41306
     241 -> 249        0.12308
     242 -> 247        0.33148
     242 -> 249        0.28901
     242 -> 250        0.13899
     244 -> 247       -0.21956
     246 -> 248        0.10280

 The electronic state is 1-A.
 Alpha  occ. eigenvalues --  -46.95425 -19.30254 -19.29760 -19.25419 -19.24325
 Alpha  occ. eigenvalues --  -19.23684 -19.23108 -14.47030 -14.46541 -14.44374
 Alpha  occ. eigenvalues --  -14.43575 -10.43344 -10.42902 -10.39152 -10.38281
 Alpha  occ. eigenvalues --  -10.35471 -10.35246 -10.35117 -10.35038 -10.34804
 Alpha  occ. eigenvalues --  -10.34616 -10.34469 -10.34356 -10.34098 -10.33075
 Alpha  occ. eigenvalues --  -10.33034 -10.32731 -10.32672 -10.32584 -10.32303
 Alpha  occ. eigenvalues --  -10.32143 -10.32043 -10.32042 -10.31826 -10.31713
 Alpha  occ. eigenvalues --  -10.31711 -10.31499 -10.31218 -10.31039 -10.30945
 Alpha  occ. eigenvalues --  -10.30629 -10.30516 -10.30447 -10.30333 -10.30065
 Alpha  occ. eigenvalues --  -10.29989 -10.29963 -10.29834 -10.29581 -10.29500
 Alpha  occ. eigenvalues --  -10.29161 -10.29150 -10.29044 -10.29008 -10.28849
 Alpha  occ. eigenvalues --  -10.28694 -10.28664 -10.28654 -10.28536 -10.28486
 Alpha  occ. eigenvalues --  -10.28455 -10.28440 -10.28371 -10.28121 -10.28005
 Alpha  occ. eigenvalues --  -10.28000  -3.21410  -1.94995  -1.94549  -1.94369
 Alpha  occ. eigenvalues --   -1.19490  -1.18753  -1.11274  -1.10584  -1.10025
 Alpha  occ. eigenvalues --   -1.09666  -1.07735  -1.06254  -1.05717  -1.04704
 Alpha  occ. eigenvalues --   -0.95000  -0.92649  -0.91953  -0.91309  -0.91176
 Alpha  occ. eigenvalues --   -0.90718  -0.90525  -0.89611  -0.89276  -0.87955
 Alpha  occ. eigenvalues --   -0.87575  -0.87390  -0.86426  -0.85932  -0.85560
 Alpha  occ. eigenvalues --   -0.84688  -0.84645  -0.83420  -0.83204  -0.82878
 Alpha  occ. eigenvalues --   -0.81817  -0.80167  -0.79596  -0.79027  -0.78127
 Alpha  occ. eigenvalues --   -0.77574  -0.77270  -0.76987  -0.76683  -0.76106
 Alpha  occ. eigenvalues --   -0.75091  -0.74580  -0.73689  -0.72321  -0.71121
 Alpha  occ. eigenvalues --   -0.70785  -0.70186  -0.69711  -0.68677  -0.68145
 Alpha  occ. eigenvalues --   -0.67646  -0.67206  -0.67192  -0.66570  -0.65908
 Alpha  occ. eigenvalues --   -0.65645  -0.64647  -0.64484  -0.64101  -0.62360
 Alpha  occ. eigenvalues --   -0.61810  -0.61491  -0.61421  -0.60639  -0.60134
 Alpha  occ. eigenvalues --   -0.60023  -0.59466  -0.59208  -0.58667  -0.58286
 Alpha  occ. eigenvalues --   -0.57269  -0.56946  -0.56643  -0.56467  -0.56208
 Alpha  occ. eigenvalues --   -0.55539  -0.55280  -0.55218  -0.55015  -0.54807
 Alpha  occ. eigenvalues --   -0.54422  -0.54309  -0.54153  -0.53953  -0.53890
 Alpha  occ. eigenvalues --   -0.53374  -0.53355  -0.53108  -0.53040  -0.52657
 Alpha  occ. eigenvalues --   -0.52558  -0.52096  -0.51708  -0.51655  -0.51493
 Alpha  occ. eigenvalues --   -0.51452  -0.51242  -0.51136  -0.50917  -0.50805
 Alpha  occ. eigenvalues --   -0.50571  -0.50195  -0.49884  -0.49626  -0.49503
 Alpha  occ. eigenvalues --   -0.49323  -0.49072  -0.48882  -0.48780  -0.48635
 Alpha  occ. eigenvalues --   -0.48405  -0.48294  -0.48182  -0.48105  -0.47871
 Alpha  occ. eigenvalues --   -0.47776  -0.47351  -0.47269  -0.47047  -0.46977
 Alpha  occ. eigenvalues --   -0.46810  -0.46590  -0.46059  -0.45968  -0.45737
 Alpha  occ. eigenvalues --   -0.45496  -0.45296  -0.45144  -0.44954  -0.44687
 Alpha  occ. eigenvalues --   -0.44602  -0.44346  -0.44286  -0.44125  -0.44060
 Alpha  occ. eigenvalues --   -0.43884  -0.43480  -0.43246  -0.43069  -0.42993
 Alpha  occ. eigenvalues --   -0.42791  -0.42724  -0.42427  -0.42328  -0.41973
 Alpha  occ. eigenvalues --   -0.41885  -0.41779  -0.41610  -0.41252  -0.40978
 Alpha  occ. eigenvalues --   -0.40524  -0.40154  -0.39692  -0.39648  -0.39495
 Alpha  occ. eigenvalues --   -0.39298  -0.39185  -0.38793  -0.38632  -0.38600
 Alpha  occ. eigenvalues --   -0.38364  -0.38220  -0.37198  -0.36809  -0.36239
 Alpha  occ. eigenvalues --   -0.36002  -0.35450  -0.35315  -0.33948  -0.33175
 Alpha  occ. eigenvalues --   -0.32415  -0.32342  -0.31549  -0.31423  -0.26584
 Alpha  occ. eigenvalues --   -0.23114
 Alpha virt. eigenvalues --   -0.07618   0.00342   0.02469   0.03876   0.05504
 Alpha virt. eigenvalues --    0.06433   0.06595   0.06912   0.08129   0.09477
 Alpha virt. eigenvalues --    0.10535   0.11251   0.11403   0.11833   0.12593

 Mulliken charges:
               1
     1  Mg   0.964141
     2  C   -0.022373
     3  C   -0.094966
     4  C   -0.063507
     5  C   -0.075829
     6  N   -0.368731
     7  C   -0.038388
     8  C   -0.015153
     9  C   -0.143469
    10  C    0.081246
    11  C    0.018142
    12  C    0.007174
    13  C    0.037766
    14  C    0.172243
    15  O   -0.277787
    16  O   -0.342829
    17  N   -0.499299
    18  C    0.178380
    19  C   -0.150347
    20  C   -0.087933
    21  C    0.164408
    22  C    0.062029
    23  C    0.070325
    24  O   -0.239055
    25  C   -0.007824
    26  N   -0.324861
    27  C    0.080139
    28  C   -0.143484
    29  C   -0.034637
    30  C    0.062724
    31  C    0.016392
    32  C   -0.047846
    33  C   -0.040909
    34  N   -0.389313
    35  C    0.098036
    36  C   -0.212924
    37  C   -0.003379
    38  C    0.156258
    39  C    0.089695
    40  C    0.092688
    41  O   -0.246749
    42  C   -0.071313
    43  C    0.281808
    44  O   -0.237810
    45  O   -0.365440
    46  C    0.140830
    47  C    0.231372
    48  C   -0.111403
    49  C   -0.242417
    50  C    0.055865
    51  C    0.040680
    52  C   -0.025655
    53  C    0.020251
    54  C   -0.210054
    55  C    0.022362
    56  C    0.017800
    57  C   -0.056925
    58  C    0.022863
    59  C   -0.190864
    60  C    0.007394
    61  C   -0.000556
    62  C   -0.042411
    63  C    0.051786
    64  C   -0.225572
    65  C   -0.005750
    66  C   -0.006715
    67  H   -0.005785
    68  H   -0.065653
    69  H   -0.001055
    70  H    0.034001
    71  H    0.048467
    72  H    0.057677
    73  H    0.036250
    74  H    0.050515
    75  H    0.038137
    76  H    0.040843
    77  H    0.055805
    78  H    0.063991
    79  H    0.071606
    80  H    0.040305
    81  H    0.036402
    82  H    0.047748
    83  H    0.060450
    84  H    0.062559
    85  H    0.057887
    86  H    0.042015
    87  H    0.035462
    88  H    0.048458
    89  H    0.041771
    90  H    0.036799
    91  H    0.028896
    92  H    0.044058
    93  H    0.014121
    94  H    0.048970
    95  H    0.022182
    96  H    0.057841
    97  H    0.065702
    98  H    0.089595
    99  H    0.055368
   100  H    0.055333
   101  H    0.054052
   102  H    0.030801
   103  H    0.058228
   104  H    0.019023
   105  H    0.064707
   106  H    0.059051
   107  H    0.039724
   108  H    0.000879
   109  H    0.042532
   110  H    0.027707
   111  H    0.022600
   112  H    0.015363
   113  H   -0.011601
   114  H    0.017979
   115  H    0.046483
   116  H    0.020464
   117  H    0.029949
   118  H    0.017257
   119  H   -0.005148
   120  H    0.006425
   121  H    0.032820
   122  H    0.022157
   123  H    0.003849
   124  H    0.012272
   125  H    0.036900
   126  H    0.036959
   127  H    0.034343
   128  H    0.009065
   129  H    0.018094
   130  H    0.014749
   131  H    0.010617
   132  H    0.016247
   133  H    0.013712
   134  H    0.026411
   135  H    0.022374
   136  H    0.025628
   137  H    0.025594
   138  H    0.023683
   139  H    0.028710
   140  H    0.032305
 Sum of Mulliken charges =  -0.00000

 Dipole moment (field-independent basis, Debye):
    X=             -0.4260    Y=              1.6251    Z=              2.4974  Tot=              3.0099
 Quadrupole moment (field-independent basis, Debye-Ang):
   XX=           -360.9192   YY=           -429.3245   ZZ=           -399.1683
   XY=             40.3582   XZ=             12.5695   YZ=             20.3845

 Normal termination of Gaussian 16 at Fri Apr 29 13:14:50 2022.
