 Gaussian 16, Revision A.03,
 Gaussian 16:  ES64L-G16RevA.03 25-Dec-2016

 --------------------
 #p ZINDO=(nstates=5)
 --------------------

 -----------------------------
 step_301_chromophore_23 ZINDO
 -----------------------------
 Symbolic Z-matrix:
 Charge =  0 Multiplicity = 1

                         Standard orientation:
 ---------------------------------------------------------------------
 Center     Atomic      Atomic             Coordinates (Angstroms)
 Number     Number       Type             X           Y           Z
 ---------------------------------------------------------------------
      1         12           0        4.481612    0.863083   -0.311913
      2          6           0        3.416916   -2.480368   -0.538265
      3          6           0        2.051431    1.631261   -2.563501
      4          6           0        5.165479    3.913035    0.442829
      5          6           0        6.849881   -0.206526    2.195164
      6          7           0        2.858546   -0.265003   -1.241905
      7          6           0        2.648384   -1.649913   -1.227204
      8          6           0        1.351481   -2.063468   -2.096824
      9          6           0        1.127206   -0.756299   -2.854785
     10          6           0        2.087864    0.238475   -2.228056
     11          6           0        1.269529   -0.694947   -4.459378
     12          6           0        0.132082   -2.581033   -1.224004
     13          6           0       -0.506072   -3.969990   -1.527474
     14          6           0       -2.035325   -3.869695   -1.816005
     15          8           0       -2.484240   -3.405323   -2.844913
     16          8           0       -2.846144   -4.321099   -0.828472
     17          7           0        3.711490    2.586870   -0.971540
     18          6           0        2.750251    2.717204   -1.896361
     19          6           0        2.554805    4.106613   -2.171961
     20          6           0        3.416652    4.841491   -1.278966
     21          6           0        4.113872    3.818008   -0.515828
     22          6           0        1.416088    4.633689   -3.178473
     23          6           0        3.542947    6.361861   -1.184272
     24          8           0        2.831728    7.107235   -1.877037
     25          6           0        4.399579    6.980375   -0.199680
     26          7           0        5.773270    1.723694    1.169821
     27          6           0        5.954106    3.040559    1.087595
     28          6           0        6.947768    3.489179    2.150901
     29          6           0        7.817535    2.184566    2.322170
     30          6           0        6.762665    1.164738    1.875044
     31          6           0        7.773184    4.815826    1.819428
     32          6           0        8.243415    1.951959    3.840711
     33          6           0        9.665664    1.486345    4.155037
     34          7           0        5.095347   -1.006491    0.669645
     35          6           0        6.008929   -1.247093    1.703017
     36          6           0        6.038643   -2.746973    1.824222
     37          6           0        5.050003   -3.234576    0.944808
     38          6           0        4.476846   -2.112944    0.328017
     39          6           0        6.974845   -3.493303    2.781974
     40          6           0        4.462499   -4.427830    0.414072
     41          8           0        4.709824   -5.630258    0.687320
     42          6           0        3.307905   -4.007533   -0.474359
     43          6           0        3.508516   -4.789120   -1.741806
     44          8           0        3.919584   -4.393632   -2.813132
     45          8           0        2.727698   -5.904338   -1.556544
     46          6           0        2.465256   -6.710981   -2.732539
     47          6           0       -4.246472   -4.321029   -1.244762
     48          6           0       -5.050589   -4.442381   -0.067929
     49          6           0       -5.370104   -3.401922    0.752939
     50          6           0       -4.772682   -1.979261    0.774114
     51          6           0       -6.372864   -3.676040    1.860430
     52          6           0       -7.779597   -3.988189    1.372615
     53          6           0       -8.804455   -3.554835    2.453123
     54          6           0       -9.462131   -2.156795    2.162075
     55          6           0      -10.974025   -2.133804    2.305577
     56          6           0       -8.809105   -1.123572    3.134721
     57          6           0       -7.632080   -0.273297    2.543794
     58          6           0       -7.804391    1.261523    2.415440
     59          6           0       -7.608219    1.757431    0.941579
     60          6           0       -6.106946    1.637553    0.638230
     61          6           0       -8.225500    3.164211    0.811680
     62          6           0       -7.922026    3.869693   -0.529082
     63          6           0       -8.326797    5.365723   -0.478828
     64          6           0       -9.773258    5.464946   -0.795526
     65          6           0      -10.028449    5.771134   -2.312122
     66          6           0      -10.496953    6.568853    0.047858
     67          1           0        1.345979    1.832915   -3.371213
     68          1           0        5.460832    4.954790    0.584519
     69          1           0        7.681200   -0.589278    2.792377
     70          1           0        1.562313   -2.809333   -2.863579
     71          1           0        0.129599   -0.347921   -2.697275
     72          1           0        0.472854   -0.071131   -4.865026
     73          1           0        1.156256   -1.748322   -4.713143
     74          1           0        2.280965   -0.452604   -4.786971
     75          1           0       -0.638252   -1.811182   -1.262155
     76          1           0        0.407254   -2.566800   -0.170119
     77          1           0       -0.363767   -4.479146   -0.573961
     78          1           0       -0.029002   -4.440757   -2.387661
     79          1           0        1.237730    5.707129   -3.240546
     80          1           0        0.451312    4.149153   -3.028902
     81          1           0        1.723791    4.239701   -4.147209
     82          1           0        4.299149    8.064238   -0.137718
     83          1           0        5.466902    6.879613   -0.395422
     84          1           0        4.245805    6.611638    0.814739
     85          1           0        6.256939    3.700842    2.966258
     86          1           0        8.706911    2.242129    1.695417
     87          1           0        7.279670    5.619858    2.364218
     88          1           0        7.752619    5.125461    0.774566
     89          1           0        8.801533    4.706145    2.165022
     90          1           0        7.640500    1.190284    4.335125
     91          1           0        8.073016    2.866034    4.409334
     92          1           0       10.063409    2.223657    4.851477
     93          1           0       10.210171    1.605772    3.218325
     94          1           0        9.755466    0.424891    4.387999
     95          1           0        7.619821   -2.692869    3.143834
     96          1           0        7.585898   -4.273632    2.326783
     97          1           0        6.310645   -4.004422    3.479551
     98          1           0        2.332277   -4.245955   -0.050400
     99          1           0        1.786050   -7.485754   -2.377976
    100          1           0        3.357651   -7.252442   -3.044594
    101          1           0        2.083296   -6.049435   -3.510555
    102          1           0       -4.284799   -5.157488   -1.942084
    103          1           0       -4.576485   -3.446790   -1.806539
    104          1           0       -5.576161   -5.387390    0.075151
    105          1           0       -4.528302   -1.830335    1.826054
    106          1           0       -5.560353   -1.333405    0.385145
    107          1           0       -3.935635   -2.027718    0.076542
    108          1           0       -6.404591   -2.759967    2.450664
    109          1           0       -6.133618   -4.515162    2.513717
    110          1           0       -7.948458   -5.061824    1.285836
    111          1           0       -7.931365   -3.513056    0.403518
    112          1           0       -8.465961   -3.752086    3.469419
    113          1           0       -9.719472   -4.146945    2.435228
    114          1           0       -9.098727   -1.883393    1.171331
    115          1           0      -11.429977   -1.699673    3.195644
    116          1           0      -11.412181   -3.125435    2.198659
    117          1           0      -11.267563   -1.621864    1.388533
    118          1           0       -8.591729   -1.487602    4.138988
    119          1           0       -9.653355   -0.469774    3.356512
    120          1           0       -7.465873   -0.709869    1.559260
    121          1           0       -6.757824   -0.460239    3.166709
    122          1           0       -7.181575    1.788386    3.138920
    123          1           0       -8.846775    1.448066    2.675506
    124          1           0       -8.214022    1.094221    0.324104
    125          1           0       -5.980033    1.409631   -0.421071
    126          1           0       -5.645527    0.852118    1.237039
    127          1           0       -5.761821    2.645169    0.867478
    128          1           0       -7.880861    3.838454    1.595732
    129          1           0       -9.284582    3.013723    1.021181
    130          1           0       -8.374046    3.407338   -1.406627
    131          1           0       -6.845636    3.811997   -0.691717
    132          1           0       -7.755243    5.887958   -1.245290
    133          1           0       -8.116521    5.714724    0.531820
    134          1           0      -10.153641    4.458476   -0.622082
    135          1           0       -9.135650    6.121764   -2.830657
    136          1           0      -10.816303    6.509960   -2.462542
    137          1           0      -10.343940    4.865786   -2.830122
    138          1           0      -11.383054    6.948867   -0.458842
    139          1           0       -9.849259    7.438206    0.163019
    140          1           0      -10.778496    6.205520    1.036749
 ---------------------------------------------------------------------

 SCF Done:  E(RZINDO/S) =  -474.394558782     A.U. after   19 cycles

 Excitation energies and oscillator strengths:

 Excited State   1:      Singlet-A      1.2271 eV 1010.42 nm  f=0.6378  <S**2>=0.000
     175 ->178        -0.16984
     176 ->177         0.66658
 This state for optimization and/or second-order correction.
 Total Energy, E(CIS/TDA) =  -474.349465228
 Copying the excited state density for this state as the 1-particle RhoCI density.

 Excited State   2:      Singlet-A      1.9758 eV  627.51 nm  f=0.0641  <S**2>=0.000
     175 ->177         0.56278
     176 ->178         0.39361

 Excited State   3:      Singlet-A      2.9274 eV  423.52 nm  f=0.0061  <S**2>=0.000
     168 ->179        -0.10646
     169 ->177         0.21464
     169 ->179        -0.32351
     169 ->180        -0.12699
     169 ->187         0.10143
     170 ->177         0.17025
     170 ->179        -0.27055
     173 ->177        -0.15040
     176 ->179         0.20162

 Excited State   4:      Singlet-A      2.9370 eV  422.15 nm  f=0.0056  <S**2>=0.000
     168 ->177         0.27619
     168 ->178         0.26445
     168 ->179         0.20681
     168 ->180        -0.37915
     168 ->181        -0.15634
     168 ->185        -0.17916
     168 ->186         0.12395
     168 ->187         0.11277

 Excited State   5:      Singlet-A      3.0155 eV  411.16 nm  f=0.3324  <S**2>=0.000
     175 ->177        -0.16069
     176 ->178         0.30913
     176 ->179         0.53532
     176 ->181         0.12459

 The electronic state is 1-A.
 Alpha  occ. eigenvalues --   -1.84687  -1.83330  -1.80977  -1.76448  -1.73759
 Alpha  occ. eigenvalues --   -1.71240  -1.66879  -1.63109  -1.59025  -1.58295
 Alpha  occ. eigenvalues --   -1.55847  -1.52427  -1.48648  -1.48298  -1.47487
 Alpha  occ. eigenvalues --   -1.44433  -1.43038  -1.41280  -1.38270  -1.37725
 Alpha  occ. eigenvalues --   -1.35248  -1.32727  -1.32474  -1.30285  -1.27908
 Alpha  occ. eigenvalues --   -1.27234  -1.26930  -1.24282  -1.22496  -1.18858
 Alpha  occ. eigenvalues --   -1.18292  -1.16216  -1.15332  -1.14080  -1.12821
 Alpha  occ. eigenvalues --   -1.12478  -1.10975  -1.09534  -1.04923  -1.03312
 Alpha  occ. eigenvalues --   -1.01366  -1.00560  -0.98697  -0.97644  -0.96075
 Alpha  occ. eigenvalues --   -0.95310  -0.94046  -0.93834  -0.93254  -0.92447
 Alpha  occ. eigenvalues --   -0.91765  -0.91088  -0.88936  -0.88468  -0.87341
 Alpha  occ. eigenvalues --   -0.86817  -0.84470  -0.83840  -0.82058  -0.79891
 Alpha  occ. eigenvalues --   -0.79350  -0.79013  -0.77783  -0.77515  -0.76776
 Alpha  occ. eigenvalues --   -0.76497  -0.75361  -0.75106  -0.74701  -0.73921
 Alpha  occ. eigenvalues --   -0.73579  -0.72833  -0.72170  -0.71074  -0.71068
 Alpha  occ. eigenvalues --   -0.69989  -0.69777  -0.69160  -0.68403  -0.67925
 Alpha  occ. eigenvalues --   -0.67852  -0.67453  -0.66700  -0.66321  -0.65406
 Alpha  occ. eigenvalues --   -0.64793  -0.64089  -0.64050  -0.63818  -0.63642
 Alpha  occ. eigenvalues --   -0.63414  -0.62731  -0.62648  -0.62301  -0.61683
 Alpha  occ. eigenvalues --   -0.61404  -0.60867  -0.60420  -0.60046  -0.59806
 Alpha  occ. eigenvalues --   -0.59644  -0.59569  -0.59283  -0.58909  -0.58579
 Alpha  occ. eigenvalues --   -0.58150  -0.57931  -0.57485  -0.57043  -0.56433
 Alpha  occ. eigenvalues --   -0.55980  -0.55750  -0.55482  -0.55225  -0.54951
 Alpha  occ. eigenvalues --   -0.54503  -0.54029  -0.53485  -0.53275  -0.53022
 Alpha  occ. eigenvalues --   -0.52964  -0.52724  -0.51820  -0.51543  -0.51368
 Alpha  occ. eigenvalues --   -0.51107  -0.50757  -0.50618  -0.50362  -0.50113
 Alpha  occ. eigenvalues --   -0.50059  -0.49650  -0.49459  -0.49450  -0.49175
 Alpha  occ. eigenvalues --   -0.48894  -0.48416  -0.48221  -0.47801  -0.47490
 Alpha  occ. eigenvalues --   -0.47274  -0.47011  -0.46804  -0.46536  -0.46356
 Alpha  occ. eigenvalues --   -0.46150  -0.46064  -0.45803  -0.45740  -0.45349
 Alpha  occ. eigenvalues --   -0.45269  -0.44761  -0.44687  -0.44591  -0.44339
 Alpha  occ. eigenvalues --   -0.44326  -0.43552  -0.43089  -0.43051  -0.42158
 Alpha  occ. eigenvalues --   -0.42026  -0.41765  -0.40653  -0.39322  -0.38960
 Alpha  occ. eigenvalues --   -0.38822  -0.37249  -0.35835  -0.35187  -0.34948
 Alpha  occ. eigenvalues --   -0.33464  -0.33355  -0.32327  -0.31721  -0.27378
 Alpha  occ. eigenvalues --   -0.22112
 Alpha virt. eigenvalues --   -0.09136  -0.02030  -0.00957   0.00646   0.01624
 Alpha virt. eigenvalues --    0.01798   0.02035   0.02720   0.04551   0.04575
 Alpha virt. eigenvalues --    0.06170   0.06717   0.07068   0.07478   0.07755

 Mulliken charges:
               1
     1  Mg   0.435080
     2  C   -0.036260
     3  C   -0.106351
     4  C   -0.075365
     5  C   -0.051357
     6  N   -0.296482
     7  C    0.110397
     8  C    0.002449
     9  C    0.002702
    10  C    0.165137
    11  C   -0.054738
    12  C   -0.024206
    13  C    0.005520
    14  C    0.463103
    15  O   -0.527333
    16  O   -0.258790
    17  N   -0.313464
    18  C    0.136896
    19  C    0.025283
    20  C   -0.043527
    21  C    0.115802
    22  C   -0.043204
    23  C    0.340337
    24  O   -0.526403
    25  C   -0.021047
    26  N   -0.255996
    27  C    0.136615
    28  C   -0.006981
    29  C    0.003636
    30  C    0.113154
    31  C   -0.060409
    32  C   -0.040682
    33  C   -0.062267
    34  N   -0.319099
    35  C    0.051623
    36  C    0.030748
    37  C   -0.061809
    38  C    0.130825
    39  C   -0.044264
    40  C    0.332994
    41  O   -0.547924
    42  C    0.054446
    43  C    0.491502
    44  O   -0.511525
    45  O   -0.271380
    46  C    0.074002
    47  C    0.116039
    48  C   -0.091902
    49  C   -0.013690
    50  C   -0.046745
    51  C   -0.026328
    52  C   -0.027238
    53  C   -0.049810
    54  C   -0.008256
    55  C   -0.053711
    56  C   -0.046924
    57  C   -0.042267
    58  C   -0.037848
    59  C   -0.015257
    60  C   -0.057917
    61  C   -0.030736
    62  C   -0.039304
    63  C   -0.030911
    64  C   -0.009218
    65  C   -0.061555
    66  C   -0.058552
    67  H    0.031834
    68  H    0.015842
    69  H    0.031498
    70  H    0.040843
    71  H    0.031592
    72  H    0.034885
    73  H    0.021082
    74  H    0.032198
    75  H    0.026640
    76  H    0.020353
    77  H    0.035897
    78  H    0.054115
    79  H    0.047917
    80  H    0.025720
    81  H    0.024061
    82  H    0.030224
    83  H    0.036307
    84  H    0.034297
    85  H    0.043299
    86  H    0.046777
    87  H    0.015805
    88  H    0.027275
    89  H    0.023149
    90  H    0.020628
    91  H    0.015337
    92  H    0.027297
    93  H    0.009710
    94  H    0.031398
    95  H    0.026639
    96  H    0.038369
    97  H    0.041405
    98  H    0.062262
    99  H    0.030706
   100  H    0.045724
   101  H    0.047601
   102  H    0.033716
   103  H    0.053083
   104  H    0.027534
   105  H    0.039293
   106  H    0.039651
   107  H    0.030540
   108  H    0.015876
   109  H    0.028242
   110  H    0.017100
   111  H    0.025857
   112  H    0.026566
   113  H    0.003928
   114  H    0.028882
   115  H    0.030953
   116  H    0.012927
   117  H    0.013747
   118  H    0.022170
   119  H    0.004118
   120  H    0.020836
   121  H    0.013284
   122  H    0.024070
   123  H    0.009528
   124  H    0.019748
   125  H    0.016401
   126  H    0.025033
   127  H    0.026054
   128  H    0.018493
   129  H    0.016746
   130  H    0.021616
   131  H    0.009780
   132  H    0.019673
   133  H    0.020301
   134  H    0.024827
   135  H    0.019368
   136  H    0.018692
   137  H    0.012789
   138  H    0.016040
   139  H    0.018271
   140  H    0.016330
 Sum of Mulliken charges =  -0.00000

 Dipole moment (field-independent basis, Debye):
    X=              0.6442    Y=              2.5181    Z=              3.7000  Tot=              4.5217
 N-N= 4.420585472075D+03 E-N= 0.000000000000D+00  KE=-9.515165794030D+03
 Leave Link  601 at Fri Apr 29 13:30:26 2022, MaxMem=  6710886400 cpu:               0.8 elap:               0.1
 (Enter /sw/apps/gaussian-16.0/g16/l9999.exe)
 1\1\GINC-BP1-COMPUTE156\SP\RZINDO CIS\STO-3G\C55H74Mg1N4O6\OF15641\29-
 Apr-2022\0\\#p ZINDO=(nstates=5)\\step_301_chromophore_23 ZINDO\\0,1\M
 g,0,-9.7,41.313,41.769\C,0,-8.562,38.049,41.125\C,0,-6.8,42.434,40.391
 \C,0,-11.116,44.198,41.875\C,0,-12.76,39.852,43.01\N,0,-8.034,40.348,4
 0.737\C,0,-7.754,38.979,40.638\C,0,-6.382,38.71,39.829\C,0,-5.804,40.1
 24,39.833\C,0,-6.908,41.005,40.39\C,0,-4.424,40.452,40.599\C,0,-6.597,
 38.049,38.403\C,0,-5.856,36.727,38.04\C,0,-4.991,36.867,36.75\O,0,-3.9

 Normal termination of Gaussian 16 at Fri Apr 29 13:30:26 2022.
