 Gaussian 16, Revision A.03,
 Gaussian 16:  ES64L-G16RevA.03 25-Dec-2016

 ------------------------------
 #p blyp/Def2SVP td=(nstates=5)
 ------------------------------

 --------------------------------------------------
 step_1551_chromophore_1 TDDFT with blyp functional
 --------------------------------------------------
 Symbolic Z-matrix:
 Charge =  0 Multiplicity = 1

                         Standard orientation:
 ---------------------------------------------------------------------
 Center     Atomic      Atomic             Coordinates (Angstroms)
 Number     Number       Type             X           Y           Z
 ---------------------------------------------------------------------
      1         12           0        6.225559    0.654354    0.129436
      2          6           0        4.187554   -2.346129   -0.620090
      3          6           0        3.625678    2.446240   -1.091007
      4          6           0        8.337884    3.143225    0.220773
      5          6           0        8.880571   -1.642943    0.583620
      6          7           0        4.129330    0.044976   -0.813204
      7          6           0        3.461019   -1.169164   -0.943839
      8          6           0        1.955169   -0.921743   -1.336532
      9          6           0        1.898379    0.623046   -1.529101
     10          6           0        3.309388    1.085404   -1.177680
     11          6           0        1.524058    1.063779   -3.005519
     12          6           0        0.868897   -1.541683   -0.389266
     13          6           0       -0.529526   -0.933996   -0.372573
     14          6           0       -1.712145   -1.962615   -0.512683
     15          8           0       -1.660735   -3.200246   -0.693146
     16          8           0       -2.928894   -1.256692   -0.263032
     17          7           0        5.980206    2.580329   -0.223551
     18          6           0        4.845434    3.150103   -0.667283
     19          6           0        4.990228    4.628713   -0.526337
     20          6           0        6.369664    4.854216   -0.210430
     21          6           0        6.936977    3.477930   -0.012493
     22          6           0        3.902765    5.653870   -0.879487
     23          6           0        7.104408    6.138256   -0.151695
     24          8           0        8.341693    6.168656    0.019510
     25          6           0        6.377898    7.500687   -0.328720
     26          7           0        8.365130    0.741731    0.175683
     27          6           0        9.001917    1.945456    0.250570
     28          6           0       10.479766    1.874429    0.635900
     29          6           0       10.552092    0.346652    1.053880
     30          6           0        9.177645   -0.270682    0.545259
     31          6           0       11.348201    2.292919   -0.576702
     32          6           0       10.749308    0.092955    2.656905
     33          6           0        9.512427   -0.365068    3.453874
     34          7           0        6.516507   -1.522696    0.027490
     35          6           0        7.642978   -2.238058    0.384366
     36          6           0        7.334125   -3.602584    0.365051
     37          6           0        5.998310   -3.708158   -0.019814
     38          6           0        5.573432   -2.399222   -0.238589
     39          6           0        8.290852   -4.689430    0.775277
     40          6           0        4.954493   -4.651931   -0.342235
     41          8           0        4.913416   -5.903554   -0.341159
     42          6           0        3.763295   -3.840863   -0.744177
     43          6           0        2.628157   -4.314621    0.088176
     44          8           0        2.347885   -3.934267    1.204011
     45          8           0        1.923788   -5.277708   -0.550396
     46          6           0        0.791338   -5.869238    0.101659
     47          6           0       -4.095078   -2.212933   -0.098013
     48          6           0       -5.485206   -1.464462   -0.264895
     49          6           0       -6.641447   -1.941107   -0.680705
     50          6           0       -6.832139   -3.453513   -0.805400
     51          6           0       -7.862156   -1.089522   -0.942724
     52          6           0       -8.845758   -1.016336    0.276847
     53          6           0       -8.575347    0.281788    1.214744
     54          6           0       -9.674630    1.455524    1.023685
     55          6           0       -9.041446    2.692472    0.460955
     56          6           0      -10.270300    1.805670    2.411555
     57          6           0      -11.762443    2.110759    2.254556
     58          6           0      -12.730224    1.060329    2.850529
     59          6           0      -14.163823    1.280691    2.307607
     60          6           0      -15.202068    0.824338    3.307005
     61          6           0      -14.476924    0.415570    0.979304
     62          6           0      -15.031442    1.238111   -0.178464
     63          6           0      -13.964281    1.671674   -1.190170
     64          6           0      -13.411003    0.600552   -2.196362
     65          6           0      -11.905135    0.588288   -2.327816
     66          6           0      -14.127395    0.785185   -3.539126
     67          1           0        2.724961    3.034190   -1.277877
     68          1           0        9.058835    3.956705    0.314609
     69          1           0        9.737772   -2.244086    0.894660
     70          1           0        1.902742   -1.462504   -2.281890
     71          1           0        1.243611    1.200284   -0.875764
     72          1           0        0.673930    1.742927   -2.943832
     73          1           0        1.259121    0.208762   -3.626569
     74          1           0        2.312872    1.613813   -3.518554
     75          1           0        1.209936   -1.499557    0.645230
     76          1           0        0.668324   -2.591011   -0.606749
     77          1           0       -0.701849   -0.257414   -1.209286
     78          1           0       -0.713454   -0.448310    0.585601
     79          1           0        3.063346    5.053822   -1.231728
     80          1           0        4.253519    6.280745   -1.698814
     81          1           0        3.660065    6.203795    0.030229
     82          1           0        5.459062    7.549516    0.256740
     83          1           0        6.104756    7.643726   -1.374390
     84          1           0        6.948379    8.392233   -0.072484
     85          1           0       10.720804    2.548797    1.458340
     86          1           0       11.318589   -0.166948    0.474269
     87          1           0       11.813234    3.217209   -0.234702
     88          1           0       10.870148    2.527971   -1.527815
     89          1           0       12.126162    1.536938   -0.689472
     90          1           0       11.369429    0.880391    3.086109
     91          1           0       11.371274   -0.799366    2.730540
     92          1           0        8.552196   -0.135758    2.992757
     93          1           0        9.652209    0.061775    4.447498
     94          1           0        9.578005   -1.444504    3.588345
     95          1           0        9.060415   -4.296094    1.440216
     96          1           0        8.589970   -5.409602    0.013848
     97          1           0        7.648517   -5.276834    1.431397
     98          1           0        3.453474   -3.991706   -1.777593
     99          1           0        1.149695   -6.314137    1.030366
    100          1           0        0.359350   -6.719796   -0.426208
    101          1           0       -0.010463   -5.153287    0.278603
    102          1           0       -3.935888   -2.650657    0.887680
    103          1           0       -4.039838   -3.079952   -0.757025
    104          1           0       -5.464008   -0.375148   -0.243939
    105          1           0       -7.523160   -3.963246   -0.134485
    106          1           0       -5.867493   -3.950546   -0.694036
    107          1           0       -7.119411   -3.835797   -1.784667
    108          1           0       -8.373863   -1.580259   -1.770402
    109          1           0       -7.664651   -0.141202   -1.443165
    110          1           0       -8.755888   -1.958238    0.819567
    111          1           0       -9.886499   -0.969716   -0.044500
    112          1           0       -7.620824    0.710308    0.906755
    113          1           0       -8.395262   -0.022529    2.246086
    114          1           0      -10.468952    1.124128    0.354806
    115          1           0       -7.971263    2.786376    0.642713
    116          1           0       -9.566941    3.611550    0.719016
    117          1           0       -9.097503    2.698855   -0.627894
    118          1           0       -9.801894    2.651768    2.915591
    119          1           0      -10.179830    0.973203    3.109480
    120          1           0      -12.023667    2.476561    1.261609
    121          1           0      -11.882516    3.051206    2.793078
    122          1           0      -12.607389    1.063924    3.933977
    123          1           0      -12.411039    0.062864    2.546710
    124          1           0      -14.267940    2.351047    2.128659
    125          1           0      -14.732115    0.908151    4.287524
    126          1           0      -15.546968   -0.199504    3.161083
    127          1           0      -16.139339    1.362690    3.451629
    128          1           0      -15.106672   -0.462455    1.118487
    129          1           0      -13.472947    0.069751    0.733865
    130          1           0      -15.539305    2.139405    0.165887
    131          1           0      -15.841732    0.682738   -0.650524
    132          1           0      -13.106533    2.140724   -0.708154
    133          1           0      -14.485481    2.493738   -1.681238
    134          1           0      -13.746572   -0.377230   -1.851405
    135          1           0      -11.488299    1.413327   -1.749301
    136          1           0      -11.509044    0.693153   -3.337382
    137          1           0      -11.529698   -0.340682   -1.896096
    138          1           0      -13.794178    1.750241   -3.921130
    139          1           0      -15.205927    0.653913   -3.443913
    140          1           0      -13.666898    0.165740   -4.308042
 ---------------------------------------------------------------------

 SCF Done:  E(RB-LYP) =  -3007.37948857     A.U. after   20 cycles

 Excitation energies and oscillator strengths:

 Excited State   1:      Singlet-A      1.7904 eV  692.50 nm  f=0.0701  <S**2>=0.000
     243 -> 247       -0.14879
     244 -> 247        0.57075
     245 -> 247        0.13395
     246 -> 247        0.35742
 This state for optimization and/or second-order correction.
 Total Energy, E(TD-HF/TD-DFT) =  -3007.31369265
 Copying the excited state density for this state as the 1-particle RhoCI density.

 Excited State   2:      Singlet-A      1.8097 eV  685.09 nm  f=0.1570  <S**2>=0.000
     243 -> 247       -0.25618
     244 -> 247       -0.40223
     245 -> 248        0.11757
     246 -> 247        0.50943
     246 <- 247       -0.10919

 Excited State   3:      Singlet-A      1.8567 eV  667.76 nm  f=0.0729  <S**2>=0.000
     243 -> 247        0.63085
     246 -> 247        0.29552

 Excited State   4:      Singlet-A      2.0139 eV  615.65 nm  f=0.1229  <S**2>=0.000
     243 -> 247        0.11467
     244 -> 247       -0.10544
     245 -> 247        0.64024
     246 -> 248       -0.17700
     246 -> 249        0.13340

 Excited State   5:      Singlet-A      2.4552 eV  504.98 nm  f=0.0042  <S**2>=0.000
     241 -> 247        0.62190
     242 -> 247        0.31741

 The electronic state is 1-A.
 Alpha  occ. eigenvalues --  -46.28424 -18.82596 -18.80829 -18.78751 -18.75325
 Alpha  occ. eigenvalues --  -18.75209 -18.74906 -14.03144 -14.02894 -14.02123
 Alpha  occ. eigenvalues --  -14.00450 -10.05514 -10.02861 -10.00044  -9.98998
 Alpha  occ. eigenvalues --   -9.98735  -9.97139  -9.96827  -9.96681  -9.96442
 Alpha  occ. eigenvalues --   -9.96413  -9.96150  -9.95743  -9.95081  -9.94684
 Alpha  occ. eigenvalues --   -9.94641  -9.94634  -9.94470  -9.94243  -9.94180
 Alpha  occ. eigenvalues --   -9.94019  -9.93799  -9.93551  -9.93543  -9.93296
 Alpha  occ. eigenvalues --   -9.93246  -9.93124  -9.93031  -9.92840  -9.92775
 Alpha  occ. eigenvalues --   -9.92690  -9.92688  -9.92537  -9.92395  -9.92370
 Alpha  occ. eigenvalues --   -9.92263  -9.92173  -9.92144  -9.92097  -9.91975
 Alpha  occ. eigenvalues --   -9.91958  -9.91957  -9.91907  -9.91901  -9.91737
 Alpha  occ. eigenvalues --   -9.91370  -9.91128  -9.91117  -9.91064  -9.90975
 Alpha  occ. eigenvalues --   -9.90865  -9.90853  -9.90835  -9.90784  -9.90439
 Alpha  occ. eigenvalues --   -9.90204  -2.92986  -1.73374  -1.72894  -1.72703
 Alpha  occ. eigenvalues --   -0.97569  -0.96128  -0.89960  -0.89442  -0.89227
 Alpha  occ. eigenvalues --   -0.89020  -0.87195  -0.86863  -0.85551  -0.84621
 Alpha  occ. eigenvalues --   -0.75208  -0.73507  -0.73108  -0.72558  -0.72146
 Alpha  occ. eigenvalues --   -0.71788  -0.71140  -0.70901  -0.70780  -0.70489
 Alpha  occ. eigenvalues --   -0.69948  -0.68871  -0.67733  -0.67621  -0.67098
 Alpha  occ. eigenvalues --   -0.66560  -0.65521  -0.64974  -0.64930  -0.64110
 Alpha  occ. eigenvalues --   -0.63694  -0.62572  -0.62226  -0.61385  -0.60661
 Alpha  occ. eigenvalues --   -0.60579  -0.60514  -0.60093  -0.59410  -0.58926
 Alpha  occ. eigenvalues --   -0.58608  -0.58081  -0.56767  -0.55643  -0.54533
 Alpha  occ. eigenvalues --   -0.54003  -0.53689  -0.53214  -0.52548  -0.51671
 Alpha  occ. eigenvalues --   -0.51282  -0.51031  -0.50775  -0.50466  -0.50022
 Alpha  occ. eigenvalues --   -0.49677  -0.48644  -0.48560  -0.47908  -0.46716
 Alpha  occ. eigenvalues --   -0.46245  -0.46006  -0.45634  -0.45018  -0.44162
 Alpha  occ. eigenvalues --   -0.43771  -0.43576  -0.42516  -0.42445  -0.42338
 Alpha  occ. eigenvalues --   -0.41753  -0.41579  -0.41098  -0.41035  -0.40795
 Alpha  occ. eigenvalues --   -0.40670  -0.40488  -0.40323  -0.40184  -0.39879
 Alpha  occ. eigenvalues --   -0.39753  -0.39593  -0.39491  -0.39262  -0.39224
 Alpha  occ. eigenvalues --   -0.38924  -0.38760  -0.38530  -0.38399  -0.38187
 Alpha  occ. eigenvalues --   -0.38081  -0.38003  -0.37486  -0.37259  -0.37061
 Alpha  occ. eigenvalues --   -0.36962  -0.36855  -0.36712  -0.36448  -0.36422
 Alpha  occ. eigenvalues --   -0.36370  -0.35999  -0.35703  -0.35554  -0.35448
 Alpha  occ. eigenvalues --   -0.35266  -0.35170  -0.35021  -0.34838  -0.34808
 Alpha  occ. eigenvalues --   -0.34582  -0.34532  -0.34264  -0.34237  -0.33982
 Alpha  occ. eigenvalues --   -0.33787  -0.33683  -0.33312  -0.33067  -0.32986
 Alpha  occ. eigenvalues --   -0.32769  -0.32524  -0.32306  -0.32139  -0.32053
 Alpha  occ. eigenvalues --   -0.31958  -0.31946  -0.31751  -0.31549  -0.31522
 Alpha  occ. eigenvalues --   -0.31308  -0.31231  -0.30954  -0.30707  -0.30458
 Alpha  occ. eigenvalues --   -0.30384  -0.30112  -0.30035  -0.29765  -0.29469
 Alpha  occ. eigenvalues --   -0.29438  -0.28995  -0.28893  -0.28648  -0.28581
 Alpha  occ. eigenvalues --   -0.28532  -0.28420  -0.28394  -0.28006  -0.27697
 Alpha  occ. eigenvalues --   -0.27614  -0.27423  -0.27081  -0.26885  -0.26857
 Alpha  occ. eigenvalues --   -0.26327  -0.26194  -0.25933  -0.25795  -0.25527
 Alpha  occ. eigenvalues --   -0.25446  -0.23990  -0.23975  -0.23778  -0.23547
 Alpha  occ. eigenvalues --   -0.23306  -0.23091  -0.22063  -0.21462  -0.21265
 Alpha  occ. eigenvalues --   -0.20670  -0.20382  -0.18398  -0.18181  -0.17149
 Alpha  occ. eigenvalues --   -0.15981
 Alpha virt. eigenvalues --   -0.11678  -0.06851  -0.06084  -0.04795  -0.04417
 Alpha virt. eigenvalues --   -0.03901  -0.01950  -0.01230  -0.01130   0.00392
 Alpha virt. eigenvalues --    0.01377   0.01671   0.01969   0.02127   0.02794

 Mulliken charges:
               1
     1  Mg   0.708831
     2  C   -0.005440
     3  C   -0.040081
     4  C   -0.023727
     5  C   -0.060881
     6  N   -0.201131
     7  C   -0.125323
     8  C    0.122422
     9  C   -0.043227
    10  C   -0.001677
    11  C    0.106227
    12  C    0.112094
    13  C    0.097380
    14  C    0.117677
    15  O   -0.203142
    16  O   -0.316192
    17  N   -0.291817
    18  C    0.124747
    19  C   -0.179888
    20  C    0.060733
    21  C    0.102478
    22  C    0.186207
    23  C   -0.072759
    24  O   -0.188198
    25  C    0.119273
    26  N   -0.218447
    27  C    0.017414
    28  C   -0.013768
    29  C    0.057618
    30  C   -0.044649
    31  C    0.125947
    32  C    0.050323
    33  C    0.088248
    34  N   -0.183345
    35  C    0.138178
    36  C   -0.186602
    37  C    0.100689
    38  C    0.046649
    39  C    0.183414
    40  C   -0.052122
    41  O   -0.160041
    42  C    0.090369
    43  C    0.082187
    44  O   -0.184901
    45  O   -0.248021
    46  C    0.224821
    47  C    0.276687
    48  C   -0.048215
    49  C   -0.137493
    50  C    0.115018
    51  C    0.144008
    52  C    0.080390
    53  C    0.099517
    54  C   -0.068213
    55  C    0.111075
    56  C    0.125590
    57  C    0.026967
    58  C    0.119103
    59  C   -0.053611
    60  C    0.110062
    61  C    0.114064
    62  C    0.081846
    63  C    0.096327
    64  C   -0.082067
    65  C    0.106773
    66  C    0.103364
    67  H   -0.064536
    68  H   -0.049059
    69  H   -0.066500
    70  H   -0.029247
    71  H   -0.005047
    72  H   -0.010061
    73  H   -0.005227
    74  H   -0.000063
    75  H   -0.008773
    76  H    0.014100
    77  H    0.007804
    78  H    0.016347
    79  H   -0.022436
    80  H    0.010954
    81  H    0.016234
    82  H   -0.007940
    83  H    0.005791
    84  H   -0.010173
    85  H   -0.011618
    86  H   -0.034122
    87  H   -0.005996
    88  H    0.012778
    89  H   -0.012759
    90  H   -0.012065
    91  H   -0.028035
    92  H    0.018648
    93  H   -0.008679
    94  H   -0.011491
    95  H   -0.016244
    96  H    0.012339
    97  H   -0.002188
    98  H    0.000689
    99  H    0.000438
   100  H    0.003797
   101  H    0.017899
   102  H    0.000966
   103  H    0.023426
   104  H   -0.032662
   105  H    0.004077
   106  H   -0.035979
   107  H   -0.014082
   108  H   -0.045857
   109  H   -0.028535
   110  H   -0.032446
   111  H   -0.025083
   112  H   -0.039958
   113  H   -0.025704
   114  H   -0.017112
   115  H   -0.014001
   116  H   -0.020460
   117  H   -0.031600
   118  H   -0.036327
   119  H   -0.044844
   120  H   -0.037677
   121  H   -0.050113
   122  H   -0.028620
   123  H   -0.037202
   124  H   -0.033750
   125  H   -0.037881
   126  H   -0.022520
   127  H   -0.024461
   128  H   -0.027974
   129  H   -0.038214
   130  H   -0.035665
   131  H   -0.045360
   132  H   -0.047814
   133  H   -0.043517
   134  H   -0.036362
   135  H   -0.004797
   136  H   -0.023337
   137  H   -0.004357
   138  H   -0.028430
   139  H   -0.001548
   140  H   -0.029513
 Sum of Mulliken charges =  -0.00000

 Dipole moment (field-independent basis, Debye):
    X=             -3.5208    Y=              3.7462    Z=              0.1859  Tot=              5.1444
 Quadrupole moment (field-independent basis, Debye-Ang):
   XX=           -379.1378   YY=           -434.6474   ZZ=           -403.5904
   XY=              3.4524   XZ=             14.0514   YZ=             -2.9885

 Normal termination of Gaussian 16 at Wed May  4 09:43:13 2022.
