 Gaussian 16, Revision A.03,
 Gaussian 16:  ES64L-G16RevA.03 25-Dec-2016

 -----------------------------------
 #p cam-b3lyp/Def2SVP td=(nstates=5)
 -----------------------------------

 -------------------------------------------------------
 step_1551_chromophore_1 TDDFT with cam-b3lyp functional
 -------------------------------------------------------
 Symbolic Z-matrix:
 Charge =  0 Multiplicity = 1

                         Standard orientation:
 ---------------------------------------------------------------------
 Center     Atomic      Atomic             Coordinates (Angstroms)
 Number     Number       Type             X           Y           Z
 ---------------------------------------------------------------------
      1         12           0        6.225559    0.654354    0.129436
      2          6           0        4.187554   -2.346129   -0.620090
      3          6           0        3.625678    2.446240   -1.091007
      4          6           0        8.337884    3.143225    0.220773
      5          6           0        8.880571   -1.642943    0.583620
      6          7           0        4.129330    0.044976   -0.813204
      7          6           0        3.461019   -1.169164   -0.943839
      8          6           0        1.955169   -0.921743   -1.336532
      9          6           0        1.898379    0.623046   -1.529101
     10          6           0        3.309388    1.085404   -1.177680
     11          6           0        1.524058    1.063779   -3.005519
     12          6           0        0.868897   -1.541683   -0.389266
     13          6           0       -0.529526   -0.933996   -0.372573
     14          6           0       -1.712145   -1.962615   -0.512683
     15          8           0       -1.660735   -3.200246   -0.693146
     16          8           0       -2.928894   -1.256692   -0.263032
     17          7           0        5.980206    2.580329   -0.223551
     18          6           0        4.845434    3.150103   -0.667283
     19          6           0        4.990228    4.628713   -0.526337
     20          6           0        6.369664    4.854216   -0.210430
     21          6           0        6.936977    3.477930   -0.012493
     22          6           0        3.902765    5.653870   -0.879487
     23          6           0        7.104408    6.138256   -0.151695
     24          8           0        8.341693    6.168656    0.019510
     25          6           0        6.377898    7.500687   -0.328720
     26          7           0        8.365130    0.741731    0.175683
     27          6           0        9.001917    1.945456    0.250570
     28          6           0       10.479766    1.874429    0.635900
     29          6           0       10.552092    0.346652    1.053880
     30          6           0        9.177645   -0.270682    0.545259
     31          6           0       11.348201    2.292919   -0.576702
     32          6           0       10.749308    0.092955    2.656905
     33          6           0        9.512427   -0.365068    3.453874
     34          7           0        6.516507   -1.522696    0.027490
     35          6           0        7.642978   -2.238058    0.384366
     36          6           0        7.334125   -3.602584    0.365051
     37          6           0        5.998310   -3.708158   -0.019814
     38          6           0        5.573432   -2.399222   -0.238589
     39          6           0        8.290852   -4.689430    0.775277
     40          6           0        4.954493   -4.651931   -0.342235
     41          8           0        4.913416   -5.903554   -0.341159
     42          6           0        3.763295   -3.840863   -0.744177
     43          6           0        2.628157   -4.314621    0.088176
     44          8           0        2.347885   -3.934267    1.204011
     45          8           0        1.923788   -5.277708   -0.550396
     46          6           0        0.791338   -5.869238    0.101659
     47          6           0       -4.095078   -2.212933   -0.098013
     48          6           0       -5.485206   -1.464462   -0.264895
     49          6           0       -6.641447   -1.941107   -0.680705
     50          6           0       -6.832139   -3.453513   -0.805400
     51          6           0       -7.862156   -1.089522   -0.942724
     52          6           0       -8.845758   -1.016336    0.276847
     53          6           0       -8.575347    0.281788    1.214744
     54          6           0       -9.674630    1.455524    1.023685
     55          6           0       -9.041446    2.692472    0.460955
     56          6           0      -10.270300    1.805670    2.411555
     57          6           0      -11.762443    2.110759    2.254556
     58          6           0      -12.730224    1.060329    2.850529
     59          6           0      -14.163823    1.280691    2.307607
     60          6           0      -15.202068    0.824338    3.307005
     61          6           0      -14.476924    0.415570    0.979304
     62          6           0      -15.031442    1.238111   -0.178464
     63          6           0      -13.964281    1.671674   -1.190170
     64          6           0      -13.411003    0.600552   -2.196362
     65          6           0      -11.905135    0.588288   -2.327816
     66          6           0      -14.127395    0.785185   -3.539126
     67          1           0        2.724961    3.034190   -1.277877
     68          1           0        9.058835    3.956705    0.314609
     69          1           0        9.737772   -2.244086    0.894660
     70          1           0        1.902742   -1.462504   -2.281890
     71          1           0        1.243611    1.200284   -0.875764
     72          1           0        0.673930    1.742927   -2.943832
     73          1           0        1.259121    0.208762   -3.626569
     74          1           0        2.312872    1.613813   -3.518554
     75          1           0        1.209936   -1.499557    0.645230
     76          1           0        0.668324   -2.591011   -0.606749
     77          1           0       -0.701849   -0.257414   -1.209286
     78          1           0       -0.713454   -0.448310    0.585601
     79          1           0        3.063346    5.053822   -1.231728
     80          1           0        4.253519    6.280745   -1.698814
     81          1           0        3.660065    6.203795    0.030229
     82          1           0        5.459062    7.549516    0.256740
     83          1           0        6.104756    7.643726   -1.374390
     84          1           0        6.948379    8.392233   -0.072484
     85          1           0       10.720804    2.548797    1.458340
     86          1           0       11.318589   -0.166948    0.474269
     87          1           0       11.813234    3.217209   -0.234702
     88          1           0       10.870148    2.527971   -1.527815
     89          1           0       12.126162    1.536938   -0.689472
     90          1           0       11.369429    0.880391    3.086109
     91          1           0       11.371274   -0.799366    2.730540
     92          1           0        8.552196   -0.135758    2.992757
     93          1           0        9.652209    0.061775    4.447498
     94          1           0        9.578005   -1.444504    3.588345
     95          1           0        9.060415   -4.296094    1.440216
     96          1           0        8.589970   -5.409602    0.013848
     97          1           0        7.648517   -5.276834    1.431397
     98          1           0        3.453474   -3.991706   -1.777593
     99          1           0        1.149695   -6.314137    1.030366
    100          1           0        0.359350   -6.719796   -0.426208
    101          1           0       -0.010463   -5.153287    0.278603
    102          1           0       -3.935888   -2.650657    0.887680
    103          1           0       -4.039838   -3.079952   -0.757025
    104          1           0       -5.464008   -0.375148   -0.243939
    105          1           0       -7.523160   -3.963246   -0.134485
    106          1           0       -5.867493   -3.950546   -0.694036
    107          1           0       -7.119411   -3.835797   -1.784667
    108          1           0       -8.373863   -1.580259   -1.770402
    109          1           0       -7.664651   -0.141202   -1.443165
    110          1           0       -8.755888   -1.958238    0.819567
    111          1           0       -9.886499   -0.969716   -0.044500
    112          1           0       -7.620824    0.710308    0.906755
    113          1           0       -8.395262   -0.022529    2.246086
    114          1           0      -10.468952    1.124128    0.354806
    115          1           0       -7.971263    2.786376    0.642713
    116          1           0       -9.566941    3.611550    0.719016
    117          1           0       -9.097503    2.698855   -0.627894
    118          1           0       -9.801894    2.651768    2.915591
    119          1           0      -10.179830    0.973203    3.109480
    120          1           0      -12.023667    2.476561    1.261609
    121          1           0      -11.882516    3.051206    2.793078
    122          1           0      -12.607389    1.063924    3.933977
    123          1           0      -12.411039    0.062864    2.546710
    124          1           0      -14.267940    2.351047    2.128659
    125          1           0      -14.732115    0.908151    4.287524
    126          1           0      -15.546968   -0.199504    3.161083
    127          1           0      -16.139339    1.362690    3.451629
    128          1           0      -15.106672   -0.462455    1.118487
    129          1           0      -13.472947    0.069751    0.733865
    130          1           0      -15.539305    2.139405    0.165887
    131          1           0      -15.841732    0.682738   -0.650524
    132          1           0      -13.106533    2.140724   -0.708154
    133          1           0      -14.485481    2.493738   -1.681238
    134          1           0      -13.746572   -0.377230   -1.851405
    135          1           0      -11.488299    1.413327   -1.749301
    136          1           0      -11.509044    0.693153   -3.337382
    137          1           0      -11.529698   -0.340682   -1.896096
    138          1           0      -13.794178    1.750241   -3.921130
    139          1           0      -15.205927    0.653913   -3.443913
    140          1           0      -13.666898    0.165740   -4.308042
 ---------------------------------------------------------------------

 SCF Done:  E(RCAM-B3LYP) =  -3007.16446508     A.U. after   19 cycles

 Excitation energies and oscillator strengths:

 Excited State   1:      Singlet-A      1.7019 eV  728.52 nm  f=0.3836  <S**2>=0.000
     245 -> 248        0.17277
     246 -> 247        0.68620
     245 <- 248        0.10550
 This state for optimization and/or second-order correction.
 Total Energy, E(TD-HF/TD-DFT) =  -3007.10192310
 Copying the excited state density for this state as the 1-particle RhoCI density.

 Excited State   2:      Singlet-A      2.1932 eV  565.30 nm  f=0.1688  <S**2>=0.000
     245 -> 247        0.65545
     246 -> 248       -0.25019

 Excited State   3:      Singlet-A      3.3305 eV  372.27 nm  f=0.0018  <S**2>=0.000
     243 -> 247        0.22291
     243 -> 249       -0.15397
     243 -> 251        0.13331
     244 -> 247        0.60884

 Excited State   4:      Singlet-A      3.4300 eV  361.47 nm  f=0.0004  <S**2>=0.000
     243 -> 247        0.51224
     243 -> 249       -0.23601
     243 -> 251        0.19302
     244 -> 247       -0.31386

 Excited State   5:      Singlet-A      3.5255 eV  351.68 nm  f=0.0074  <S**2>=0.000
     241 -> 247        0.50757
     241 -> 248        0.22343
     241 -> 249        0.29022
     241 -> 250       -0.14368
     241 -> 251        0.20650

 The electronic state is 1-A.
 Alpha  occ. eigenvalues --  -46.90076 -19.25448 -19.23705 -19.21772 -19.18440
 Alpha  occ. eigenvalues --  -19.18419 -19.18214 -14.42023 -14.41768 -14.40631
 Alpha  occ. eigenvalues --  -14.38826 -10.41049 -10.38245 -10.35325 -10.34407
 Alpha  occ. eigenvalues --  -10.32907 -10.31788 -10.31184 -10.31094 -10.30888
 Alpha  occ. eigenvalues --  -10.30884 -10.30080 -10.30026 -10.29215 -10.29122
 Alpha  occ. eigenvalues --  -10.28833 -10.28738 -10.28711 -10.28599 -10.28345
 Alpha  occ. eigenvalues --  -10.28240 -10.27706 -10.27698 -10.27625 -10.27508
 Alpha  occ. eigenvalues --  -10.27358 -10.27317 -10.27254 -10.26911 -10.26839
 Alpha  occ. eigenvalues --  -10.26662 -10.26601 -10.26358 -10.26326 -10.26265
 Alpha  occ. eigenvalues --  -10.26083 -10.25990 -10.25967 -10.25841 -10.25812
 Alpha  occ. eigenvalues --  -10.25662 -10.25621 -10.25575 -10.25551 -10.25488
 Alpha  occ. eigenvalues --  -10.25019 -10.24739 -10.24732 -10.24705 -10.24640
 Alpha  occ. eigenvalues --  -10.24554 -10.24500 -10.24420 -10.24413 -10.24406
 Alpha  occ. eigenvalues --  -10.23757  -3.18536  -1.93400  -1.92993  -1.92847
 Alpha  occ. eigenvalues --   -1.16125  -1.14509  -1.08318  -1.07851  -1.06995
 Alpha  occ. eigenvalues --   -1.06976  -1.04878  -1.04538  -1.03176  -1.02224
 Alpha  occ. eigenvalues --   -0.92409  -0.90363  -0.89908  -0.89353  -0.88828
 Alpha  occ. eigenvalues --   -0.88486  -0.87720  -0.87456  -0.87344  -0.87208
 Alpha  occ. eigenvalues --   -0.86521  -0.85231  -0.83946  -0.83817  -0.83223
 Alpha  occ. eigenvalues --   -0.82615  -0.81542  -0.80892  -0.80818  -0.80050
 Alpha  occ. eigenvalues --   -0.79420  -0.78347  -0.77829  -0.76842  -0.76057
 Alpha  occ. eigenvalues --   -0.75940  -0.75860  -0.75370  -0.74663  -0.74140
 Alpha  occ. eigenvalues --   -0.73703  -0.73148  -0.71676  -0.70438  -0.69132
 Alpha  occ. eigenvalues --   -0.68662  -0.68248  -0.67769  -0.66924  -0.65829
 Alpha  occ. eigenvalues --   -0.65467  -0.65012  -0.64849  -0.64542  -0.63982
 Alpha  occ. eigenvalues --   -0.63654  -0.62385  -0.62371  -0.61525  -0.60333
 Alpha  occ. eigenvalues --   -0.59732  -0.59575  -0.59195  -0.58329  -0.57775
 Alpha  occ. eigenvalues --   -0.57140  -0.56990  -0.55832  -0.55611  -0.55488
 Alpha  occ. eigenvalues --   -0.54730  -0.54598  -0.54237  -0.54008  -0.53572
 Alpha  occ. eigenvalues --   -0.53426  -0.53278  -0.52993  -0.52801  -0.52724
 Alpha  occ. eigenvalues --   -0.52523  -0.52410  -0.52197  -0.51874  -0.51838
 Alpha  occ. eigenvalues --   -0.51420  -0.51239  -0.51165  -0.50889  -0.50558
 Alpha  occ. eigenvalues --   -0.50317  -0.50293  -0.49695  -0.49524  -0.49500
 Alpha  occ. eigenvalues --   -0.49206  -0.49042  -0.48972  -0.48749  -0.48673
 Alpha  occ. eigenvalues --   -0.48468  -0.48389  -0.48244  -0.47941  -0.47700
 Alpha  occ. eigenvalues --   -0.47608  -0.47189  -0.46916  -0.46857  -0.46741
 Alpha  occ. eigenvalues --   -0.46582  -0.46342  -0.46202  -0.46014  -0.45679
 Alpha  occ. eigenvalues --   -0.45646  -0.45440  -0.44942  -0.44784  -0.44716
 Alpha  occ. eigenvalues --   -0.44451  -0.44202  -0.43919  -0.43838  -0.43757
 Alpha  occ. eigenvalues --   -0.43564  -0.43475  -0.43388  -0.43356  -0.43228
 Alpha  occ. eigenvalues --   -0.42889  -0.42618  -0.42442  -0.42089  -0.41752
 Alpha  occ. eigenvalues --   -0.41686  -0.41679  -0.41303  -0.41156  -0.40871
 Alpha  occ. eigenvalues --   -0.40535  -0.40102  -0.39954  -0.39778  -0.39685
 Alpha  occ. eigenvalues --   -0.39596  -0.39589  -0.39375  -0.39288  -0.38851
 Alpha  occ. eigenvalues --   -0.38543  -0.38238  -0.37905  -0.37828  -0.37525
 Alpha  occ. eigenvalues --   -0.37444  -0.37134  -0.36737  -0.36555  -0.36504
 Alpha  occ. eigenvalues --   -0.36414  -0.35495  -0.35224  -0.34393  -0.34114
 Alpha  occ. eigenvalues --   -0.34096  -0.33271  -0.32827  -0.31198  -0.31154
 Alpha  occ. eigenvalues --   -0.30802  -0.30659  -0.30619  -0.29719  -0.23790
 Alpha  occ. eigenvalues --   -0.21358
 Alpha virt. eigenvalues --   -0.08930  -0.01373   0.00152   0.01088   0.02118
 Alpha virt. eigenvalues --    0.03611   0.05557   0.06104   0.06612   0.07013
 Alpha virt. eigenvalues --    0.07820   0.08111   0.08259   0.08854   0.09203

 Mulliken charges:
               1
     1  Mg   0.838695
     2  C   -0.026789
     3  C   -0.057598
     4  C   -0.040321
     5  C   -0.069243
     6  N   -0.268174
     7  C   -0.078694
     8  C    0.075896
     9  C   -0.104325
    10  C    0.023044
    11  C    0.050353
    12  C    0.055566
    13  C    0.029269
    14  C    0.201692
    15  O   -0.248127
    16  O   -0.381360
    17  N   -0.384200
    18  C    0.133195
    19  C   -0.180686
    20  C   -0.012959
    21  C    0.129742
    22  C    0.130455
    23  C    0.002225
    24  O   -0.230368
    25  C    0.043534
    26  N   -0.288333
    27  C    0.034088
    28  C   -0.067983
    29  C    0.007190
    30  C   -0.030292
    31  C    0.069823
    32  C   -0.001855
    33  C    0.026839
    34  N   -0.273165
    35  C    0.139288
    36  C   -0.179069
    37  C    0.015084
    38  C    0.085401
    39  C    0.131394
    40  C    0.047638
    41  O   -0.197409
    42  C    0.014230
    43  C    0.167801
    44  O   -0.220747
    45  O   -0.311267
    46  C    0.185596
    47  C    0.249510
    48  C   -0.070925
    49  C   -0.163838
    50  C    0.055690
    51  C    0.084276
    52  C    0.030230
    53  C    0.051374
    54  C   -0.120705
    55  C    0.053546
    56  C    0.070639
    57  C   -0.024045
    58  C    0.067537
    59  C   -0.113746
    60  C    0.053490
    61  C    0.060025
    62  C    0.029227
    63  C    0.042516
    64  C   -0.142948
    65  C    0.050811
    66  C    0.046854
    67  H   -0.032272
    68  H   -0.008097
    69  H   -0.029671
    70  H    0.007082
    71  H    0.028646
    72  H    0.013144
    73  H    0.019332
    74  H    0.027126
    75  H    0.024740
    76  H    0.042674
    77  H    0.038380
    78  H    0.049801
    79  H    0.004925
    80  H    0.035572
    81  H    0.041300
    82  H    0.018981
    83  H    0.033177
    84  H    0.025344
    85  H    0.023237
    86  H    0.001209
    87  H    0.017495
    88  H    0.038287
    89  H    0.010971
    90  H    0.015279
    91  H    0.000373
    92  H    0.037256
    93  H    0.016720
    94  H    0.011178
    95  H    0.008581
    96  H    0.040300
    97  H    0.025077
    98  H    0.044770
    99  H    0.024601
   100  H    0.027838
   101  H    0.038435
   102  H    0.028780
   103  H    0.050493
   104  H    0.000336
   105  H    0.027433
   106  H   -0.011862
   107  H    0.011467
   108  H   -0.014553
   109  H    0.001143
   110  H   -0.003996
   111  H   -0.000599
   112  H   -0.014586
   113  H    0.003353
   114  H    0.006318
   115  H    0.010591
   116  H    0.003931
   117  H   -0.007769
   118  H   -0.005466
   119  H   -0.014935
   120  H   -0.014430
   121  H   -0.019436
   122  H    0.000770
   123  H   -0.009931
   124  H   -0.002015
   125  H   -0.012929
   126  H    0.000993
   127  H    0.001543
   128  H    0.001413
   129  H   -0.013467
   130  H   -0.006736
   131  H   -0.016373
   132  H   -0.023193
   133  H   -0.012674
   134  H   -0.004663
   135  H    0.013281
   136  H    0.003105
   137  H    0.015846
   138  H   -0.004714
   139  H    0.021026
   140  H   -0.003876
 Sum of Mulliken charges =  -0.00000

 Dipole moment (field-independent basis, Debye):
    X=             -3.5074    Y=              4.2223    Z=              0.1768  Tot=              5.4919
 Quadrupole moment (field-independent basis, Debye-Ang):
   XX=           -378.4622   YY=           -430.2406   ZZ=           -403.4154
   XY=              4.9640   XZ=             15.0289   YZ=             -3.4989

 Normal termination of Gaussian 16 at Wed May  4 08:43:47 2022.
