 Gaussian 16, Revision A.03,
 Gaussian 16:  ES64L-G16RevA.03 25-Dec-2016

 ---------------------------------
 #p PBE1PBE/Def2SVP td=(nstates=5)
 ---------------------------------

 -----------------------------------------------------
 step_1551_chromophore_1 TDDFT with PBE1PBE functional
 -----------------------------------------------------
 Symbolic Z-matrix:
 Charge =  0 Multiplicity = 1

                         Standard orientation:
 ---------------------------------------------------------------------
 Center     Atomic      Atomic             Coordinates (Angstroms)
 Number     Number       Type             X           Y           Z
 ---------------------------------------------------------------------
      1         12           0        6.225559    0.654354    0.129436
      2          6           0        4.187554   -2.346129   -0.620090
      3          6           0        3.625678    2.446240   -1.091007
      4          6           0        8.337884    3.143225    0.220773
      5          6           0        8.880571   -1.642943    0.583620
      6          7           0        4.129330    0.044976   -0.813204
      7          6           0        3.461019   -1.169164   -0.943839
      8          6           0        1.955169   -0.921743   -1.336532
      9          6           0        1.898379    0.623046   -1.529101
     10          6           0        3.309388    1.085404   -1.177680
     11          6           0        1.524058    1.063779   -3.005519
     12          6           0        0.868897   -1.541683   -0.389266
     13          6           0       -0.529526   -0.933996   -0.372573
     14          6           0       -1.712145   -1.962615   -0.512683
     15          8           0       -1.660735   -3.200246   -0.693146
     16          8           0       -2.928894   -1.256692   -0.263032
     17          7           0        5.980206    2.580329   -0.223551
     18          6           0        4.845434    3.150103   -0.667283
     19          6           0        4.990228    4.628713   -0.526337
     20          6           0        6.369664    4.854216   -0.210430
     21          6           0        6.936977    3.477930   -0.012493
     22          6           0        3.902765    5.653870   -0.879487
     23          6           0        7.104408    6.138256   -0.151695
     24          8           0        8.341693    6.168656    0.019510
     25          6           0        6.377898    7.500687   -0.328720
     26          7           0        8.365130    0.741731    0.175683
     27          6           0        9.001917    1.945456    0.250570
     28          6           0       10.479766    1.874429    0.635900
     29          6           0       10.552092    0.346652    1.053880
     30          6           0        9.177645   -0.270682    0.545259
     31          6           0       11.348201    2.292919   -0.576702
     32          6           0       10.749308    0.092955    2.656905
     33          6           0        9.512427   -0.365068    3.453874
     34          7           0        6.516507   -1.522696    0.027490
     35          6           0        7.642978   -2.238058    0.384366
     36          6           0        7.334125   -3.602584    0.365051
     37          6           0        5.998310   -3.708158   -0.019814
     38          6           0        5.573432   -2.399222   -0.238589
     39          6           0        8.290852   -4.689430    0.775277
     40          6           0        4.954493   -4.651931   -0.342235
     41          8           0        4.913416   -5.903554   -0.341159
     42          6           0        3.763295   -3.840863   -0.744177
     43          6           0        2.628157   -4.314621    0.088176
     44          8           0        2.347885   -3.934267    1.204011
     45          8           0        1.923788   -5.277708   -0.550396
     46          6           0        0.791338   -5.869238    0.101659
     47          6           0       -4.095078   -2.212933   -0.098013
     48          6           0       -5.485206   -1.464462   -0.264895
     49          6           0       -6.641447   -1.941107   -0.680705
     50          6           0       -6.832139   -3.453513   -0.805400
     51          6           0       -7.862156   -1.089522   -0.942724
     52          6           0       -8.845758   -1.016336    0.276847
     53          6           0       -8.575347    0.281788    1.214744
     54          6           0       -9.674630    1.455524    1.023685
     55          6           0       -9.041446    2.692472    0.460955
     56          6           0      -10.270300    1.805670    2.411555
     57          6           0      -11.762443    2.110759    2.254556
     58          6           0      -12.730224    1.060329    2.850529
     59          6           0      -14.163823    1.280691    2.307607
     60          6           0      -15.202068    0.824338    3.307005
     61          6           0      -14.476924    0.415570    0.979304
     62          6           0      -15.031442    1.238111   -0.178464
     63          6           0      -13.964281    1.671674   -1.190170
     64          6           0      -13.411003    0.600552   -2.196362
     65          6           0      -11.905135    0.588288   -2.327816
     66          6           0      -14.127395    0.785185   -3.539126
     67          1           0        2.724961    3.034190   -1.277877
     68          1           0        9.058835    3.956705    0.314609
     69          1           0        9.737772   -2.244086    0.894660
     70          1           0        1.902742   -1.462504   -2.281890
     71          1           0        1.243611    1.200284   -0.875764
     72          1           0        0.673930    1.742927   -2.943832
     73          1           0        1.259121    0.208762   -3.626569
     74          1           0        2.312872    1.613813   -3.518554
     75          1           0        1.209936   -1.499557    0.645230
     76          1           0        0.668324   -2.591011   -0.606749
     77          1           0       -0.701849   -0.257414   -1.209286
     78          1           0       -0.713454   -0.448310    0.585601
     79          1           0        3.063346    5.053822   -1.231728
     80          1           0        4.253519    6.280745   -1.698814
     81          1           0        3.660065    6.203795    0.030229
     82          1           0        5.459062    7.549516    0.256740
     83          1           0        6.104756    7.643726   -1.374390
     84          1           0        6.948379    8.392233   -0.072484
     85          1           0       10.720804    2.548797    1.458340
     86          1           0       11.318589   -0.166948    0.474269
     87          1           0       11.813234    3.217209   -0.234702
     88          1           0       10.870148    2.527971   -1.527815
     89          1           0       12.126162    1.536938   -0.689472
     90          1           0       11.369429    0.880391    3.086109
     91          1           0       11.371274   -0.799366    2.730540
     92          1           0        8.552196   -0.135758    2.992757
     93          1           0        9.652209    0.061775    4.447498
     94          1           0        9.578005   -1.444504    3.588345
     95          1           0        9.060415   -4.296094    1.440216
     96          1           0        8.589970   -5.409602    0.013848
     97          1           0        7.648517   -5.276834    1.431397
     98          1           0        3.453474   -3.991706   -1.777593
     99          1           0        1.149695   -6.314137    1.030366
    100          1           0        0.359350   -6.719796   -0.426208
    101          1           0       -0.010463   -5.153287    0.278603
    102          1           0       -3.935888   -2.650657    0.887680
    103          1           0       -4.039838   -3.079952   -0.757025
    104          1           0       -5.464008   -0.375148   -0.243939
    105          1           0       -7.523160   -3.963246   -0.134485
    106          1           0       -5.867493   -3.950546   -0.694036
    107          1           0       -7.119411   -3.835797   -1.784667
    108          1           0       -8.373863   -1.580259   -1.770402
    109          1           0       -7.664651   -0.141202   -1.443165
    110          1           0       -8.755888   -1.958238    0.819567
    111          1           0       -9.886499   -0.969716   -0.044500
    112          1           0       -7.620824    0.710308    0.906755
    113          1           0       -8.395262   -0.022529    2.246086
    114          1           0      -10.468952    1.124128    0.354806
    115          1           0       -7.971263    2.786376    0.642713
    116          1           0       -9.566941    3.611550    0.719016
    117          1           0       -9.097503    2.698855   -0.627894
    118          1           0       -9.801894    2.651768    2.915591
    119          1           0      -10.179830    0.973203    3.109480
    120          1           0      -12.023667    2.476561    1.261609
    121          1           0      -11.882516    3.051206    2.793078
    122          1           0      -12.607389    1.063924    3.933977
    123          1           0      -12.411039    0.062864    2.546710
    124          1           0      -14.267940    2.351047    2.128659
    125          1           0      -14.732115    0.908151    4.287524
    126          1           0      -15.546968   -0.199504    3.161083
    127          1           0      -16.139339    1.362690    3.451629
    128          1           0      -15.106672   -0.462455    1.118487
    129          1           0      -13.472947    0.069751    0.733865
    130          1           0      -15.539305    2.139405    0.165887
    131          1           0      -15.841732    0.682738   -0.650524
    132          1           0      -13.106533    2.140724   -0.708154
    133          1           0      -14.485481    2.493738   -1.681238
    134          1           0      -13.746572   -0.377230   -1.851405
    135          1           0      -11.488299    1.413327   -1.749301
    136          1           0      -11.509044    0.693153   -3.337382
    137          1           0      -11.529698   -0.340682   -1.896096
    138          1           0      -13.794178    1.750241   -3.921130
    139          1           0      -15.205927    0.653913   -3.443913
    140          1           0      -13.666898    0.165740   -4.308042
 ---------------------------------------------------------------------

 SCF Done:  E(RPBE1PBE) =  -3005.35215280     A.U. after   16 cycles

 Excitation energies and oscillator strengths:

 Excited State   1:      Singlet-A      1.8645 eV  664.98 nm  f=0.3658  <S**2>=0.000
     245 -> 248        0.16027
     246 -> 247        0.69334
     246 <- 247       -0.10837
 This state for optimization and/or second-order correction.
 Total Energy, E(TD-HF/TD-DFT) =  -3005.28363480
 Copying the excited state density for this state as the 1-particle RhoCI density.

 Excited State   2:      Singlet-A      2.2088 eV  561.31 nm  f=0.1620  <S**2>=0.000
     245 -> 247        0.66380
     246 -> 248       -0.21943

 Excited State   3:      Singlet-A      2.8769 eV  430.97 nm  f=0.0019  <S**2>=0.000
     243 -> 247        0.29313
     243 -> 249        0.10329
     244 -> 247        0.60735
     244 -> 249        0.12176

 Excited State   4:      Singlet-A      3.0004 eV  413.23 nm  f=0.0003  <S**2>=0.000
     242 -> 247        0.66267
     242 -> 248        0.14496
     242 -> 249       -0.14187

 Excited State   5:      Singlet-A      3.0625 eV  404.84 nm  f=0.0057  <S**2>=0.000
     243 -> 247        0.61317
     244 -> 247       -0.31551

 The electronic state is 1-A.
 Alpha  occ. eigenvalues --  -46.93474 -19.26199 -19.24355 -19.22086 -19.18693
 Alpha  occ. eigenvalues --  -19.18628 -19.18426 -14.41572 -14.41255 -14.40252
 Alpha  occ. eigenvalues --  -14.38466 -10.38154 -10.35248 -10.32478 -10.31504
 Alpha  occ. eigenvalues --  -10.30364 -10.29530 -10.28965 -10.28848 -10.28644
 Alpha  occ. eigenvalues --  -10.28633 -10.27832 -10.27259 -10.27021 -10.26866
 Alpha  occ. eigenvalues --  -10.26536 -10.26493 -10.26239 -10.26230 -10.26189
 Alpha  occ. eigenvalues --  -10.26113 -10.25544 -10.25414 -10.25219 -10.25136
 Alpha  occ. eigenvalues --  -10.24965 -10.24950 -10.24862 -10.24556 -10.24434
 Alpha  occ. eigenvalues --  -10.24265 -10.24105 -10.23914 -10.23862 -10.23713
 Alpha  occ. eigenvalues --  -10.23647 -10.23647 -10.23600 -10.23523 -10.23272
 Alpha  occ. eigenvalues --  -10.23245 -10.23119 -10.23097 -10.23071 -10.22962
 Alpha  occ. eigenvalues --  -10.22584 -10.22308 -10.22258 -10.22242 -10.22208
 Alpha  occ. eigenvalues --  -10.22087 -10.22066 -10.21991 -10.21808 -10.21787
 Alpha  occ. eigenvalues --  -10.21142  -3.15517  -1.88318  -1.87892  -1.87750
 Alpha  occ. eigenvalues --   -1.10906  -1.09301  -1.03047  -1.02529  -1.01871
 Alpha  occ. eigenvalues --   -1.01811  -0.99583  -0.99255  -0.97793  -0.96832
 Alpha  occ. eigenvalues --   -0.86755  -0.84486  -0.83995  -0.83558  -0.82936
 Alpha  occ. eigenvalues --   -0.82825  -0.82015  -0.81646  -0.81556  -0.81482
 Alpha  occ. eigenvalues --   -0.80843  -0.79510  -0.78188  -0.78020  -0.77496
 Alpha  occ. eigenvalues --   -0.76788  -0.75806  -0.75139  -0.75018  -0.74292
 Alpha  occ. eigenvalues --   -0.73659  -0.72634  -0.72076  -0.71170  -0.70388
 Alpha  occ. eigenvalues --   -0.70036  -0.70019  -0.69724  -0.68825  -0.68294
 Alpha  occ. eigenvalues --   -0.68008  -0.67569  -0.66048  -0.64837  -0.63479
 Alpha  occ. eigenvalues --   -0.63065  -0.62522  -0.62257  -0.61136  -0.60292
 Alpha  occ. eigenvalues --   -0.59706  -0.59548  -0.59350  -0.58642  -0.58542
 Alpha  occ. eigenvalues --   -0.57824  -0.56914  -0.56567  -0.56126  -0.54920
 Alpha  occ. eigenvalues --   -0.54224  -0.54089  -0.53711  -0.52953  -0.52220
 Alpha  occ. eigenvalues --   -0.51607  -0.51529  -0.50334  -0.50140  -0.50047
 Alpha  occ. eigenvalues --   -0.49239  -0.49104  -0.48805  -0.48556  -0.48134
 Alpha  occ. eigenvalues --   -0.47860  -0.47768  -0.47431  -0.47404  -0.47187
 Alpha  occ. eigenvalues --   -0.46999  -0.46829  -0.46744  -0.46446  -0.46343
 Alpha  occ. eigenvalues --   -0.46048  -0.45774  -0.45730  -0.45419  -0.45155
 Alpha  occ. eigenvalues --   -0.44949  -0.44827  -0.44251  -0.44117  -0.44042
 Alpha  occ. eigenvalues --   -0.43749  -0.43603  -0.43575  -0.43383  -0.43313
 Alpha  occ. eigenvalues --   -0.43098  -0.42969  -0.42859  -0.42557  -0.42394
 Alpha  occ. eigenvalues --   -0.42291  -0.41804  -0.41541  -0.41514  -0.41386
 Alpha  occ. eigenvalues --   -0.41326  -0.41018  -0.40953  -0.40613  -0.40379
 Alpha  occ. eigenvalues --   -0.40269  -0.40201  -0.39648  -0.39540  -0.39459
 Alpha  occ. eigenvalues --   -0.39212  -0.38976  -0.38746  -0.38647  -0.38509
 Alpha  occ. eigenvalues --   -0.38310  -0.38196  -0.38160  -0.38059  -0.38001
 Alpha  occ. eigenvalues --   -0.37753  -0.37386  -0.37302  -0.36914  -0.36606
 Alpha  occ. eigenvalues --   -0.36514  -0.36404  -0.36186  -0.35913  -0.35739
 Alpha  occ. eigenvalues --   -0.35308  -0.35028  -0.34827  -0.34734  -0.34562
 Alpha  occ. eigenvalues --   -0.34457  -0.34339  -0.34132  -0.34121  -0.33726
 Alpha  occ. eigenvalues --   -0.33336  -0.33007  -0.32865  -0.32657  -0.32415
 Alpha  occ. eigenvalues --   -0.32384  -0.32093  -0.31827  -0.31576  -0.31424
 Alpha  occ. eigenvalues --   -0.31208  -0.30419  -0.30108  -0.29305  -0.29297
 Alpha  occ. eigenvalues --   -0.29100  -0.28607  -0.27912  -0.26849  -0.26417
 Alpha  occ. eigenvalues --   -0.26291  -0.25545  -0.25517  -0.25200  -0.20788
 Alpha  occ. eigenvalues --   -0.18975
 Alpha virt. eigenvalues --   -0.11339  -0.05007  -0.03963  -0.02371  -0.01633
 Alpha virt. eigenvalues --   -0.01095   0.01105   0.01618   0.02011   0.03381
 Alpha virt. eigenvalues --    0.04215   0.04484   0.04836   0.05049   0.05550

 Mulliken charges:
               1
     1  Mg   0.977654
     2  C   -0.025842
     3  C   -0.054050
     4  C   -0.032555
     5  C   -0.060892
     6  N   -0.363427
     7  C   -0.001179
     8  C    0.010127
     9  C   -0.188028
    10  C    0.065240
    11  C   -0.002784
    12  C   -0.000354
    13  C   -0.044155
    14  C    0.258809
    15  O   -0.279249
    16  O   -0.407092
    17  N   -0.510014
    18  C    0.159301
    19  C   -0.198899
    20  C   -0.066442
    21  C    0.168957
    22  C    0.063100
    23  C    0.049965
    24  O   -0.266107
    25  C   -0.027642
    26  N   -0.391765
    27  C    0.067676
    28  C   -0.146593
    29  C   -0.057541
    30  C    0.003791
    31  C    0.017088
    32  C   -0.059632
    33  C   -0.053145
    34  N   -0.402489
    35  C    0.156615
    36  C   -0.192780
    37  C   -0.030655
    38  C    0.128506
    39  C    0.079398
    40  C    0.133231
    41  O   -0.243568
    42  C   -0.089937
    43  C    0.259623
    44  O   -0.256968
    45  O   -0.346361
    46  C    0.129308
    47  C    0.209951
    48  C   -0.077747
    49  C   -0.214450
    50  C   -0.002455
    51  C    0.019339
    52  C   -0.039360
    53  C    0.005124
    54  C   -0.221041
    55  C   -0.003328
    56  C    0.020704
    57  C   -0.092291
    58  C    0.013136
    59  C   -0.203026
    60  C   -0.000177
    61  C    0.004902
    62  C   -0.033649
    63  C   -0.018697
    64  C   -0.233875
    65  C   -0.013932
    66  C   -0.016968
    67  H    0.000183
    68  H    0.024075
    69  H    0.001523
    70  H    0.045298
    71  H    0.064608
    72  H    0.039667
    73  H    0.046535
    74  H    0.054233
    75  H    0.057488
    76  H    0.079630
    77  H    0.071585
    78  H    0.080761
    79  H    0.035593
    80  H    0.063720
    81  H    0.069071
    82  H    0.045699
    83  H    0.059804
    84  H    0.052739
    85  H    0.058169
    86  H    0.037389
    87  H    0.044899
    88  H    0.064691
    89  H    0.039145
    90  H    0.045819
    91  H    0.033715
    92  H    0.070110
    93  H    0.045784
    94  H    0.039168
    95  H    0.034840
    96  H    0.067130
    97  H    0.053734
    98  H    0.081055
    99  H    0.047111
   100  H    0.050233
   101  H    0.062398
   102  H    0.056372
   103  H    0.075270
   104  H    0.030035
   105  H    0.053372
   106  H    0.016301
   107  H    0.038862
   108  H    0.019392
   109  H    0.032579
   110  H    0.029737
   111  H    0.034201
   112  H    0.019420
   113  H    0.033798
   114  H    0.051136
   115  H    0.036982
   116  H    0.031571
   117  H    0.021095
   118  H    0.026565
   119  H    0.017918
   120  H    0.022036
   121  H    0.015249
   122  H    0.032006
   123  H    0.023316
   124  H    0.034542
   125  H    0.014907
   126  H    0.027870
   127  H    0.029310
   128  H    0.031821
   129  H    0.022386
   130  H    0.025741
   131  H    0.016716
   132  H    0.014077
   133  H    0.019959
   134  H    0.033511
   135  H    0.040705
   136  H    0.030218
   137  H    0.045081
   138  H    0.024169
   139  H    0.048573
   140  H    0.025202
 Sum of Mulliken charges =  -0.00000

 Dipole moment (field-independent basis, Debye):
    X=             -3.5127    Y=              4.2351    Z=              0.2328  Tot=              5.5072
 Quadrupole moment (field-independent basis, Debye-Ang):
   XX=           -372.6786   YY=           -427.3263   ZZ=           -400.9233
   XY=              4.8925   XZ=             15.9068   YZ=             -3.7838

 Normal termination of Gaussian 16 at Wed May  4 08:59:50 2022.
