 Gaussian 16, Revision A.03,
 Gaussian 16:  ES64L-G16RevA.03 25-Dec-2016

 --------------------------------
 #p wB97XD/Def2SVP td=(nstates=5)
 --------------------------------

 ----------------------------------------------------
 step_1551_chromophore_1 TDDFT with wB97XD functional
 ----------------------------------------------------
 Symbolic Z-matrix:
 Charge =  0 Multiplicity = 1

                         Standard orientation:
 ---------------------------------------------------------------------
 Center     Atomic      Atomic             Coordinates (Angstroms)
 Number     Number       Type             X           Y           Z
 ---------------------------------------------------------------------
      1         12           0        6.225559    0.654354    0.129436
      2          6           0        4.187554   -2.346129   -0.620090
      3          6           0        3.625678    2.446240   -1.091007
      4          6           0        8.337884    3.143225    0.220773
      5          6           0        8.880571   -1.642943    0.583620
      6          7           0        4.129330    0.044976   -0.813204
      7          6           0        3.461019   -1.169164   -0.943839
      8          6           0        1.955169   -0.921743   -1.336532
      9          6           0        1.898379    0.623046   -1.529101
     10          6           0        3.309388    1.085404   -1.177680
     11          6           0        1.524058    1.063779   -3.005519
     12          6           0        0.868897   -1.541683   -0.389266
     13          6           0       -0.529526   -0.933996   -0.372573
     14          6           0       -1.712145   -1.962615   -0.512683
     15          8           0       -1.660735   -3.200246   -0.693146
     16          8           0       -2.928894   -1.256692   -0.263032
     17          7           0        5.980206    2.580329   -0.223551
     18          6           0        4.845434    3.150103   -0.667283
     19          6           0        4.990228    4.628713   -0.526337
     20          6           0        6.369664    4.854216   -0.210430
     21          6           0        6.936977    3.477930   -0.012493
     22          6           0        3.902765    5.653870   -0.879487
     23          6           0        7.104408    6.138256   -0.151695
     24          8           0        8.341693    6.168656    0.019510
     25          6           0        6.377898    7.500687   -0.328720
     26          7           0        8.365130    0.741731    0.175683
     27          6           0        9.001917    1.945456    0.250570
     28          6           0       10.479766    1.874429    0.635900
     29          6           0       10.552092    0.346652    1.053880
     30          6           0        9.177645   -0.270682    0.545259
     31          6           0       11.348201    2.292919   -0.576702
     32          6           0       10.749308    0.092955    2.656905
     33          6           0        9.512427   -0.365068    3.453874
     34          7           0        6.516507   -1.522696    0.027490
     35          6           0        7.642978   -2.238058    0.384366
     36          6           0        7.334125   -3.602584    0.365051
     37          6           0        5.998310   -3.708158   -0.019814
     38          6           0        5.573432   -2.399222   -0.238589
     39          6           0        8.290852   -4.689430    0.775277
     40          6           0        4.954493   -4.651931   -0.342235
     41          8           0        4.913416   -5.903554   -0.341159
     42          6           0        3.763295   -3.840863   -0.744177
     43          6           0        2.628157   -4.314621    0.088176
     44          8           0        2.347885   -3.934267    1.204011
     45          8           0        1.923788   -5.277708   -0.550396
     46          6           0        0.791338   -5.869238    0.101659
     47          6           0       -4.095078   -2.212933   -0.098013
     48          6           0       -5.485206   -1.464462   -0.264895
     49          6           0       -6.641447   -1.941107   -0.680705
     50          6           0       -6.832139   -3.453513   -0.805400
     51          6           0       -7.862156   -1.089522   -0.942724
     52          6           0       -8.845758   -1.016336    0.276847
     53          6           0       -8.575347    0.281788    1.214744
     54          6           0       -9.674630    1.455524    1.023685
     55          6           0       -9.041446    2.692472    0.460955
     56          6           0      -10.270300    1.805670    2.411555
     57          6           0      -11.762443    2.110759    2.254556
     58          6           0      -12.730224    1.060329    2.850529
     59          6           0      -14.163823    1.280691    2.307607
     60          6           0      -15.202068    0.824338    3.307005
     61          6           0      -14.476924    0.415570    0.979304
     62          6           0      -15.031442    1.238111   -0.178464
     63          6           0      -13.964281    1.671674   -1.190170
     64          6           0      -13.411003    0.600552   -2.196362
     65          6           0      -11.905135    0.588288   -2.327816
     66          6           0      -14.127395    0.785185   -3.539126
     67          1           0        2.724961    3.034190   -1.277877
     68          1           0        9.058835    3.956705    0.314609
     69          1           0        9.737772   -2.244086    0.894660
     70          1           0        1.902742   -1.462504   -2.281890
     71          1           0        1.243611    1.200284   -0.875764
     72          1           0        0.673930    1.742927   -2.943832
     73          1           0        1.259121    0.208762   -3.626569
     74          1           0        2.312872    1.613813   -3.518554
     75          1           0        1.209936   -1.499557    0.645230
     76          1           0        0.668324   -2.591011   -0.606749
     77          1           0       -0.701849   -0.257414   -1.209286
     78          1           0       -0.713454   -0.448310    0.585601
     79          1           0        3.063346    5.053822   -1.231728
     80          1           0        4.253519    6.280745   -1.698814
     81          1           0        3.660065    6.203795    0.030229
     82          1           0        5.459062    7.549516    0.256740
     83          1           0        6.104756    7.643726   -1.374390
     84          1           0        6.948379    8.392233   -0.072484
     85          1           0       10.720804    2.548797    1.458340
     86          1           0       11.318589   -0.166948    0.474269
     87          1           0       11.813234    3.217209   -0.234702
     88          1           0       10.870148    2.527971   -1.527815
     89          1           0       12.126162    1.536938   -0.689472
     90          1           0       11.369429    0.880391    3.086109
     91          1           0       11.371274   -0.799366    2.730540
     92          1           0        8.552196   -0.135758    2.992757
     93          1           0        9.652209    0.061775    4.447498
     94          1           0        9.578005   -1.444504    3.588345
     95          1           0        9.060415   -4.296094    1.440216
     96          1           0        8.589970   -5.409602    0.013848
     97          1           0        7.648517   -5.276834    1.431397
     98          1           0        3.453474   -3.991706   -1.777593
     99          1           0        1.149695   -6.314137    1.030366
    100          1           0        0.359350   -6.719796   -0.426208
    101          1           0       -0.010463   -5.153287    0.278603
    102          1           0       -3.935888   -2.650657    0.887680
    103          1           0       -4.039838   -3.079952   -0.757025
    104          1           0       -5.464008   -0.375148   -0.243939
    105          1           0       -7.523160   -3.963246   -0.134485
    106          1           0       -5.867493   -3.950546   -0.694036
    107          1           0       -7.119411   -3.835797   -1.784667
    108          1           0       -8.373863   -1.580259   -1.770402
    109          1           0       -7.664651   -0.141202   -1.443165
    110          1           0       -8.755888   -1.958238    0.819567
    111          1           0       -9.886499   -0.969716   -0.044500
    112          1           0       -7.620824    0.710308    0.906755
    113          1           0       -8.395262   -0.022529    2.246086
    114          1           0      -10.468952    1.124128    0.354806
    115          1           0       -7.971263    2.786376    0.642713
    116          1           0       -9.566941    3.611550    0.719016
    117          1           0       -9.097503    2.698855   -0.627894
    118          1           0       -9.801894    2.651768    2.915591
    119          1           0      -10.179830    0.973203    3.109480
    120          1           0      -12.023667    2.476561    1.261609
    121          1           0      -11.882516    3.051206    2.793078
    122          1           0      -12.607389    1.063924    3.933977
    123          1           0      -12.411039    0.062864    2.546710
    124          1           0      -14.267940    2.351047    2.128659
    125          1           0      -14.732115    0.908151    4.287524
    126          1           0      -15.546968   -0.199504    3.161083
    127          1           0      -16.139339    1.362690    3.451629
    128          1           0      -15.106672   -0.462455    1.118487
    129          1           0      -13.472947    0.069751    0.733865
    130          1           0      -15.539305    2.139405    0.165887
    131          1           0      -15.841732    0.682738   -0.650524
    132          1           0      -13.106533    2.140724   -0.708154
    133          1           0      -14.485481    2.493738   -1.681238
    134          1           0      -13.746572   -0.377230   -1.851405
    135          1           0      -11.488299    1.413327   -1.749301
    136          1           0      -11.509044    0.693153   -3.337382
    137          1           0      -11.529698   -0.340682   -1.896096
    138          1           0      -13.794178    1.750241   -3.921130
    139          1           0      -15.205927    0.653913   -3.443913
    140          1           0      -13.666898    0.165740   -4.308042
 ---------------------------------------------------------------------

 SCF Done:  E(RwB97XD) =  -3007.86423690     A.U. after   19 cycles

 Excitation energies and oscillator strengths:

 Excited State   1:      Singlet-A      1.6424 eV  754.89 nm  f=0.3822  <S**2>=0.000
     245 -> 248        0.17988
     246 -> 247        0.68394
     245 <- 248        0.11567
 This state for optimization and/or second-order correction.
 Total Energy, E(TD-HF/TD-DFT) =  -3007.80387963
 Copying the excited state density for this state as the 1-particle RhoCI density.

 Excited State   2:      Singlet-A      2.1376 eV  580.02 nm  f=0.1636  <S**2>=0.000
     245 -> 247        0.65316
     246 -> 248       -0.25526

 Excited State   3:      Singlet-A      3.3475 eV  370.37 nm  f=0.0010  <S**2>=0.000
     243 -> 247        0.17278
     243 -> 249        0.14953
     244 -> 247        0.62423
     244 -> 249        0.10455

 Excited State   4:      Singlet-A      3.4573 eV  358.61 nm  f=0.0001  <S**2>=0.000
     243 -> 247        0.53244
     243 -> 249        0.27380
     243 -> 250       -0.15191
     243 -> 251        0.14342
     244 -> 247       -0.25619

 Excited State   5:      Singlet-A      3.5464 eV  349.61 nm  f=0.0071  <S**2>=0.000
     242 -> 247        0.48939
     242 -> 248        0.22449
     242 -> 249       -0.33229
     242 -> 250       -0.21985
     242 -> 251        0.11138

 The electronic state is 1-A.
 Alpha  occ. eigenvalues --  -46.96401 -19.30729 -19.28944 -19.26717 -19.23467
 Alpha  occ. eigenvalues --  -19.23377 -19.23308 -14.46631 -14.46361 -14.45188
 Alpha  occ. eigenvalues --  -14.43414 -10.44900 -10.42110 -10.39294 -10.38441
 Alpha  occ. eigenvalues --  -10.36857 -10.35863 -10.35231 -10.35125 -10.34917
 Alpha  occ. eigenvalues --  -10.34903 -10.34083 -10.33771 -10.33293 -10.33268
 Alpha  occ. eigenvalues --  -10.32856 -10.32766 -10.32674 -10.32611 -10.32491
 Alpha  occ. eigenvalues --  -10.32320 -10.31768 -10.31747 -10.31669 -10.31447
 Alpha  occ. eigenvalues --  -10.31439 -10.31391 -10.31314 -10.30885 -10.30861
 Alpha  occ. eigenvalues --  -10.30668 -10.30473 -10.30309 -10.30219 -10.30184
 Alpha  occ. eigenvalues --  -10.30024 -10.30021 -10.29996 -10.29798 -10.29694
 Alpha  occ. eigenvalues --  -10.29565 -10.29561 -10.29461 -10.29428 -10.29394
 Alpha  occ. eigenvalues --  -10.28953 -10.28657 -10.28630 -10.28611 -10.28569
 Alpha  occ. eigenvalues --  -10.28518 -10.28437 -10.28349 -10.28244 -10.28229
 Alpha  occ. eigenvalues --  -10.27576  -3.22337  -1.95884  -1.95457  -1.95305
 Alpha  occ. eigenvalues --   -1.18317  -1.16680  -1.10514  -1.10096  -1.09208
 Alpha  occ. eigenvalues --   -1.09203  -1.06905  -1.06597  -1.05186  -1.04230
 Alpha  occ. eigenvalues --   -0.94415  -0.92167  -0.91667  -0.91206  -0.90596
 Alpha  occ. eigenvalues --   -0.90423  -0.89602  -0.89255  -0.89213  -0.89146
 Alpha  occ. eigenvalues --   -0.88475  -0.87138  -0.85833  -0.85677  -0.85115
 Alpha  occ. eigenvalues --   -0.84450  -0.83470  -0.82802  -0.82681  -0.81975
 Alpha  occ. eigenvalues --   -0.81321  -0.80296  -0.79733  -0.78771  -0.78006
 Alpha  occ. eigenvalues --   -0.77726  -0.77703  -0.77298  -0.76491  -0.75957
 Alpha  occ. eigenvalues --   -0.75620  -0.75131  -0.73619  -0.72405  -0.71064
 Alpha  occ. eigenvalues --   -0.70641  -0.70143  -0.69775  -0.68775  -0.67788
 Alpha  occ. eigenvalues --   -0.67335  -0.66972  -0.66844  -0.66337  -0.65983
 Alpha  occ. eigenvalues --   -0.65480  -0.64368  -0.64200  -0.63530  -0.62328
 Alpha  occ. eigenvalues --   -0.61679  -0.61563  -0.61166  -0.60314  -0.59738
 Alpha  occ. eigenvalues --   -0.59092  -0.58957  -0.57761  -0.57532  -0.57467
 Alpha  occ. eigenvalues --   -0.56664  -0.56538  -0.56182  -0.55950  -0.55511
 Alpha  occ. eigenvalues --   -0.55274  -0.55180  -0.54849  -0.54754  -0.54589
 Alpha  occ. eigenvalues --   -0.54433  -0.54319  -0.54106  -0.53779  -0.53728
 Alpha  occ. eigenvalues --   -0.53344  -0.53155  -0.53081  -0.52820  -0.52474
 Alpha  occ. eigenvalues --   -0.52225  -0.52175  -0.51598  -0.51458  -0.51384
 Alpha  occ. eigenvalues --   -0.51135  -0.50923  -0.50915  -0.50672  -0.50604
 Alpha  occ. eigenvalues --   -0.50412  -0.50259  -0.50183  -0.49884  -0.49629
 Alpha  occ. eigenvalues --   -0.49530  -0.49078  -0.48818  -0.48807  -0.48607
 Alpha  occ. eigenvalues --   -0.48496  -0.48217  -0.48110  -0.47870  -0.47572
 Alpha  occ. eigenvalues --   -0.47520  -0.47344  -0.46821  -0.46695  -0.46649
 Alpha  occ. eigenvalues --   -0.46373  -0.46127  -0.45850  -0.45773  -0.45696
 Alpha  occ. eigenvalues --   -0.45456  -0.45363  -0.45281  -0.45230  -0.45156
 Alpha  occ. eigenvalues --   -0.44811  -0.44505  -0.44418  -0.44038  -0.43762
 Alpha  occ. eigenvalues --   -0.43620  -0.43530  -0.43300  -0.42997  -0.42756
 Alpha  occ. eigenvalues --   -0.42388  -0.41993  -0.41864  -0.41710  -0.41630
 Alpha  occ. eigenvalues --   -0.41520  -0.41438  -0.41221  -0.41125  -0.40709
 Alpha  occ. eigenvalues --   -0.40396  -0.40071  -0.39818  -0.39690  -0.39362
 Alpha  occ. eigenvalues --   -0.39346  -0.39161  -0.38848  -0.38496  -0.38393
 Alpha  occ. eigenvalues --   -0.38240  -0.37504  -0.37160  -0.36224  -0.36097
 Alpha  occ. eigenvalues --   -0.35974  -0.35342  -0.34985  -0.33413  -0.33180
 Alpha  occ. eigenvalues --   -0.32843  -0.32716  -0.32612  -0.31897  -0.25695
 Alpha  occ. eigenvalues --   -0.23169
 Alpha virt. eigenvalues --   -0.07292   0.00549   0.02239   0.03974   0.04469
 Alpha virt. eigenvalues --    0.05847   0.07801   0.08406   0.08798   0.09955
 Alpha virt. eigenvalues --    0.10669   0.11203   0.11380   0.11802   0.12264

 Mulliken charges:
               1
     1  Mg   0.969976
     2  C   -0.033896
     3  C   -0.070233
     4  C   -0.047779
     5  C   -0.079280
     6  N   -0.332081
     7  C   -0.036481
     8  C    0.033176
     9  C   -0.161494
    10  C    0.052361
    11  C    0.006449
    12  C    0.018589
    13  C   -0.030084
    14  C    0.253558
    15  O   -0.278164
    16  O   -0.408593
    17  N   -0.474536
    18  C    0.149524
    19  C   -0.193501
    20  C   -0.058486
    21  C    0.154719
    22  C    0.080343
    23  C    0.045096
    24  O   -0.261093
    25  C   -0.015183
    26  N   -0.356998
    27  C    0.054054
    28  C   -0.121108
    29  C   -0.038123
    30  C   -0.005804
    31  C    0.024062
    32  C   -0.047961
    33  C   -0.030221
    34  N   -0.362810
    35  C    0.151555
    36  C   -0.190176
    37  C   -0.029637
    38  C    0.117406
    39  C    0.089774
    40  C    0.118102
    41  O   -0.232904
    42  C   -0.051634
    43  C    0.232853
    44  O   -0.248870
    45  O   -0.343643
    46  C    0.146530
    47  C    0.225881
    48  C   -0.090751
    49  C   -0.196740
    50  C    0.008854
    51  C    0.037772
    52  C   -0.016416
    53  C    0.018040
    54  C   -0.170675
    55  C    0.006743
    56  C    0.031665
    57  C   -0.067073
    58  C    0.029779
    59  C   -0.174818
    60  C    0.010987
    61  C    0.024314
    62  C   -0.018089
    63  C    0.005483
    64  C   -0.207365
    65  C    0.004188
    66  C   -0.002285
    67  H   -0.008624
    68  H    0.019266
    69  H   -0.004023
    70  H    0.034685
    71  H    0.054105
    72  H    0.034264
    73  H    0.040938
    74  H    0.048603
    75  H    0.051174
    76  H    0.061620
    77  H    0.063546
    78  H    0.076265
    79  H    0.029771
    80  H    0.057236
    81  H    0.063701
    82  H    0.039105
    83  H    0.054533
    84  H    0.051756
    85  H    0.049879
    86  H    0.027565
    87  H    0.039421
    88  H    0.060036
    89  H    0.032660
    90  H    0.039605
    91  H    0.025407
    92  H    0.057084
    93  H    0.040964
    94  H    0.032454
    95  H    0.029424
    96  H    0.064388
    97  H    0.048219
    98  H    0.075655
    99  H    0.042544
   100  H    0.046902
   101  H    0.056560
   102  H    0.051654
   103  H    0.067938
   104  H    0.027168
   105  H    0.048687
   106  H    0.009225
   107  H    0.033658
   108  H    0.011300
   109  H    0.025318
   110  H    0.020817
   111  H    0.022221
   112  H    0.004412
   113  H    0.027539
   114  H    0.017757
   115  H    0.031481
   116  H    0.025493
   117  H    0.014733
   118  H    0.019661
   119  H    0.007839
   120  H    0.003928
   121  H    0.006873
   122  H    0.024498
   123  H    0.012033
   124  H    0.022431
   125  H    0.007590
   126  H    0.020847
   127  H    0.024383
   128  H    0.025087
   129  H    0.004472
   130  H    0.017613
   131  H    0.008967
   132  H   -0.004620
   133  H    0.011863
   134  H    0.022025
   135  H    0.030657
   136  H    0.025945
   137  H    0.037021
   138  H    0.015963
   139  H    0.043131
   140  H    0.018850
 Sum of Mulliken charges =  -0.00000

 Dipole moment (field-independent basis, Debye):
    X=             -3.5485    Y=              4.2396    Z=              0.2551  Tot=              5.5345
 Quadrupole moment (field-independent basis, Debye-Ang):
   XX=           -373.3426   YY=           -425.7487   ZZ=           -400.4175
   XY=              4.7851   XZ=             16.0370   YZ=             -3.7555

 Normal termination of Gaussian 16 at Wed May  4 09:30:21 2022.
