 Gaussian 16, Revision A.03,
 Gaussian 16:  ES64L-G16RevA.03 25-Dec-2016

 --------------------
 #p ZINDO=(nstates=5)
 --------------------

 -----------------------------
 step_1551_chromophore_1 ZINDO
 -----------------------------
 Symbolic Z-matrix:
 Charge =  0 Multiplicity = 1

                         Standard orientation:
 ---------------------------------------------------------------------
 Center     Atomic      Atomic             Coordinates (Angstroms)
 Number     Number       Type             X           Y           Z
 ---------------------------------------------------------------------
      1         12           0        6.225559    0.654354    0.129436
      2          6           0        4.187554   -2.346129   -0.620090
      3          6           0        3.625678    2.446240   -1.091007
      4          6           0        8.337884    3.143225    0.220773
      5          6           0        8.880571   -1.642943    0.583620
      6          7           0        4.129330    0.044976   -0.813204
      7          6           0        3.461019   -1.169164   -0.943839
      8          6           0        1.955169   -0.921743   -1.336532
      9          6           0        1.898379    0.623046   -1.529101
     10          6           0        3.309388    1.085404   -1.177680
     11          6           0        1.524058    1.063779   -3.005519
     12          6           0        0.868897   -1.541683   -0.389266
     13          6           0       -0.529526   -0.933996   -0.372573
     14          6           0       -1.712145   -1.962615   -0.512683
     15          8           0       -1.660735   -3.200246   -0.693146
     16          8           0       -2.928894   -1.256692   -0.263032
     17          7           0        5.980206    2.580329   -0.223551
     18          6           0        4.845434    3.150103   -0.667283
     19          6           0        4.990228    4.628713   -0.526337
     20          6           0        6.369664    4.854216   -0.210430
     21          6           0        6.936977    3.477930   -0.012493
     22          6           0        3.902765    5.653870   -0.879487
     23          6           0        7.104408    6.138256   -0.151695
     24          8           0        8.341693    6.168656    0.019510
     25          6           0        6.377898    7.500687   -0.328720
     26          7           0        8.365130    0.741731    0.175683
     27          6           0        9.001917    1.945456    0.250570
     28          6           0       10.479766    1.874429    0.635900
     29          6           0       10.552092    0.346652    1.053880
     30          6           0        9.177645   -0.270682    0.545259
     31          6           0       11.348201    2.292919   -0.576702
     32          6           0       10.749308    0.092955    2.656905
     33          6           0        9.512427   -0.365068    3.453874
     34          7           0        6.516507   -1.522696    0.027490
     35          6           0        7.642978   -2.238058    0.384366
     36          6           0        7.334125   -3.602584    0.365051
     37          6           0        5.998310   -3.708158   -0.019814
     38          6           0        5.573432   -2.399222   -0.238589
     39          6           0        8.290852   -4.689430    0.775277
     40          6           0        4.954493   -4.651931   -0.342235
     41          8           0        4.913416   -5.903554   -0.341159
     42          6           0        3.763295   -3.840863   -0.744177
     43          6           0        2.628157   -4.314621    0.088176
     44          8           0        2.347885   -3.934267    1.204011
     45          8           0        1.923788   -5.277708   -0.550396
     46          6           0        0.791338   -5.869238    0.101659
     47          6           0       -4.095078   -2.212933   -0.098013
     48          6           0       -5.485206   -1.464462   -0.264895
     49          6           0       -6.641447   -1.941107   -0.680705
     50          6           0       -6.832139   -3.453513   -0.805400
     51          6           0       -7.862156   -1.089522   -0.942724
     52          6           0       -8.845758   -1.016336    0.276847
     53          6           0       -8.575347    0.281788    1.214744
     54          6           0       -9.674630    1.455524    1.023685
     55          6           0       -9.041446    2.692472    0.460955
     56          6           0      -10.270300    1.805670    2.411555
     57          6           0      -11.762443    2.110759    2.254556
     58          6           0      -12.730224    1.060329    2.850529
     59          6           0      -14.163823    1.280691    2.307607
     60          6           0      -15.202068    0.824338    3.307005
     61          6           0      -14.476924    0.415570    0.979304
     62          6           0      -15.031442    1.238111   -0.178464
     63          6           0      -13.964281    1.671674   -1.190170
     64          6           0      -13.411003    0.600552   -2.196362
     65          6           0      -11.905135    0.588288   -2.327816
     66          6           0      -14.127395    0.785185   -3.539126
     67          1           0        2.724961    3.034190   -1.277877
     68          1           0        9.058835    3.956705    0.314609
     69          1           0        9.737772   -2.244086    0.894660
     70          1           0        1.902742   -1.462504   -2.281890
     71          1           0        1.243611    1.200284   -0.875764
     72          1           0        0.673930    1.742927   -2.943832
     73          1           0        1.259121    0.208762   -3.626569
     74          1           0        2.312872    1.613813   -3.518554
     75          1           0        1.209936   -1.499557    0.645230
     76          1           0        0.668324   -2.591011   -0.606749
     77          1           0       -0.701849   -0.257414   -1.209286
     78          1           0       -0.713454   -0.448310    0.585601
     79          1           0        3.063346    5.053822   -1.231728
     80          1           0        4.253519    6.280745   -1.698814
     81          1           0        3.660065    6.203795    0.030229
     82          1           0        5.459062    7.549516    0.256740
     83          1           0        6.104756    7.643726   -1.374390
     84          1           0        6.948379    8.392233   -0.072484
     85          1           0       10.720804    2.548797    1.458340
     86          1           0       11.318589   -0.166948    0.474269
     87          1           0       11.813234    3.217209   -0.234702
     88          1           0       10.870148    2.527971   -1.527815
     89          1           0       12.126162    1.536938   -0.689472
     90          1           0       11.369429    0.880391    3.086109
     91          1           0       11.371274   -0.799366    2.730540
     92          1           0        8.552196   -0.135758    2.992757
     93          1           0        9.652209    0.061775    4.447498
     94          1           0        9.578005   -1.444504    3.588345
     95          1           0        9.060415   -4.296094    1.440216
     96          1           0        8.589970   -5.409602    0.013848
     97          1           0        7.648517   -5.276834    1.431397
     98          1           0        3.453474   -3.991706   -1.777593
     99          1           0        1.149695   -6.314137    1.030366
    100          1           0        0.359350   -6.719796   -0.426208
    101          1           0       -0.010463   -5.153287    0.278603
    102          1           0       -3.935888   -2.650657    0.887680
    103          1           0       -4.039838   -3.079952   -0.757025
    104          1           0       -5.464008   -0.375148   -0.243939
    105          1           0       -7.523160   -3.963246   -0.134485
    106          1           0       -5.867493   -3.950546   -0.694036
    107          1           0       -7.119411   -3.835797   -1.784667
    108          1           0       -8.373863   -1.580259   -1.770402
    109          1           0       -7.664651   -0.141202   -1.443165
    110          1           0       -8.755888   -1.958238    0.819567
    111          1           0       -9.886499   -0.969716   -0.044500
    112          1           0       -7.620824    0.710308    0.906755
    113          1           0       -8.395262   -0.022529    2.246086
    114          1           0      -10.468952    1.124128    0.354806
    115          1           0       -7.971263    2.786376    0.642713
    116          1           0       -9.566941    3.611550    0.719016
    117          1           0       -9.097503    2.698855   -0.627894
    118          1           0       -9.801894    2.651768    2.915591
    119          1           0      -10.179830    0.973203    3.109480
    120          1           0      -12.023667    2.476561    1.261609
    121          1           0      -11.882516    3.051206    2.793078
    122          1           0      -12.607389    1.063924    3.933977
    123          1           0      -12.411039    0.062864    2.546710
    124          1           0      -14.267940    2.351047    2.128659
    125          1           0      -14.732115    0.908151    4.287524
    126          1           0      -15.546968   -0.199504    3.161083
    127          1           0      -16.139339    1.362690    3.451629
    128          1           0      -15.106672   -0.462455    1.118487
    129          1           0      -13.472947    0.069751    0.733865
    130          1           0      -15.539305    2.139405    0.165887
    131          1           0      -15.841732    0.682738   -0.650524
    132          1           0      -13.106533    2.140724   -0.708154
    133          1           0      -14.485481    2.493738   -1.681238
    134          1           0      -13.746572   -0.377230   -1.851405
    135          1           0      -11.488299    1.413327   -1.749301
    136          1           0      -11.509044    0.693153   -3.337382
    137          1           0      -11.529698   -0.340682   -1.896096
    138          1           0      -13.794178    1.750241   -3.921130
    139          1           0      -15.205927    0.653913   -3.443913
    140          1           0      -13.666898    0.165740   -4.308042
 ---------------------------------------------------------------------

 SCF Done:  E(RZINDO/S) =  -474.009531142     A.U. after   19 cycles

 Excitation energies and oscillator strengths:

 Excited State   1:      Singlet-A      1.2270 eV 1010.50 nm  f=0.6242  <S**2>=0.000
     175 ->178        -0.19022
     176 ->177         0.66289
 This state for optimization and/or second-order correction.
 Total Energy, E(CIS/TDA) =  -473.964441105
 Copying the excited state density for this state as the 1-particle RhoCI density.

 Excited State   2:      Singlet-A      1.8939 eV  654.64 nm  f=0.1027  <S**2>=0.000
     175 ->177         0.58288
     176 ->178         0.37141

 Excited State   3:      Singlet-A      2.9161 eV  425.16 nm  f=0.0010  <S**2>=0.000
     168 ->177         0.31213
     168 ->178        -0.11698
     168 ->179        -0.36082
     168 ->180        -0.10599
     168 ->181         0.24314
     168 ->186        -0.16710
     169 ->177        -0.16829
     169 ->179         0.16250
     169 ->181        -0.13057

 Excited State   4:      Singlet-A      2.9606 eV  418.79 nm  f=0.0153  <S**2>=0.000
     168 ->177         0.14276
     168 ->179         0.15336
     168 ->181         0.15270
     169 ->177         0.24716
     169 ->178        -0.13875
     169 ->179         0.33390
     169 ->180        -0.17538
     169 ->181         0.26530
     169 ->186         0.14618
     169 ->187         0.14116

 Excited State   5:      Singlet-A      3.0017 eV  413.04 nm  f=0.2012  <S**2>=0.000
     175 ->177         0.15875
     176 ->178        -0.26181
     176 ->179         0.45767
     176 ->180         0.29126
     176 ->181         0.28457

 The electronic state is 1-A.
 Alpha  occ. eigenvalues --   -1.85681  -1.81462  -1.77971  -1.73960  -1.70778
 Alpha  occ. eigenvalues --   -1.67541  -1.65608  -1.59357  -1.58881  -1.56103
 Alpha  occ. eigenvalues --   -1.54950  -1.51360  -1.47730  -1.47304  -1.44478
 Alpha  occ. eigenvalues --   -1.43426  -1.41263  -1.40577  -1.38464  -1.37736
 Alpha  occ. eigenvalues --   -1.36260  -1.34565  -1.33291  -1.30574  -1.29031
 Alpha  occ. eigenvalues --   -1.28214  -1.25038  -1.20621  -1.19387  -1.17395
 Alpha  occ. eigenvalues --   -1.16949  -1.16358  -1.14737  -1.14335  -1.12024
 Alpha  occ. eigenvalues --   -1.11914  -1.10582  -1.10490  -1.05337  -1.04124
 Alpha  occ. eigenvalues --   -1.03297  -1.01361  -0.99590  -0.97677  -0.96759
 Alpha  occ. eigenvalues --   -0.95971  -0.94568  -0.93948  -0.93375  -0.92735
 Alpha  occ. eigenvalues --   -0.90742  -0.90092  -0.89417  -0.87815  -0.87026
 Alpha  occ. eigenvalues --   -0.85815  -0.83518  -0.82698  -0.81488  -0.80471
 Alpha  occ. eigenvalues --   -0.79214  -0.78701  -0.76658  -0.76457  -0.75698
 Alpha  occ. eigenvalues --   -0.75332  -0.75141  -0.74771  -0.74117  -0.73693
 Alpha  occ. eigenvalues --   -0.73110  -0.72671  -0.71831  -0.71235  -0.70856
 Alpha  occ. eigenvalues --   -0.70039  -0.69732  -0.68980  -0.68089  -0.67630
 Alpha  occ. eigenvalues --   -0.67434  -0.67152  -0.66374  -0.66286  -0.65422
 Alpha  occ. eigenvalues --   -0.64918  -0.64507  -0.64150  -0.63806  -0.63455
 Alpha  occ. eigenvalues --   -0.63158  -0.63033  -0.62751  -0.62348  -0.61921
 Alpha  occ. eigenvalues --   -0.61266  -0.60979  -0.60774  -0.60509  -0.60018
 Alpha  occ. eigenvalues --   -0.59769  -0.59107  -0.58923  -0.58621  -0.58182
 Alpha  occ. eigenvalues --   -0.57974  -0.57777  -0.57396  -0.57041  -0.56783
 Alpha  occ. eigenvalues --   -0.56428  -0.56240  -0.55585  -0.55105  -0.54865
 Alpha  occ. eigenvalues --   -0.54563  -0.54253  -0.53826  -0.53355  -0.53191
 Alpha  occ. eigenvalues --   -0.52714  -0.51999  -0.51762  -0.51444  -0.51283
 Alpha  occ. eigenvalues --   -0.50432  -0.50347  -0.50053  -0.49867  -0.49581
 Alpha  occ. eigenvalues --   -0.49374  -0.49202  -0.49003  -0.48680  -0.48424
 Alpha  occ. eigenvalues --   -0.48239  -0.47798  -0.47669  -0.47590  -0.47472
 Alpha  occ. eigenvalues --   -0.47370  -0.47150  -0.47049  -0.46897  -0.46743
 Alpha  occ. eigenvalues --   -0.46452  -0.46022  -0.45792  -0.45609  -0.45381
 Alpha  occ. eigenvalues --   -0.45218  -0.44976  -0.44568  -0.44412  -0.44099
 Alpha  occ. eigenvalues --   -0.44093  -0.43358  -0.42704  -0.42626  -0.42027
 Alpha  occ. eigenvalues --   -0.41896  -0.41597  -0.40621  -0.39309  -0.38710
 Alpha  occ. eigenvalues --   -0.37693  -0.37155  -0.35291  -0.35163  -0.34534
 Alpha  occ. eigenvalues --   -0.33434  -0.33296  -0.32896  -0.32473  -0.26472
 Alpha  occ. eigenvalues --   -0.21951
 Alpha virt. eigenvalues --   -0.08916  -0.01769  -0.00726   0.00789   0.01012
 Alpha virt. eigenvalues --    0.01066   0.02980   0.03619   0.04939   0.05018
 Alpha virt. eigenvalues --    0.06246   0.06859   0.07412   0.07956   0.08090

 Mulliken charges:
               1
     1  Mg   0.443380
     2  C   -0.063956
     3  C   -0.097636
     4  C   -0.061200
     5  C   -0.054578
     6  N   -0.314696
     7  C    0.125311
     8  C    0.017354
     9  C    0.005449
    10  C    0.126157
    11  C   -0.055039
    12  C   -0.025617
    13  C    0.012246
    14  C    0.451257
    15  O   -0.509116
    16  O   -0.285280
    17  N   -0.271609
    18  C    0.093409
    19  C   -0.011874
    20  C   -0.052865
    21  C    0.126381
    22  C   -0.044496
    23  C    0.327122
    24  O   -0.540207
    25  C   -0.030567
    26  N   -0.268204
    27  C    0.122604
    28  C    0.004657
    29  C   -0.007762
    30  C    0.128766
    31  C   -0.050733
    32  C   -0.035978
    33  C   -0.048684
    34  N   -0.330067
    35  C    0.102168
    36  C    0.051236
    37  C   -0.053432
    38  C    0.143410
    39  C   -0.049883
    40  C    0.343191
    41  O   -0.534201
    42  C    0.060961
    43  C    0.501852
    44  O   -0.537890
    45  O   -0.261984
    46  C    0.078333
    47  C    0.098120
    48  C   -0.087175
    49  C    0.013244
    50  C   -0.052824
    51  C   -0.017034
    52  C   -0.034178
    53  C   -0.049762
    54  C   -0.005073
    55  C   -0.050952
    56  C   -0.033722
    57  C   -0.044669
    58  C   -0.027023
    59  C   -0.007822
    60  C   -0.061013
    61  C   -0.039295
    62  C   -0.030312
    63  C   -0.035064
    64  C   -0.005312
    65  C   -0.052723
    66  C   -0.058851
    67  H    0.021780
    68  H    0.043887
    69  H    0.028772
    70  H    0.032634
    71  H    0.036958
    72  H    0.015693
    73  H    0.022666
    74  H    0.026852
    75  H    0.033699
    76  H    0.042385
    77  H    0.043346
    78  H    0.047888
    79  H    0.023546
    80  H    0.034693
    81  H    0.037606
    82  H    0.027014
    83  H    0.035034
    84  H    0.036600
    85  H    0.039602
    86  H    0.029058
    87  H    0.018202
    88  H    0.036321
    89  H    0.018789
    90  H    0.030806
    91  H    0.009646
    92  H    0.036646
    93  H    0.017192
    94  H    0.018988
    95  H    0.027562
    96  H    0.048533
    97  H    0.027415
    98  H    0.055570
    99  H    0.038966
   100  H    0.031558
   101  H    0.049112
   102  H    0.045902
   103  H    0.059703
   104  H    0.026208
   105  H    0.030838
   106  H    0.015572
   107  H    0.022054
   108  H    0.008601
   109  H    0.027039
   110  H    0.023437
   111  H    0.019418
   112  H    0.016295
   113  H    0.026451
   114  H    0.032526
   115  H    0.023376
   116  H    0.016358
   117  H    0.002842
   118  H    0.021148
   119  H    0.013523
   120  H    0.023644
   121  H    0.002173
   122  H    0.025065
   123  H    0.015615
   124  H    0.027750
   125  H    0.005453
   126  H    0.017804
   127  H    0.016140
   128  H    0.027125
   129  H    0.013866
   130  H    0.013949
   131  H    0.014591
   132  H    0.018596
   133  H    0.009902
   134  H    0.016056
   135  H    0.017289
   136  H    0.021756
   137  H    0.016131
   138  H    0.015246
   139  H    0.027918
   140  H    0.011380
 Sum of Mulliken charges =   0.00000

 Dipole moment (field-independent basis, Debye):
    X=             -3.3078    Y=              5.0643    Z=             -0.7824  Tot=              6.0992
 N-N= 4.223369847517D+03 E-N= 0.000000000000D+00  KE=-9.121050920826D+03
 Leave Link  601 at Wed May  4 09:43:20 2022, MaxMem=  6710886400 cpu:               0.8 elap:               0.0
 (Enter /sw/apps/gaussian-16.0/g16/l9999.exe)
 1\1\GINC-BP1-COMPUTE069\SP\RZINDO CIS\STO-3G\C55H74Mg1N4O6\OF15641\04-
 May-2022\0\\#p ZINDO=(nstates=5)\\step_1551_chromophore_1 ZINDO\\0,1\M
 g,0,-1.428,17.487,26.264\C,0,-1.813,15.045,29.022\C,0,-2.378,19.833,28
 .512\C,0,-1.687,19.411,23.638\C,0,-1.227,14.633,24.179\N,0,-2.081,17.3
 82,28.548\C,0,-2.085,16.358,29.491\C,0,-2.296,16.95,30.936\C,0,-2.534,
 18.464,30.657\C,0,-2.377,18.584,29.144\C,0,-3.967,18.973,31.106\C,0,-1
 .2,16.607,32.005\C,0,-1.031,17.526,33.21\C,0,-0.987,16.803,34.607\O,0,

 Normal termination of Gaussian 16 at Wed May  4 09:43:20 2022.
