 Gaussian 16, Revision A.03,
 Gaussian 16:  ES64L-G16RevA.03 25-Dec-2016

 ------------------------------
 #p blyp/Def2SVP td=(nstates=5)
 ------------------------------

 --------------------------------------------------
 step_701_chromophore_14 TDDFT with blyp functional
 --------------------------------------------------
 Symbolic Z-matrix:
 Charge =  0 Multiplicity = 1

                         Standard orientation:
 ---------------------------------------------------------------------
 Center     Atomic      Atomic             Coordinates (Angstroms)
 Number     Number       Type             X           Y           Z
 ---------------------------------------------------------------------
      1         12           0        5.279221    0.896503    0.042178
      2          6           0        4.737373   -2.549896    0.496606
      3          6           0        4.043157    0.483124   -3.275977
      4          6           0        4.842492    4.190813   -0.321527
      5          6           0        5.642075    1.194096    3.512942
      6          7           0        4.408753   -0.784228   -1.168717
      7          6           0        4.364655   -2.114819   -0.757410
      8          6           0        3.957791   -3.001223   -1.899485
      9          6           0        3.803054   -2.079250   -3.107526
     10          6           0        4.132158   -0.703872   -2.510956
     11          6           0        4.622766   -2.467136   -4.351983
     12          6           0        2.724003   -3.952686   -1.708972
     13          6           0        1.580450   -3.183966   -1.042489
     14          6           0        0.148928   -3.527939   -1.504262
     15          8           0       -0.217467   -4.437687   -2.222064
     16          8           0       -0.662815   -2.580643   -0.960519
     17          7           0        4.823608    2.204058   -1.617219
     18          6           0        4.387044    1.829589   -2.906005
     19          6           0        4.136708    3.034922   -3.715789
     20          6           0        4.470900    4.168047   -2.852414
     21          6           0        4.832413    3.540048   -1.549627
     22          6           0        3.647229    3.083216   -5.073317
     23          6           0        4.501296    5.601286   -3.277531
     24          8           0        4.244689    5.970633   -4.427712
     25          6           0        5.008064    6.725125   -2.425657
     26          7           0        5.152413    2.464300    1.476262
     27          6           0        4.943948    3.750219    1.039695
     28          6           0        4.771428    4.752455    2.209469
     29          6           0        5.102433    3.741750    3.405040
     30          6           0        5.268303    2.383261    2.784455
     31          6           0        5.787174    5.975277    1.905349
     32          6           0        4.143550    3.757983    4.659824
     33          6           0        4.709257    3.675460    6.153405
     34          7           0        5.263812   -0.418393    1.684298
     35          6           0        5.574976   -0.176972    2.983379
     36          6           0        5.820200   -1.366490    3.705074
     37          6           0        5.460785   -2.437096    2.750902
     38          6           0        5.048665   -1.712151    1.568288
     39          6           0        6.247752   -1.431773    5.145267
     40          6           0        5.303971   -3.867054    2.475664
     41          8           0        5.389250   -4.825412    3.211953
     42          6           0        4.825604   -3.964881    1.045418
     43          6           0        5.786695   -4.812514    0.276185
     44          8           0        5.546574   -5.909305   -0.277667
     45          8           0        7.054200   -4.230532    0.315622
     46          6           0        8.133516   -5.042192   -0.328960
     47          6           0       -2.052868   -2.652527   -1.398394
     48          6           0       -2.697781   -1.374399   -0.970134
     49          6           0       -3.515253   -0.569568   -1.598290
     50          6           0       -4.158161   -0.891642   -2.965888
     51          6           0       -4.097884    0.633185   -0.957252
     52          6           0       -5.173713    0.427802    0.205001
     53          6           0       -6.483122    1.149942    0.006559
     54          6           0       -7.680759    0.336857    0.724714
     55          6           0       -7.392636   -0.341365    2.087405
     56          6           0       -8.233719   -0.731829   -0.325544
     57          6           0       -9.730591   -0.432222   -0.703873
     58          6           0      -10.650816   -1.304594    0.193147
     59          6           0      -11.951757   -0.681161    0.810327
     60          6           0      -12.083900   -1.198897    2.199523
     61          6           0      -13.251057   -0.911440   -0.074992
     62          6           0      -14.072799    0.398907   -0.355471
     63          6           0      -15.578316    0.264686   -0.118094
     64          6           0      -16.020480    1.408221    0.978451
     65          6           0      -17.321961    1.009938    1.624284
     66          6           0      -15.841115    2.813182    0.339020
     67          1           0        3.550510    0.305695   -4.234134
     68          1           0        4.490679    5.223851   -0.335984
     69          1           0        5.925037    1.353223    4.555633
     70          1           0        4.791485   -3.673515   -2.100019
     71          1           0        2.787396   -1.954221   -3.484961
     72          1           0        3.836732   -2.716657   -5.065322
     73          1           0        5.193710   -3.381843   -4.194682
     74          1           0        5.281071   -1.672802   -4.704159
     75          1           0        3.103441   -4.777161   -1.106190
     76          1           0        2.429894   -4.220389   -2.724239
     77          1           0        1.709088   -2.114750   -1.210201
     78          1           0        1.902576   -3.437995   -0.032180
     79          1           0        4.405605    2.912085   -5.837061
     80          1           0        3.266853    4.045634   -5.415246
     81          1           0        2.921520    2.275332   -5.170680
     82          1           0        5.884172    6.486309   -1.821500
     83          1           0        4.309071    6.915531   -1.611314
     84          1           0        5.306016    7.594636   -3.010969
     85          1           0        3.761323    5.160612    2.225900
     86          1           0        6.012024    4.198901    3.794322
     87          1           0        5.267029    6.926559    1.789264
     88          1           0        6.414801    5.791950    1.034413
     89          1           0        6.590458    6.130830    2.625859
     90          1           0        3.619570    2.803380    4.651055
     91          1           0        3.385394    4.517727    4.468311
     92          1           0        3.970548    4.218015    6.742664
     93          1           0        5.635424    4.243941    6.240721
     94          1           0        4.917769    2.655075    6.475331
     95          1           0        6.315099   -2.508961    5.294315
     96          1           0        5.502994   -1.073827    5.856257
     97          1           0        7.196865   -0.895376    5.146571
     98          1           0        3.886637   -4.502739    1.174743
     99          1           0        8.288079   -6.056017    0.041094
    100          1           0        9.089199   -4.518091   -0.365822
    101          1           0        7.779234   -5.255786   -1.337875
    102          1           0       -2.578454   -3.492200   -0.943000
    103          1           0       -2.145866   -2.789730   -2.476600
    104          1           0       -2.212425   -0.970117   -0.082303
    105          1           0       -3.858541   -1.891221   -3.282595
    106          1           0       -3.772470   -0.084826   -3.588685
    107          1           0       -5.246461   -0.942915   -2.957134
    108          1           0       -4.525393    1.252660   -1.745260
    109          1           0       -3.265401    1.148224   -0.477768
    110          1           0       -4.671241    0.775919    1.107478
    111          1           0       -5.261671   -0.658505    0.186853
    112          1           0       -6.511835    1.125001   -1.083331
    113          1           0       -6.496525    2.146167    0.448316
    114          1           0       -8.413825    1.105127    0.974350
    115          1           0       -7.402194   -1.430915    2.069256
    116          1           0       -8.159675    0.108302    2.717824
    117          1           0       -6.414276   -0.113569    2.511528
    118          1           0       -8.167205   -1.702480    0.167464
    119          1           0       -7.582527   -0.846232   -1.191989
    120          1           0       -9.875007   -0.770906   -1.730740
    121          1           0      -10.104327    0.587590   -0.611178
    122          1           0      -10.011938   -1.717345    0.974239
    123          1           0      -11.008212   -2.117664   -0.439254
    124          1           0      -11.740137    0.387577    0.850496
    125          1           0      -11.367824   -0.765743    2.897444
    126          1           0      -11.841699   -2.260780    2.212892
    127          1           0      -13.055797   -1.053247    2.672184
    128          1           0      -13.809856   -1.764939    0.309941
    129          1           0      -12.908425   -1.190203   -1.071145
    130          1           0      -13.942112    0.730467   -1.386065
    131          1           0      -13.723032    1.202382    0.292542
    132          1           0      -15.755976   -0.779958    0.138383
    133          1           0      -16.214293    0.417884   -0.990227
    134          1           0      -15.187434    1.342737    1.678346
    135          1           0      -17.807087    0.265344    0.993268
    136          1           0      -17.934138    1.900892    1.769347
    137          1           0      -17.074325    0.544940    2.578063
    138          1           0      -15.109463    3.324764    0.965545
    139          1           0      -16.804807    3.316874    0.415068
    140          1           0      -15.624371    2.659821   -0.718311
 ---------------------------------------------------------------------

 SCF Done:  E(RB-LYP) =  -3007.34536869     A.U. after   22 cycles

 Excitation energies and oscillator strengths:

 Excited State   1:      Singlet-A      1.7235 eV  719.39 nm  f=0.0071  <S**2>=0.000
     244 -> 247        0.68357
     245 -> 247       -0.14311
     246 -> 247       -0.10348
 This state for optimization and/or second-order correction.
 Total Energy, E(TD-HF/TD-DFT) =  -3007.28203275
 Copying the excited state density for this state as the 1-particle RhoCI density.

 Excited State   2:      Singlet-A      1.7639 eV  702.91 nm  f=0.2711  <S**2>=0.000
     244 -> 247        0.10670
     245 -> 248       -0.18778
     246 -> 247        0.67415
     246 <- 247       -0.14628

 Excited State   3:      Singlet-A      1.9005 eV  652.36 nm  f=0.0106  <S**2>=0.000
     243 -> 247        0.69479

 Excited State   4:      Singlet-A      1.9857 eV  624.40 nm  f=0.0763  <S**2>=0.000
     244 -> 247        0.13738
     245 -> 247        0.62553
     246 -> 248        0.25200

 Excited State   5:      Singlet-A      2.3254 eV  533.17 nm  f=0.0000  <S**2>=0.000
     241 -> 247        0.70185

 The electronic state is 1-A.
 Alpha  occ. eigenvalues --  -46.28865 -18.82941 -18.82264 -18.77524 -18.77268
 Alpha  occ. eigenvalues --  -18.75648 -18.75115 -14.04036 -14.03883 -14.02085
 Alpha  occ. eigenvalues --  -14.01021 -10.04854 -10.04274  -9.99800  -9.99600
 Alpha  occ. eigenvalues --   -9.98215  -9.97707  -9.97585  -9.97258  -9.97012
 Alpha  occ. eigenvalues --   -9.96822  -9.96699  -9.96543  -9.95705  -9.95673
 Alpha  occ. eigenvalues --   -9.94609  -9.94590  -9.94536  -9.94422  -9.94006
 Alpha  occ. eigenvalues --   -9.93899  -9.93828  -9.93739  -9.93687  -9.93467
 Alpha  occ. eigenvalues --   -9.93382  -9.93364  -9.93345  -9.93238  -9.93144
 Alpha  occ. eigenvalues --   -9.93040  -9.92607  -9.92509  -9.92481  -9.92412
 Alpha  occ. eigenvalues --   -9.92311  -9.92267  -9.91795  -9.91726  -9.91722
 Alpha  occ. eigenvalues --   -9.91611  -9.91578  -9.91520  -9.91502  -9.91494
 Alpha  occ. eigenvalues --   -9.91477  -9.91254  -9.91203  -9.90974  -9.90956
 Alpha  occ. eigenvalues --   -9.90917  -9.90858  -9.90705  -9.90544  -9.90477
 Alpha  occ. eigenvalues --   -9.90409  -2.93321  -1.73726  -1.73199  -1.73046
 Alpha  occ. eigenvalues --   -0.98461  -0.96900  -0.92011  -0.90945  -0.90512
 Alpha  occ. eigenvalues --   -0.88951  -0.87697  -0.86957  -0.85835  -0.85173
 Alpha  occ. eigenvalues --   -0.76473  -0.73908  -0.73191  -0.72491  -0.72394
 Alpha  occ. eigenvalues --   -0.71750  -0.71517  -0.70999  -0.70595  -0.70546
 Alpha  occ. eigenvalues --   -0.69973  -0.69189  -0.68103  -0.67413  -0.67143
 Alpha  occ. eigenvalues --   -0.66306  -0.65842  -0.65373  -0.64877  -0.64842
 Alpha  occ. eigenvalues --   -0.64151  -0.62787  -0.62251  -0.62009  -0.61574
 Alpha  occ. eigenvalues --   -0.60720  -0.60516  -0.60420  -0.59152  -0.58645
 Alpha  occ. eigenvalues --   -0.58229  -0.57824  -0.57470  -0.55598  -0.55188
 Alpha  occ. eigenvalues --   -0.54201  -0.53488  -0.52996  -0.52169  -0.52085
 Alpha  occ. eigenvalues --   -0.51433  -0.51211  -0.50910  -0.50855  -0.50034
 Alpha  occ. eigenvalues --   -0.49721  -0.49414  -0.48515  -0.48166  -0.46932
 Alpha  occ. eigenvalues --   -0.46630  -0.46468  -0.46140  -0.44862  -0.44702
 Alpha  occ. eigenvalues --   -0.44098  -0.43569  -0.43456  -0.43343  -0.42500
 Alpha  occ. eigenvalues --   -0.42455  -0.41868  -0.41720  -0.41498  -0.41252
 Alpha  occ. eigenvalues --   -0.41135  -0.40492  -0.40383  -0.40243  -0.40003
 Alpha  occ. eigenvalues --   -0.39845  -0.39689  -0.39599  -0.39529  -0.39317
 Alpha  occ. eigenvalues --   -0.38929  -0.38759  -0.38586  -0.38398  -0.38279
 Alpha  occ. eigenvalues --   -0.38177  -0.38018  -0.37941  -0.37680  -0.37493
 Alpha  occ. eigenvalues --   -0.37227  -0.37047  -0.36953  -0.36891  -0.36766
 Alpha  occ. eigenvalues --   -0.36267  -0.35931  -0.35834  -0.35708  -0.35573
 Alpha  occ. eigenvalues --   -0.35444  -0.35287  -0.35234  -0.35064  -0.34923
 Alpha  occ. eigenvalues --   -0.34853  -0.34809  -0.34609  -0.34315  -0.34176
 Alpha  occ. eigenvalues --   -0.34063  -0.33681  -0.33598  -0.33535  -0.33352
 Alpha  occ. eigenvalues --   -0.33273  -0.32892  -0.32857  -0.32554  -0.32267
 Alpha  occ. eigenvalues --   -0.32115  -0.32013  -0.31940  -0.31740  -0.31571
 Alpha  occ. eigenvalues --   -0.31495  -0.31365  -0.31218  -0.30960  -0.30716
 Alpha  occ. eigenvalues --   -0.30561  -0.30341  -0.30280  -0.29983  -0.29702
 Alpha  occ. eigenvalues --   -0.29669  -0.29554  -0.29366  -0.28980  -0.28944
 Alpha  occ. eigenvalues --   -0.28866  -0.28713  -0.28294  -0.27969  -0.27683
 Alpha  occ. eigenvalues --   -0.27620  -0.27180  -0.26778  -0.26771  -0.26461
 Alpha  occ. eigenvalues --   -0.26435  -0.26159  -0.26001  -0.25946  -0.25608
 Alpha  occ. eigenvalues --   -0.25397  -0.25075  -0.24200  -0.23834  -0.23648
 Alpha  occ. eigenvalues --   -0.23219  -0.22471  -0.22387  -0.21806  -0.20633
 Alpha  occ. eigenvalues --   -0.20615  -0.20417  -0.18933  -0.18343  -0.17668
 Alpha  occ. eigenvalues --   -0.16240
 Alpha virt. eigenvalues --   -0.12069  -0.07714  -0.06592  -0.04916  -0.04332
 Alpha virt. eigenvalues --   -0.03690  -0.02792  -0.02038  -0.01244  -0.00396
 Alpha virt. eigenvalues --    0.00606   0.01096   0.02009   0.02310   0.02571

 Mulliken charges:
               1
     1  Mg   0.708733
     2  C    0.020222
     3  C   -0.063018
     4  C   -0.021082
     5  C   -0.078777
     6  N   -0.217938
     7  C   -0.078384
     8  C    0.021190
     9  C   -0.023176
    10  C   -0.001911
    11  C    0.136352
    12  C    0.112679
    13  C    0.050893
    14  C    0.121133
    15  O   -0.176297
    16  O   -0.262874
    17  N   -0.273144
    18  C    0.138840
    19  C   -0.118886
    20  C    0.036142
    21  C    0.140387
    22  C    0.172453
    23  C   -0.070630
    24  O   -0.183975
    25  C    0.120008
    26  N   -0.205868
    27  C   -0.047737
    28  C   -0.007321
    29  C    0.063425
    30  C    0.042373
    31  C    0.096599
    32  C    0.047642
    33  C    0.056616
    34  N   -0.214422
    35  C    0.108332
    36  C   -0.208188
    37  C    0.044008
    38  C    0.042396
    39  C    0.174887
    40  C   -0.086500
    41  O   -0.112598
    42  C    0.113670
    43  C    0.127264
    44  O   -0.195985
    45  O   -0.295541
    46  C    0.229835
    47  C    0.327000
    48  C   -0.098791
    49  C   -0.157793
    50  C    0.122092
    51  C    0.135457
    52  C    0.054929
    53  C    0.112750
    54  C   -0.081026
    55  C    0.104952
    56  C    0.091797
    57  C    0.097773
    58  C    0.048786
    59  C   -0.060423
    60  C    0.106319
    61  C    0.128941
    62  C    0.058523
    63  C    0.044794
    64  C   -0.174215
    65  C    0.161463
    66  C    0.134192
    67  H   -0.055839
    68  H   -0.069197
    69  H   -0.060275
    70  H   -0.017022
    71  H   -0.015954
    72  H   -0.010096
    73  H   -0.007637
    74  H    0.001047
    75  H    0.004101
    76  H   -0.017674
    77  H    0.015952
    78  H    0.013416
    79  H   -0.001786
    80  H    0.005161
    81  H   -0.008510
    82  H   -0.014915
    83  H    0.009901
    84  H    0.002558
    85  H   -0.003682
    86  H   -0.024720
    87  H    0.000406
    88  H   -0.000662
    89  H   -0.017033
    90  H   -0.016762
    91  H   -0.023041
    92  H    0.000916
    93  H   -0.012974
    94  H    0.016503
    95  H    0.010335
    96  H    0.009182
    97  H    0.009852
    98  H    0.003603
    99  H    0.019468
   100  H    0.020827
   101  H    0.002400
   102  H    0.000284
   103  H   -0.004182
   104  H   -0.040502
   105  H   -0.022490
   106  H    0.010528
   107  H    0.006377
   108  H   -0.043412
   109  H   -0.030990
   110  H   -0.021781
   111  H   -0.025216
   112  H   -0.025144
   113  H   -0.029341
   114  H   -0.034411
   115  H   -0.007881
   116  H   -0.008376
   117  H   -0.021232
   118  H   -0.035131
   119  H   -0.035183
   120  H   -0.040318
   121  H   -0.022880
   122  H   -0.030473
   123  H   -0.035142
   124  H   -0.043595
   125  H   -0.023315
   126  H   -0.020076
   127  H   -0.022902
   128  H   -0.026900
   129  H   -0.040618
   130  H   -0.029709
   131  H   -0.018348
   132  H   -0.036682
   133  H   -0.033475
   134  H   -0.031715
   135  H   -0.011068
   136  H   -0.023977
   137  H   -0.014443
   138  H   -0.002287
   139  H   -0.026380
   140  H   -0.004810
 Sum of Mulliken charges =  -0.00000

 Dipole moment (field-independent basis, Debye):
    X=              1.1798    Y=              5.2691    Z=              1.6002  Tot=              5.6317
 Quadrupole moment (field-independent basis, Debye-Ang):
   XX=           -369.9221   YY=           -448.2746   ZZ=           -410.7831
   XY=             15.0315   XZ=              4.0112   YZ=             39.4871

 Normal termination of Gaussian 16 at Thu May  5 06:43:28 2022.
