 Gaussian 16, Revision A.03,
 Gaussian 16:  ES64L-G16RevA.03 25-Dec-2016

 -----------------------------------
 #p cam-b3lyp/Def2SVP td=(nstates=5)
 -----------------------------------

 -------------------------------------------------------
 step_701_chromophore_14 TDDFT with cam-b3lyp functional
 -------------------------------------------------------
 Symbolic Z-matrix:
 Charge =  0 Multiplicity = 1

                         Standard orientation:
 ---------------------------------------------------------------------
 Center     Atomic      Atomic             Coordinates (Angstroms)
 Number     Number       Type             X           Y           Z
 ---------------------------------------------------------------------
      1         12           0        5.279221    0.896503    0.042178
      2          6           0        4.737373   -2.549896    0.496606
      3          6           0        4.043157    0.483124   -3.275977
      4          6           0        4.842492    4.190813   -0.321527
      5          6           0        5.642075    1.194096    3.512942
      6          7           0        4.408753   -0.784228   -1.168717
      7          6           0        4.364655   -2.114819   -0.757410
      8          6           0        3.957791   -3.001223   -1.899485
      9          6           0        3.803054   -2.079250   -3.107526
     10          6           0        4.132158   -0.703872   -2.510956
     11          6           0        4.622766   -2.467136   -4.351983
     12          6           0        2.724003   -3.952686   -1.708972
     13          6           0        1.580450   -3.183966   -1.042489
     14          6           0        0.148928   -3.527939   -1.504262
     15          8           0       -0.217467   -4.437687   -2.222064
     16          8           0       -0.662815   -2.580643   -0.960519
     17          7           0        4.823608    2.204058   -1.617219
     18          6           0        4.387044    1.829589   -2.906005
     19          6           0        4.136708    3.034922   -3.715789
     20          6           0        4.470900    4.168047   -2.852414
     21          6           0        4.832413    3.540048   -1.549627
     22          6           0        3.647229    3.083216   -5.073317
     23          6           0        4.501296    5.601286   -3.277531
     24          8           0        4.244689    5.970633   -4.427712
     25          6           0        5.008064    6.725125   -2.425657
     26          7           0        5.152413    2.464300    1.476262
     27          6           0        4.943948    3.750219    1.039695
     28          6           0        4.771428    4.752455    2.209469
     29          6           0        5.102433    3.741750    3.405040
     30          6           0        5.268303    2.383261    2.784455
     31          6           0        5.787174    5.975277    1.905349
     32          6           0        4.143550    3.757983    4.659824
     33          6           0        4.709257    3.675460    6.153405
     34          7           0        5.263812   -0.418393    1.684298
     35          6           0        5.574976   -0.176972    2.983379
     36          6           0        5.820200   -1.366490    3.705074
     37          6           0        5.460785   -2.437096    2.750902
     38          6           0        5.048665   -1.712151    1.568288
     39          6           0        6.247752   -1.431773    5.145267
     40          6           0        5.303971   -3.867054    2.475664
     41          8           0        5.389250   -4.825412    3.211953
     42          6           0        4.825604   -3.964881    1.045418
     43          6           0        5.786695   -4.812514    0.276185
     44          8           0        5.546574   -5.909305   -0.277667
     45          8           0        7.054200   -4.230532    0.315622
     46          6           0        8.133516   -5.042192   -0.328960
     47          6           0       -2.052868   -2.652527   -1.398394
     48          6           0       -2.697781   -1.374399   -0.970134
     49          6           0       -3.515253   -0.569568   -1.598290
     50          6           0       -4.158161   -0.891642   -2.965888
     51          6           0       -4.097884    0.633185   -0.957252
     52          6           0       -5.173713    0.427802    0.205001
     53          6           0       -6.483122    1.149942    0.006559
     54          6           0       -7.680759    0.336857    0.724714
     55          6           0       -7.392636   -0.341365    2.087405
     56          6           0       -8.233719   -0.731829   -0.325544
     57          6           0       -9.730591   -0.432222   -0.703873
     58          6           0      -10.650816   -1.304594    0.193147
     59          6           0      -11.951757   -0.681161    0.810327
     60          6           0      -12.083900   -1.198897    2.199523
     61          6           0      -13.251057   -0.911440   -0.074992
     62          6           0      -14.072799    0.398907   -0.355471
     63          6           0      -15.578316    0.264686   -0.118094
     64          6           0      -16.020480    1.408221    0.978451
     65          6           0      -17.321961    1.009938    1.624284
     66          6           0      -15.841115    2.813182    0.339020
     67          1           0        3.550510    0.305695   -4.234134
     68          1           0        4.490679    5.223851   -0.335984
     69          1           0        5.925037    1.353223    4.555633
     70          1           0        4.791485   -3.673515   -2.100019
     71          1           0        2.787396   -1.954221   -3.484961
     72          1           0        3.836732   -2.716657   -5.065322
     73          1           0        5.193710   -3.381843   -4.194682
     74          1           0        5.281071   -1.672802   -4.704159
     75          1           0        3.103441   -4.777161   -1.106190
     76          1           0        2.429894   -4.220389   -2.724239
     77          1           0        1.709088   -2.114750   -1.210201
     78          1           0        1.902576   -3.437995   -0.032180
     79          1           0        4.405605    2.912085   -5.837061
     80          1           0        3.266853    4.045634   -5.415246
     81          1           0        2.921520    2.275332   -5.170680
     82          1           0        5.884172    6.486309   -1.821500
     83          1           0        4.309071    6.915531   -1.611314
     84          1           0        5.306016    7.594636   -3.010969
     85          1           0        3.761323    5.160612    2.225900
     86          1           0        6.012024    4.198901    3.794322
     87          1           0        5.267029    6.926559    1.789264
     88          1           0        6.414801    5.791950    1.034413
     89          1           0        6.590458    6.130830    2.625859
     90          1           0        3.619570    2.803380    4.651055
     91          1           0        3.385394    4.517727    4.468311
     92          1           0        3.970548    4.218015    6.742664
     93          1           0        5.635424    4.243941    6.240721
     94          1           0        4.917769    2.655075    6.475331
     95          1           0        6.315099   -2.508961    5.294315
     96          1           0        5.502994   -1.073827    5.856257
     97          1           0        7.196865   -0.895376    5.146571
     98          1           0        3.886637   -4.502739    1.174743
     99          1           0        8.288079   -6.056017    0.041094
    100          1           0        9.089199   -4.518091   -0.365822
    101          1           0        7.779234   -5.255786   -1.337875
    102          1           0       -2.578454   -3.492200   -0.943000
    103          1           0       -2.145866   -2.789730   -2.476600
    104          1           0       -2.212425   -0.970117   -0.082303
    105          1           0       -3.858541   -1.891221   -3.282595
    106          1           0       -3.772470   -0.084826   -3.588685
    107          1           0       -5.246461   -0.942915   -2.957134
    108          1           0       -4.525393    1.252660   -1.745260
    109          1           0       -3.265401    1.148224   -0.477768
    110          1           0       -4.671241    0.775919    1.107478
    111          1           0       -5.261671   -0.658505    0.186853
    112          1           0       -6.511835    1.125001   -1.083331
    113          1           0       -6.496525    2.146167    0.448316
    114          1           0       -8.413825    1.105127    0.974350
    115          1           0       -7.402194   -1.430915    2.069256
    116          1           0       -8.159675    0.108302    2.717824
    117          1           0       -6.414276   -0.113569    2.511528
    118          1           0       -8.167205   -1.702480    0.167464
    119          1           0       -7.582527   -0.846232   -1.191989
    120          1           0       -9.875007   -0.770906   -1.730740
    121          1           0      -10.104327    0.587590   -0.611178
    122          1           0      -10.011938   -1.717345    0.974239
    123          1           0      -11.008212   -2.117664   -0.439254
    124          1           0      -11.740137    0.387577    0.850496
    125          1           0      -11.367824   -0.765743    2.897444
    126          1           0      -11.841699   -2.260780    2.212892
    127          1           0      -13.055797   -1.053247    2.672184
    128          1           0      -13.809856   -1.764939    0.309941
    129          1           0      -12.908425   -1.190203   -1.071145
    130          1           0      -13.942112    0.730467   -1.386065
    131          1           0      -13.723032    1.202382    0.292542
    132          1           0      -15.755976   -0.779958    0.138383
    133          1           0      -16.214293    0.417884   -0.990227
    134          1           0      -15.187434    1.342737    1.678346
    135          1           0      -17.807087    0.265344    0.993268
    136          1           0      -17.934138    1.900892    1.769347
    137          1           0      -17.074325    0.544940    2.578063
    138          1           0      -15.109463    3.324764    0.965545
    139          1           0      -16.804807    3.316874    0.415068
    140          1           0      -15.624371    2.659821   -0.718311
 ---------------------------------------------------------------------

 SCF Done:  E(RCAM-B3LYP) =  -3007.13107640     A.U. after   19 cycles

 Excitation energies and oscillator strengths:

 Excited State   1:      Singlet-A      1.6808 eV  737.66 nm  f=0.3691  <S**2>=0.000
     245 -> 248       -0.17944
     246 -> 247        0.68484
     245 <- 248       -0.10545
 This state for optimization and/or second-order correction.
 Total Energy, E(TD-HF/TD-DFT) =  -3007.06930874
 Copying the excited state density for this state as the 1-particle RhoCI density.

 Excited State   2:      Singlet-A      2.1952 eV  564.81 nm  f=0.1066  <S**2>=0.000
     245 -> 247        0.63304
     246 -> 248        0.29642

 Excited State   3:      Singlet-A      3.2671 eV  379.50 nm  f=0.0039  <S**2>=0.000
     243 -> 247       -0.28411
     244 -> 247        0.62661

 Excited State   4:      Singlet-A      3.3371 eV  371.53 nm  f=0.0411  <S**2>=0.000
     243 -> 247        0.55299
     244 -> 247        0.25068
     246 -> 248       -0.30895

 Excited State   5:      Singlet-A      3.4003 eV  364.63 nm  f=0.0879  <S**2>=0.000
     239 -> 247        0.22350
     239 -> 249       -0.12600
     240 -> 247        0.36107
     240 -> 248       -0.12680
     240 -> 249       -0.18548
     240 -> 251       -0.13150
     241 -> 247       -0.26569
     241 -> 249        0.15313
     245 -> 247       -0.10977
     246 -> 248        0.24152

 The electronic state is 1-A.
 Alpha  occ. eigenvalues --  -46.90562 -19.25778 -19.25106 -19.20587 -19.20222
 Alpha  occ. eigenvalues --  -19.18628 -19.18564 -14.42933 -14.42866 -14.40799
 Alpha  occ. eigenvalues --  -14.39261 -10.40351 -10.39524 -10.35229 -10.34684
 Alpha  occ. eigenvalues --  -10.32400 -10.32152 -10.31821 -10.31722 -10.31700
 Alpha  occ. eigenvalues --  -10.31473 -10.31362 -10.31073 -10.29812 -10.29724
 Alpha  occ. eigenvalues --  -10.29578 -10.28654 -10.28643 -10.28440 -10.28129
 Alpha  occ. eigenvalues --  -10.28084 -10.28027 -10.28026 -10.27922 -10.27889
 Alpha  occ. eigenvalues --  -10.27476 -10.27436 -10.27269 -10.27098 -10.27065
 Alpha  occ. eigenvalues --  -10.26693 -10.26378 -10.26331 -10.26303 -10.26192
 Alpha  occ. eigenvalues --  -10.26102 -10.26009 -10.25989 -10.25731 -10.25602
 Alpha  occ. eigenvalues --  -10.25376 -10.25296 -10.25194 -10.25183 -10.25161
 Alpha  occ. eigenvalues --  -10.25159 -10.24911 -10.24895 -10.24822 -10.24554
 Alpha  occ. eigenvalues --  -10.24553 -10.24534 -10.24422 -10.24144 -10.24101
 Alpha  occ. eigenvalues --  -10.23960  -3.18907  -1.93792  -1.93352  -1.93211
 Alpha  occ. eigenvalues --   -1.16902  -1.15285  -1.10252  -1.09565  -1.08366
 Alpha  occ. eigenvalues --   -1.06765  -1.05405  -1.04472  -1.03633  -1.02882
 Alpha  occ. eigenvalues --   -0.93545  -0.90809  -0.90006  -0.89319  -0.89269
 Alpha  occ. eigenvalues --   -0.88344  -0.88185  -0.87608  -0.87336  -0.87134
 Alpha  occ. eigenvalues --   -0.86433  -0.85603  -0.84380  -0.83599  -0.83238
 Alpha  occ. eigenvalues --   -0.82336  -0.82071  -0.81335  -0.80758  -0.80627
 Alpha  occ. eigenvalues --   -0.79912  -0.78412  -0.77870  -0.77771  -0.76965
 Alpha  occ. eigenvalues --   -0.76090  -0.75913  -0.75753  -0.74412  -0.73791
 Alpha  occ. eigenvalues --   -0.73320  -0.72834  -0.72464  -0.70476  -0.69765
 Alpha  occ. eigenvalues --   -0.68800  -0.68009  -0.67597  -0.66544  -0.66144
 Alpha  occ. eigenvalues --   -0.65499  -0.65330  -0.65166  -0.64869  -0.63692
 Alpha  occ. eigenvalues --   -0.63582  -0.63429  -0.62400  -0.61972  -0.60699
 Alpha  occ. eigenvalues --   -0.60250  -0.60054  -0.59586  -0.58237  -0.58210
 Alpha  occ. eigenvalues --   -0.57468  -0.56928  -0.56755  -0.56625  -0.55652
 Alpha  occ. eigenvalues --   -0.55447  -0.54847  -0.54684  -0.54427  -0.54274
 Alpha  occ. eigenvalues --   -0.53913  -0.53672  -0.53257  -0.53071  -0.52888
 Alpha  occ. eigenvalues --   -0.52560  -0.52251  -0.52056  -0.52020  -0.51891
 Alpha  occ. eigenvalues --   -0.51662  -0.51329  -0.51047  -0.50926  -0.50628
 Alpha  occ. eigenvalues --   -0.50487  -0.50230  -0.50172  -0.50018  -0.49939
 Alpha  occ. eigenvalues --   -0.49629  -0.49296  -0.49205  -0.49152  -0.49019
 Alpha  occ. eigenvalues --   -0.48897  -0.48563  -0.48003  -0.47876  -0.47695
 Alpha  occ. eigenvalues --   -0.47539  -0.47382  -0.47191  -0.46991  -0.46905
 Alpha  occ. eigenvalues --   -0.46828  -0.46695  -0.46583  -0.46205  -0.46056
 Alpha  occ. eigenvalues --   -0.46005  -0.45541  -0.45500  -0.45270  -0.45138
 Alpha  occ. eigenvalues --   -0.44894  -0.44791  -0.44366  -0.44221  -0.43961
 Alpha  occ. eigenvalues --   -0.43769  -0.43667  -0.43467  -0.43379  -0.43219
 Alpha  occ. eigenvalues --   -0.43129  -0.42753  -0.42717  -0.42498  -0.42375
 Alpha  occ. eigenvalues --   -0.42174  -0.41764  -0.41537  -0.41321  -0.41164
 Alpha  occ. eigenvalues --   -0.40865  -0.40756  -0.40692  -0.40123  -0.40023
 Alpha  occ. eigenvalues --   -0.39857  -0.39732  -0.39342  -0.38844  -0.38581
 Alpha  occ. eigenvalues --   -0.38471  -0.38057  -0.37930  -0.37545  -0.37477
 Alpha  occ. eigenvalues --   -0.37213  -0.37091  -0.36997  -0.36836  -0.36591
 Alpha  occ. eigenvalues --   -0.36461  -0.35643  -0.35103  -0.34571  -0.34455
 Alpha  occ. eigenvalues --   -0.34044  -0.33518  -0.33308  -0.31196  -0.30987
 Alpha  occ. eigenvalues --   -0.30951  -0.30292  -0.30141  -0.29364  -0.24465
 Alpha  occ. eigenvalues --   -0.21568
 Alpha virt. eigenvalues --   -0.09287  -0.02631  -0.00384   0.00748   0.02062
 Alpha virt. eigenvalues --    0.04158   0.04944   0.05229   0.06319   0.06406
 Alpha virt. eigenvalues --    0.07195   0.08048   0.08189   0.08524   0.08727

 Mulliken charges:
               1
     1  Mg   0.838412
     2  C   -0.013475
     3  C   -0.079595
     4  C   -0.052564
     5  C   -0.078027
     6  N   -0.285684
     7  C   -0.037030
     8  C   -0.030085
     9  C   -0.078350
    10  C    0.024894
    11  C    0.077276
    12  C    0.065937
    13  C   -0.013394
    14  C    0.200918
    15  O   -0.218276
    16  O   -0.326931
    17  N   -0.358769
    18  C    0.150811
    19  C   -0.117741
    20  C   -0.035482
    21  C    0.178058
    22  C    0.108821
    23  C    0.006233
    24  O   -0.223909
    25  C    0.040296
    26  N   -0.281348
    27  C   -0.015213
    28  C   -0.055163
    29  C    0.004920
    30  C    0.056766
    31  C    0.036188
    32  C   -0.008331
    33  C   -0.000631
    34  N   -0.303561
    35  C    0.106050
    36  C   -0.197639
    37  C   -0.034334
    38  C    0.078843
    39  C    0.121219
    40  C    0.017445
    41  O   -0.153607
    42  C    0.031489
    43  C    0.214836
    44  O   -0.235573
    45  O   -0.357493
    46  C    0.189254
    47  C    0.292499
    48  C   -0.118695
    49  C   -0.180983
    50  C    0.064601
    51  C    0.075767
    52  C   -0.000192
    53  C    0.062338
    54  C   -0.132030
    55  C    0.044232
    56  C    0.039790
    57  C    0.042260
    58  C    0.001031
    59  C   -0.115354
    60  C    0.048298
    61  C    0.071939
    62  C    0.005433
    63  C   -0.004939
    64  C   -0.224485
    65  C    0.097844
    66  C    0.069648
    67  H   -0.019948
    68  H   -0.035979
    69  H   -0.025196
    70  H    0.016968
    71  H    0.017443
    72  H    0.014677
    73  H    0.018332
    74  H    0.027237
    75  H    0.032486
    76  H    0.014178
    77  H    0.045602
    78  H    0.043263
    79  H    0.028698
    80  H    0.040137
    81  H    0.016594
    82  H    0.014517
    83  H    0.035307
    84  H    0.038227
    85  H    0.029695
    86  H    0.008172
    87  H    0.024104
    88  H    0.023820
    89  H    0.010167
    90  H    0.014035
    91  H    0.004680
    92  H    0.025216
    93  H    0.008768
    94  H    0.035612
    95  H    0.036511
    96  H    0.033267
    97  H    0.032878
    98  H    0.043809
    99  H    0.042811
   100  H    0.044738
   101  H    0.025227
   102  H    0.028986
   103  H    0.023928
   104  H   -0.004484
   105  H    0.001200
   106  H    0.033643
   107  H    0.027288
   108  H   -0.013259
   109  H    0.000707
   110  H    0.005723
   111  H    0.003259
   112  H    0.000746
   113  H   -0.000307
   114  H   -0.002924
   115  H    0.015032
   116  H    0.014248
   117  H    0.004353
   118  H   -0.007324
   119  H   -0.009819
   120  H   -0.009835
   121  H    0.003296
   122  H   -0.003735
   123  H   -0.006808
   124  H   -0.013376
   125  H    0.000927
   126  H    0.003691
   127  H    0.001671
   128  H    0.001256
   129  H   -0.010188
   130  H   -0.000882
   131  H    0.006627
   132  H   -0.008410
   133  H   -0.005343
   134  H   -0.002357
   135  H    0.012257
   136  H    0.000239
   137  H    0.009946
   138  H    0.021257
   139  H   -0.001363
   140  H    0.018620
 Sum of Mulliken charges =  -0.00000

 Dipole moment (field-independent basis, Debye):
    X=              1.3159    Y=              6.0913    Z=              0.9839  Tot=              6.3090
 Quadrupole moment (field-independent basis, Debye-Ang):
   XX=           -369.5293   YY=           -445.4644   ZZ=           -409.1051
   XY=             19.2618   XZ=              1.0903   YZ=             39.9559

 Normal termination of Gaussian 16 at Thu May  5 05:20:11 2022.
