 Gaussian 16, Revision A.03,
 Gaussian 16:  ES64L-G16RevA.03 25-Dec-2016

 ---------------------------------
 #p PBE1PBE/Def2SVP td=(nstates=5)
 ---------------------------------

 -----------------------------------------------------
 step_701_chromophore_14 TDDFT with PBE1PBE functional
 -----------------------------------------------------
 Symbolic Z-matrix:
 Charge =  0 Multiplicity = 1

                         Standard orientation:
 ---------------------------------------------------------------------
 Center     Atomic      Atomic             Coordinates (Angstroms)
 Number     Number       Type             X           Y           Z
 ---------------------------------------------------------------------
      1         12           0        5.279221    0.896503    0.042178
      2          6           0        4.737373   -2.549896    0.496606
      3          6           0        4.043157    0.483124   -3.275977
      4          6           0        4.842492    4.190813   -0.321527
      5          6           0        5.642075    1.194096    3.512942
      6          7           0        4.408753   -0.784228   -1.168717
      7          6           0        4.364655   -2.114819   -0.757410
      8          6           0        3.957791   -3.001223   -1.899485
      9          6           0        3.803054   -2.079250   -3.107526
     10          6           0        4.132158   -0.703872   -2.510956
     11          6           0        4.622766   -2.467136   -4.351983
     12          6           0        2.724003   -3.952686   -1.708972
     13          6           0        1.580450   -3.183966   -1.042489
     14          6           0        0.148928   -3.527939   -1.504262
     15          8           0       -0.217467   -4.437687   -2.222064
     16          8           0       -0.662815   -2.580643   -0.960519
     17          7           0        4.823608    2.204058   -1.617219
     18          6           0        4.387044    1.829589   -2.906005
     19          6           0        4.136708    3.034922   -3.715789
     20          6           0        4.470900    4.168047   -2.852414
     21          6           0        4.832413    3.540048   -1.549627
     22          6           0        3.647229    3.083216   -5.073317
     23          6           0        4.501296    5.601286   -3.277531
     24          8           0        4.244689    5.970633   -4.427712
     25          6           0        5.008064    6.725125   -2.425657
     26          7           0        5.152413    2.464300    1.476262
     27          6           0        4.943948    3.750219    1.039695
     28          6           0        4.771428    4.752455    2.209469
     29          6           0        5.102433    3.741750    3.405040
     30          6           0        5.268303    2.383261    2.784455
     31          6           0        5.787174    5.975277    1.905349
     32          6           0        4.143550    3.757983    4.659824
     33          6           0        4.709257    3.675460    6.153405
     34          7           0        5.263812   -0.418393    1.684298
     35          6           0        5.574976   -0.176972    2.983379
     36          6           0        5.820200   -1.366490    3.705074
     37          6           0        5.460785   -2.437096    2.750902
     38          6           0        5.048665   -1.712151    1.568288
     39          6           0        6.247752   -1.431773    5.145267
     40          6           0        5.303971   -3.867054    2.475664
     41          8           0        5.389250   -4.825412    3.211953
     42          6           0        4.825604   -3.964881    1.045418
     43          6           0        5.786695   -4.812514    0.276185
     44          8           0        5.546574   -5.909305   -0.277667
     45          8           0        7.054200   -4.230532    0.315622
     46          6           0        8.133516   -5.042192   -0.328960
     47          6           0       -2.052868   -2.652527   -1.398394
     48          6           0       -2.697781   -1.374399   -0.970134
     49          6           0       -3.515253   -0.569568   -1.598290
     50          6           0       -4.158161   -0.891642   -2.965888
     51          6           0       -4.097884    0.633185   -0.957252
     52          6           0       -5.173713    0.427802    0.205001
     53          6           0       -6.483122    1.149942    0.006559
     54          6           0       -7.680759    0.336857    0.724714
     55          6           0       -7.392636   -0.341365    2.087405
     56          6           0       -8.233719   -0.731829   -0.325544
     57          6           0       -9.730591   -0.432222   -0.703873
     58          6           0      -10.650816   -1.304594    0.193147
     59          6           0      -11.951757   -0.681161    0.810327
     60          6           0      -12.083900   -1.198897    2.199523
     61          6           0      -13.251057   -0.911440   -0.074992
     62          6           0      -14.072799    0.398907   -0.355471
     63          6           0      -15.578316    0.264686   -0.118094
     64          6           0      -16.020480    1.408221    0.978451
     65          6           0      -17.321961    1.009938    1.624284
     66          6           0      -15.841115    2.813182    0.339020
     67          1           0        3.550510    0.305695   -4.234134
     68          1           0        4.490679    5.223851   -0.335984
     69          1           0        5.925037    1.353223    4.555633
     70          1           0        4.791485   -3.673515   -2.100019
     71          1           0        2.787396   -1.954221   -3.484961
     72          1           0        3.836732   -2.716657   -5.065322
     73          1           0        5.193710   -3.381843   -4.194682
     74          1           0        5.281071   -1.672802   -4.704159
     75          1           0        3.103441   -4.777161   -1.106190
     76          1           0        2.429894   -4.220389   -2.724239
     77          1           0        1.709088   -2.114750   -1.210201
     78          1           0        1.902576   -3.437995   -0.032180
     79          1           0        4.405605    2.912085   -5.837061
     80          1           0        3.266853    4.045634   -5.415246
     81          1           0        2.921520    2.275332   -5.170680
     82          1           0        5.884172    6.486309   -1.821500
     83          1           0        4.309071    6.915531   -1.611314
     84          1           0        5.306016    7.594636   -3.010969
     85          1           0        3.761323    5.160612    2.225900
     86          1           0        6.012024    4.198901    3.794322
     87          1           0        5.267029    6.926559    1.789264
     88          1           0        6.414801    5.791950    1.034413
     89          1           0        6.590458    6.130830    2.625859
     90          1           0        3.619570    2.803380    4.651055
     91          1           0        3.385394    4.517727    4.468311
     92          1           0        3.970548    4.218015    6.742664
     93          1           0        5.635424    4.243941    6.240721
     94          1           0        4.917769    2.655075    6.475331
     95          1           0        6.315099   -2.508961    5.294315
     96          1           0        5.502994   -1.073827    5.856257
     97          1           0        7.196865   -0.895376    5.146571
     98          1           0        3.886637   -4.502739    1.174743
     99          1           0        8.288079   -6.056017    0.041094
    100          1           0        9.089199   -4.518091   -0.365822
    101          1           0        7.779234   -5.255786   -1.337875
    102          1           0       -2.578454   -3.492200   -0.943000
    103          1           0       -2.145866   -2.789730   -2.476600
    104          1           0       -2.212425   -0.970117   -0.082303
    105          1           0       -3.858541   -1.891221   -3.282595
    106          1           0       -3.772470   -0.084826   -3.588685
    107          1           0       -5.246461   -0.942915   -2.957134
    108          1           0       -4.525393    1.252660   -1.745260
    109          1           0       -3.265401    1.148224   -0.477768
    110          1           0       -4.671241    0.775919    1.107478
    111          1           0       -5.261671   -0.658505    0.186853
    112          1           0       -6.511835    1.125001   -1.083331
    113          1           0       -6.496525    2.146167    0.448316
    114          1           0       -8.413825    1.105127    0.974350
    115          1           0       -7.402194   -1.430915    2.069256
    116          1           0       -8.159675    0.108302    2.717824
    117          1           0       -6.414276   -0.113569    2.511528
    118          1           0       -8.167205   -1.702480    0.167464
    119          1           0       -7.582527   -0.846232   -1.191989
    120          1           0       -9.875007   -0.770906   -1.730740
    121          1           0      -10.104327    0.587590   -0.611178
    122          1           0      -10.011938   -1.717345    0.974239
    123          1           0      -11.008212   -2.117664   -0.439254
    124          1           0      -11.740137    0.387577    0.850496
    125          1           0      -11.367824   -0.765743    2.897444
    126          1           0      -11.841699   -2.260780    2.212892
    127          1           0      -13.055797   -1.053247    2.672184
    128          1           0      -13.809856   -1.764939    0.309941
    129          1           0      -12.908425   -1.190203   -1.071145
    130          1           0      -13.942112    0.730467   -1.386065
    131          1           0      -13.723032    1.202382    0.292542
    132          1           0      -15.755976   -0.779958    0.138383
    133          1           0      -16.214293    0.417884   -0.990227
    134          1           0      -15.187434    1.342737    1.678346
    135          1           0      -17.807087    0.265344    0.993268
    136          1           0      -17.934138    1.900892    1.769347
    137          1           0      -17.074325    0.544940    2.578063
    138          1           0      -15.109463    3.324764    0.965545
    139          1           0      -16.804807    3.316874    0.415068
    140          1           0      -15.624371    2.659821   -0.718311
 ---------------------------------------------------------------------

 SCF Done:  E(RPBE1PBE) =  -3005.32153083     A.U. after   15 cycles

 Excitation energies and oscillator strengths:

 Excited State   1:      Singlet-A      1.8206 eV  681.01 nm  f=0.3525  <S**2>=0.000
     245 -> 248       -0.17395
     246 -> 247        0.69145
     246 <- 247       -0.10719
 This state for optimization and/or second-order correction.
 Total Energy, E(TD-HF/TD-DFT) =  -3005.25462515
 Copying the excited state density for this state as the 1-particle RhoCI density.

 Excited State   2:      Singlet-A      2.2009 eV  563.33 nm  f=0.1040  <S**2>=0.000
     245 -> 247        0.64530
     246 -> 248        0.27060

 Excited State   3:      Singlet-A      2.8713 eV  431.80 nm  f=0.0009  <S**2>=0.000
     240 -> 247        0.10560
     241 -> 247       -0.15556
     243 -> 247       -0.40328
     244 -> 247        0.51778

 Excited State   4:      Singlet-A      2.8843 eV  429.86 nm  f=0.0034  <S**2>=0.000
     240 -> 247        0.13917
     241 -> 247        0.22210
     243 -> 247        0.45735
     244 -> 247        0.43002

 Excited State   5:      Singlet-A      3.0129 eV  411.51 nm  f=0.0021  <S**2>=0.000
     240 -> 247       -0.29596
     241 -> 247        0.56931
     243 -> 247       -0.25076

 The electronic state is 1-A.
 Alpha  occ. eigenvalues --  -46.93943 -19.26475 -19.25804 -19.20908 -19.20503
 Alpha  occ. eigenvalues --  -19.19027 -19.18629 -14.42413 -14.42362 -14.40317
 Alpha  occ. eigenvalues --  -14.38997 -10.37467 -10.36559 -10.32195 -10.31982
 Alpha  occ. eigenvalues --  -10.29996 -10.29410 -10.29361 -10.29323 -10.29135
 Alpha  occ. eigenvalues --  -10.29105 -10.28923 -10.28761 -10.27639 -10.27563
 Alpha  occ. eigenvalues --  -10.27087 -10.26506 -10.26371 -10.26319 -10.25984
 Alpha  occ. eigenvalues --  -10.25880 -10.25772 -10.25631 -10.25605 -10.25571
 Alpha  occ. eigenvalues --  -10.25285 -10.25091 -10.24810 -10.24769 -10.24575
 Alpha  occ. eigenvalues --  -10.24192 -10.24037 -10.23955 -10.23946 -10.23740
 Alpha  occ. eigenvalues --  -10.23692 -10.23637 -10.23373 -10.23196 -10.23060
 Alpha  occ. eigenvalues --  -10.22991 -10.22984 -10.22811 -10.22740 -10.22727
 Alpha  occ. eigenvalues --  -10.22724 -10.22488 -10.22449 -10.22330 -10.22080
 Alpha  occ. eigenvalues --  -10.22014 -10.21963 -10.21941 -10.21717 -10.21453
 Alpha  occ. eigenvalues --  -10.21317  -3.15871  -1.88693  -1.88234  -1.88096
 Alpha  occ. eigenvalues --   -1.11729  -1.10071  -1.05168  -1.04131  -1.03244
 Alpha  occ. eigenvalues --   -1.01642  -1.00072  -0.99258  -0.98158  -0.97434
 Alpha  occ. eigenvalues --   -0.87998  -0.84958  -0.84251  -0.83525  -0.83341
 Alpha  occ. eigenvalues --   -0.82623  -0.82273  -0.81895  -0.81540  -0.81241
 Alpha  occ. eigenvalues --   -0.80824  -0.79824  -0.78585  -0.77845  -0.77551
 Alpha  occ. eigenvalues --   -0.76518  -0.76198  -0.75520  -0.75074  -0.74978
 Alpha  occ. eigenvalues --   -0.74085  -0.72714  -0.72109  -0.71996  -0.71292
 Alpha  occ. eigenvalues --   -0.70274  -0.70080  -0.69998  -0.68547  -0.68072
 Alpha  occ. eigenvalues --   -0.67666  -0.67191  -0.66875  -0.64753  -0.64171
 Alpha  occ. eigenvalues --   -0.63321  -0.62317  -0.61954  -0.60739  -0.60573
 Alpha  occ. eigenvalues --   -0.60059  -0.59773  -0.59419  -0.59336  -0.58297
 Alpha  occ. eigenvalues --   -0.58078  -0.57538  -0.56587  -0.56212  -0.55190
 Alpha  occ. eigenvalues --   -0.54715  -0.54580  -0.54206  -0.52914  -0.52648
 Alpha  occ. eigenvalues --   -0.51944  -0.51386  -0.51148  -0.51083  -0.50230
 Alpha  occ. eigenvalues --   -0.49987  -0.49433  -0.49216  -0.49024  -0.48898
 Alpha  occ. eigenvalues --   -0.48336  -0.48151  -0.47929  -0.47528  -0.47361
 Alpha  occ. eigenvalues --   -0.47019  -0.46875  -0.46639  -0.46511  -0.46413
 Alpha  occ. eigenvalues --   -0.46178  -0.45741  -0.45597  -0.45438  -0.45229
 Alpha  occ. eigenvalues --   -0.45096  -0.44759  -0.44690  -0.44608  -0.44474
 Alpha  occ. eigenvalues --   -0.44282  -0.43917  -0.43848  -0.43782  -0.43598
 Alpha  occ. eigenvalues --   -0.43503  -0.43188  -0.42601  -0.42478  -0.42356
 Alpha  occ. eigenvalues --   -0.42225  -0.41971  -0.41866  -0.41685  -0.41665
 Alpha  occ. eigenvalues --   -0.41501  -0.41306  -0.41134  -0.40890  -0.40761
 Alpha  occ. eigenvalues --   -0.40642  -0.40254  -0.40189  -0.39925  -0.39892
 Alpha  occ. eigenvalues --   -0.39569  -0.39538  -0.39163  -0.39021  -0.38707
 Alpha  occ. eigenvalues --   -0.38582  -0.38429  -0.38268  -0.38130  -0.38050
 Alpha  occ. eigenvalues --   -0.37946  -0.37630  -0.37422  -0.37370  -0.37125
 Alpha  occ. eigenvalues --   -0.37007  -0.36635  -0.36355  -0.36132  -0.35954
 Alpha  occ. eigenvalues --   -0.35606  -0.35603  -0.35439  -0.35059  -0.34882
 Alpha  occ. eigenvalues --   -0.34780  -0.34507  -0.34280  -0.33787  -0.33353
 Alpha  occ. eigenvalues --   -0.33266  -0.33041  -0.32812  -0.32522  -0.32386
 Alpha  occ. eigenvalues --   -0.32068  -0.32014  -0.31960  -0.31654  -0.31531
 Alpha  occ. eigenvalues --   -0.31427  -0.30497  -0.30190  -0.29612  -0.29312
 Alpha  occ. eigenvalues --   -0.28975  -0.28871  -0.28499  -0.26826  -0.26027
 Alpha  occ. eigenvalues --   -0.25717  -0.25560  -0.25454  -0.25134  -0.21391
 Alpha  occ. eigenvalues --   -0.19195
 Alpha virt. eigenvalues --   -0.11724  -0.06103  -0.04441  -0.02416  -0.01983
 Alpha virt. eigenvalues --   -0.00597   0.00450   0.00780   0.01844   0.02557
 Alpha virt. eigenvalues --    0.03481   0.03811   0.04940   0.05141   0.05496

 Mulliken charges:
               1
     1  Mg   0.975474
     2  C   -0.031359
     3  C   -0.072246
     4  C   -0.056908
     5  C   -0.065963
     6  N   -0.387796
     7  C    0.037129
     8  C   -0.095983
     9  C   -0.154187
    10  C    0.063897
    11  C    0.022910
    12  C    0.009449
    13  C   -0.091157
    14  C    0.267431
    15  O   -0.252474
    16  O   -0.357659
    17  N   -0.467494
    18  C    0.171840
    19  C   -0.146755
    20  C   -0.081032
    21  C    0.212965
    22  C    0.052766
    23  C    0.052860
    24  O   -0.259884
    25  C   -0.033181
    26  N   -0.390726
    27  C    0.019861
    28  C   -0.126205
    29  C   -0.067744
    30  C    0.097041
    31  C   -0.022452
    32  C   -0.068081
    33  C   -0.074469
    34  N   -0.427865
    35  C    0.122432
    36  C   -0.203956
    37  C   -0.076987
    38  C    0.132706
    39  C    0.061293
    40  C    0.118011
    41  O   -0.200669
    42  C   -0.085917
    43  C    0.301229
    44  O   -0.271580
    45  O   -0.383783
    46  C    0.133256
    47  C    0.251433
    48  C   -0.128873
    49  C   -0.227778
    50  C   -0.000890
    51  C    0.016417
    52  C   -0.061860
    53  C    0.000584
    54  C   -0.206940
    55  C   -0.015927
    56  C   -0.021263
    57  C   -0.021968
    58  C   -0.049323
    59  C   -0.201953
    60  C   -0.013677
    61  C    0.017712
    62  C   -0.056519
    63  C   -0.057815
    64  C   -0.313694
    65  C    0.032484
    66  C    0.005856
    67  H    0.010480
    68  H    0.000299
    69  H    0.008856
    70  H    0.058572
    71  H    0.054048
    72  H    0.041326
    73  H    0.044548
    74  H    0.054458
    75  H    0.065935
    76  H    0.048259
    77  H    0.079799
    78  H    0.078339
    79  H    0.055810
    80  H    0.066228
    81  H    0.043062
    82  H    0.042081
    83  H    0.060633
    84  H    0.064787
    85  H    0.064371
    86  H    0.047342
    87  H    0.051180
    88  H    0.052030
    89  H    0.036879
    90  H    0.048929
    91  H    0.037158
    92  H    0.053701
    93  H    0.036899
    94  H    0.060465
    95  H    0.066213
    96  H    0.061291
    97  H    0.060956
    98  H    0.079786
    99  H    0.064579
   100  H    0.066719
   101  H    0.047288
   102  H    0.056481
   103  H    0.050216
   104  H    0.025618
   105  H    0.028782
   106  H    0.062019
   107  H    0.055542
   108  H    0.018394
   109  H    0.034678
   110  H    0.037678
   111  H    0.037790
   112  H    0.034128
   113  H    0.032362
   114  H    0.034155
   115  H    0.040425
   116  H    0.041704
   117  H    0.032230
   118  H    0.024428
   119  H    0.024413
   120  H    0.024072
   121  H    0.034257
   122  H    0.029349
   123  H    0.026641
   124  H    0.024769
   125  H    0.029857
   126  H    0.031764
   127  H    0.030316
   128  H    0.030985
   129  H    0.024177
   130  H    0.031274
   131  H    0.037999
   132  H    0.023985
   133  H    0.027910
   134  H    0.037652
   135  H    0.039720
   136  H    0.027639
   137  H    0.037848
   138  H    0.047851
   139  H    0.027326
   140  H    0.046212
 Sum of Mulliken charges =  -0.00000

 Dipole moment (field-independent basis, Debye):
    X=              1.3617    Y=              5.8453    Z=              1.3790  Tot=              6.1581
 Quadrupole moment (field-independent basis, Debye-Ang):
   XX=           -366.2859   YY=           -442.6523   ZZ=           -404.7443
   XY=             18.2328   XZ=              3.5888   YZ=             41.4750

 Normal termination of Gaussian 16 at Thu May  5 05:47:43 2022.
