 Gaussian 16, Revision A.03,
 Gaussian 16:  ES64L-G16RevA.03 25-Dec-2016

 --------------------------------
 #p wB97XD/Def2SVP td=(nstates=5)
 --------------------------------

 ----------------------------------------------------
 step_701_chromophore_14 TDDFT with wB97XD functional
 ----------------------------------------------------
 Symbolic Z-matrix:
 Charge =  0 Multiplicity = 1

                         Standard orientation:
 ---------------------------------------------------------------------
 Center     Atomic      Atomic             Coordinates (Angstroms)
 Number     Number       Type             X           Y           Z
 ---------------------------------------------------------------------
      1         12           0        5.279221    0.896503    0.042178
      2          6           0        4.737373   -2.549896    0.496606
      3          6           0        4.043157    0.483124   -3.275977
      4          6           0        4.842492    4.190813   -0.321527
      5          6           0        5.642075    1.194096    3.512942
      6          7           0        4.408753   -0.784228   -1.168717
      7          6           0        4.364655   -2.114819   -0.757410
      8          6           0        3.957791   -3.001223   -1.899485
      9          6           0        3.803054   -2.079250   -3.107526
     10          6           0        4.132158   -0.703872   -2.510956
     11          6           0        4.622766   -2.467136   -4.351983
     12          6           0        2.724003   -3.952686   -1.708972
     13          6           0        1.580450   -3.183966   -1.042489
     14          6           0        0.148928   -3.527939   -1.504262
     15          8           0       -0.217467   -4.437687   -2.222064
     16          8           0       -0.662815   -2.580643   -0.960519
     17          7           0        4.823608    2.204058   -1.617219
     18          6           0        4.387044    1.829589   -2.906005
     19          6           0        4.136708    3.034922   -3.715789
     20          6           0        4.470900    4.168047   -2.852414
     21          6           0        4.832413    3.540048   -1.549627
     22          6           0        3.647229    3.083216   -5.073317
     23          6           0        4.501296    5.601286   -3.277531
     24          8           0        4.244689    5.970633   -4.427712
     25          6           0        5.008064    6.725125   -2.425657
     26          7           0        5.152413    2.464300    1.476262
     27          6           0        4.943948    3.750219    1.039695
     28          6           0        4.771428    4.752455    2.209469
     29          6           0        5.102433    3.741750    3.405040
     30          6           0        5.268303    2.383261    2.784455
     31          6           0        5.787174    5.975277    1.905349
     32          6           0        4.143550    3.757983    4.659824
     33          6           0        4.709257    3.675460    6.153405
     34          7           0        5.263812   -0.418393    1.684298
     35          6           0        5.574976   -0.176972    2.983379
     36          6           0        5.820200   -1.366490    3.705074
     37          6           0        5.460785   -2.437096    2.750902
     38          6           0        5.048665   -1.712151    1.568288
     39          6           0        6.247752   -1.431773    5.145267
     40          6           0        5.303971   -3.867054    2.475664
     41          8           0        5.389250   -4.825412    3.211953
     42          6           0        4.825604   -3.964881    1.045418
     43          6           0        5.786695   -4.812514    0.276185
     44          8           0        5.546574   -5.909305   -0.277667
     45          8           0        7.054200   -4.230532    0.315622
     46          6           0        8.133516   -5.042192   -0.328960
     47          6           0       -2.052868   -2.652527   -1.398394
     48          6           0       -2.697781   -1.374399   -0.970134
     49          6           0       -3.515253   -0.569568   -1.598290
     50          6           0       -4.158161   -0.891642   -2.965888
     51          6           0       -4.097884    0.633185   -0.957252
     52          6           0       -5.173713    0.427802    0.205001
     53          6           0       -6.483122    1.149942    0.006559
     54          6           0       -7.680759    0.336857    0.724714
     55          6           0       -7.392636   -0.341365    2.087405
     56          6           0       -8.233719   -0.731829   -0.325544
     57          6           0       -9.730591   -0.432222   -0.703873
     58          6           0      -10.650816   -1.304594    0.193147
     59          6           0      -11.951757   -0.681161    0.810327
     60          6           0      -12.083900   -1.198897    2.199523
     61          6           0      -13.251057   -0.911440   -0.074992
     62          6           0      -14.072799    0.398907   -0.355471
     63          6           0      -15.578316    0.264686   -0.118094
     64          6           0      -16.020480    1.408221    0.978451
     65          6           0      -17.321961    1.009938    1.624284
     66          6           0      -15.841115    2.813182    0.339020
     67          1           0        3.550510    0.305695   -4.234134
     68          1           0        4.490679    5.223851   -0.335984
     69          1           0        5.925037    1.353223    4.555633
     70          1           0        4.791485   -3.673515   -2.100019
     71          1           0        2.787396   -1.954221   -3.484961
     72          1           0        3.836732   -2.716657   -5.065322
     73          1           0        5.193710   -3.381843   -4.194682
     74          1           0        5.281071   -1.672802   -4.704159
     75          1           0        3.103441   -4.777161   -1.106190
     76          1           0        2.429894   -4.220389   -2.724239
     77          1           0        1.709088   -2.114750   -1.210201
     78          1           0        1.902576   -3.437995   -0.032180
     79          1           0        4.405605    2.912085   -5.837061
     80          1           0        3.266853    4.045634   -5.415246
     81          1           0        2.921520    2.275332   -5.170680
     82          1           0        5.884172    6.486309   -1.821500
     83          1           0        4.309071    6.915531   -1.611314
     84          1           0        5.306016    7.594636   -3.010969
     85          1           0        3.761323    5.160612    2.225900
     86          1           0        6.012024    4.198901    3.794322
     87          1           0        5.267029    6.926559    1.789264
     88          1           0        6.414801    5.791950    1.034413
     89          1           0        6.590458    6.130830    2.625859
     90          1           0        3.619570    2.803380    4.651055
     91          1           0        3.385394    4.517727    4.468311
     92          1           0        3.970548    4.218015    6.742664
     93          1           0        5.635424    4.243941    6.240721
     94          1           0        4.917769    2.655075    6.475331
     95          1           0        6.315099   -2.508961    5.294315
     96          1           0        5.502994   -1.073827    5.856257
     97          1           0        7.196865   -0.895376    5.146571
     98          1           0        3.886637   -4.502739    1.174743
     99          1           0        8.288079   -6.056017    0.041094
    100          1           0        9.089199   -4.518091   -0.365822
    101          1           0        7.779234   -5.255786   -1.337875
    102          1           0       -2.578454   -3.492200   -0.943000
    103          1           0       -2.145866   -2.789730   -2.476600
    104          1           0       -2.212425   -0.970117   -0.082303
    105          1           0       -3.858541   -1.891221   -3.282595
    106          1           0       -3.772470   -0.084826   -3.588685
    107          1           0       -5.246461   -0.942915   -2.957134
    108          1           0       -4.525393    1.252660   -1.745260
    109          1           0       -3.265401    1.148224   -0.477768
    110          1           0       -4.671241    0.775919    1.107478
    111          1           0       -5.261671   -0.658505    0.186853
    112          1           0       -6.511835    1.125001   -1.083331
    113          1           0       -6.496525    2.146167    0.448316
    114          1           0       -8.413825    1.105127    0.974350
    115          1           0       -7.402194   -1.430915    2.069256
    116          1           0       -8.159675    0.108302    2.717824
    117          1           0       -6.414276   -0.113569    2.511528
    118          1           0       -8.167205   -1.702480    0.167464
    119          1           0       -7.582527   -0.846232   -1.191989
    120          1           0       -9.875007   -0.770906   -1.730740
    121          1           0      -10.104327    0.587590   -0.611178
    122          1           0      -10.011938   -1.717345    0.974239
    123          1           0      -11.008212   -2.117664   -0.439254
    124          1           0      -11.740137    0.387577    0.850496
    125          1           0      -11.367824   -0.765743    2.897444
    126          1           0      -11.841699   -2.260780    2.212892
    127          1           0      -13.055797   -1.053247    2.672184
    128          1           0      -13.809856   -1.764939    0.309941
    129          1           0      -12.908425   -1.190203   -1.071145
    130          1           0      -13.942112    0.730467   -1.386065
    131          1           0      -13.723032    1.202382    0.292542
    132          1           0      -15.755976   -0.779958    0.138383
    133          1           0      -16.214293    0.417884   -0.990227
    134          1           0      -15.187434    1.342737    1.678346
    135          1           0      -17.807087    0.265344    0.993268
    136          1           0      -17.934138    1.900892    1.769347
    137          1           0      -17.074325    0.544940    2.578063
    138          1           0      -15.109463    3.324764    0.965545
    139          1           0      -16.804807    3.316874    0.415068
    140          1           0      -15.624371    2.659821   -0.718311
 ---------------------------------------------------------------------

 SCF Done:  E(RwB97XD) =  -3007.83022118     A.U. after   19 cycles

 Excitation energies and oscillator strengths:

 Excited State   1:      Singlet-A      1.6302 eV  760.54 nm  f=0.3682  <S**2>=0.000
     245 -> 248       -0.18450
     246 -> 247        0.68284
     245 <- 248       -0.11453
 This state for optimization and/or second-order correction.
 Total Energy, E(TD-HF/TD-DFT) =  -3007.77031168
 Copying the excited state density for this state as the 1-particle RhoCI density.

 Excited State   2:      Singlet-A      2.1415 eV  578.96 nm  f=0.1040  <S**2>=0.000
     245 -> 247        0.63083
     246 -> 248        0.29858

 Excited State   3:      Singlet-A      3.3028 eV  375.39 nm  f=0.0060  <S**2>=0.000
     242 -> 247       -0.36804
     244 -> 247        0.57139

 Excited State   4:      Singlet-A      3.3607 eV  368.92 nm  f=0.0662  <S**2>=0.000
     242 -> 247        0.47668
     244 -> 247        0.32748
     246 -> 248       -0.34764

 Excited State   5:      Singlet-A      3.4056 eV  364.05 nm  f=0.0524  <S**2>=0.000
     239 -> 247       -0.10220
     240 -> 247        0.48907
     240 -> 248       -0.17660
     240 -> 249        0.30213
     240 -> 250        0.14094
     240 -> 251       -0.13984
     246 -> 248        0.19042

 The electronic state is 1-A.
 Alpha  occ. eigenvalues --  -46.96896 -19.30978 -19.30348 -19.25535 -19.25150
 Alpha  occ. eigenvalues --  -19.23647 -19.23622 -14.47492 -14.47474 -14.45435
 Alpha  occ. eigenvalues --  -14.43792 -10.44220 -10.43319 -10.39245 -10.38647
 Alpha  occ. eigenvalues --  -10.36482 -10.35903 -10.35878 -10.35862 -10.35596
 Alpha  occ. eigenvalues --  -10.35456 -10.35410 -10.35059 -10.33955 -10.33889
 Alpha  occ. eigenvalues --  -10.33522 -10.32676 -10.32563 -10.32467 -10.32271
 Alpha  occ. eigenvalues --  -10.32173 -10.32124 -10.32082 -10.32006 -10.31941
 Alpha  occ. eigenvalues --  -10.31559 -10.31482 -10.31185 -10.31031 -10.30961
 Alpha  occ. eigenvalues --  -10.30520 -10.30350 -10.30291 -10.30192 -10.30189
 Alpha  occ. eigenvalues --  -10.29935 -10.29913 -10.29822 -10.29696 -10.29618
 Alpha  occ. eigenvalues --  -10.29311 -10.29268 -10.29138 -10.29114 -10.29093
 Alpha  occ. eigenvalues --  -10.29086 -10.28852 -10.28807 -10.28721 -10.28452
 Alpha  occ. eigenvalues --  -10.28382 -10.28363 -10.28349 -10.28074 -10.27883
 Alpha  occ. eigenvalues --  -10.27764  -3.22717  -1.96283  -1.95823  -1.95682
 Alpha  occ. eigenvalues --   -1.19080  -1.17423  -1.12440  -1.11827  -1.10558
 Alpha  occ. eigenvalues --   -1.08954  -1.07384  -1.06456  -1.05682  -1.04929
 Alpha  occ. eigenvalues --   -0.95490  -0.92622  -0.91857  -0.91288  -0.91015
 Alpha  occ. eigenvalues --   -0.90196  -0.89945  -0.89517  -0.89326  -0.88906
 Alpha  occ. eigenvalues --   -0.88347  -0.87495  -0.86260  -0.85477  -0.85123
 Alpha  occ. eigenvalues --   -0.84183  -0.83994  -0.83193  -0.82679  -0.82572
 Alpha  occ. eigenvalues --   -0.81739  -0.80356  -0.79812  -0.79678  -0.78862
 Alpha  occ. eigenvalues --   -0.77933  -0.77700  -0.77695  -0.76225  -0.75676
 Alpha  occ. eigenvalues --   -0.75234  -0.74767  -0.74445  -0.72406  -0.71685
 Alpha  occ. eigenvalues --   -0.70792  -0.69929  -0.69587  -0.68390  -0.68051
 Alpha  occ. eigenvalues --   -0.67511  -0.67289  -0.67001  -0.66871  -0.65654
 Alpha  occ. eigenvalues --   -0.65532  -0.65222  -0.64225  -0.63823  -0.62728
 Alpha  occ. eigenvalues --   -0.62175  -0.62018  -0.61559  -0.60236  -0.60164
 Alpha  occ. eigenvalues --   -0.59360  -0.58891  -0.58627  -0.58546  -0.57585
 Alpha  occ. eigenvalues --   -0.57373  -0.56797  -0.56594  -0.56347  -0.56235
 Alpha  occ. eigenvalues --   -0.55770  -0.55570  -0.55204  -0.54950  -0.54810
 Alpha  occ. eigenvalues --   -0.54507  -0.54151  -0.53948  -0.53897  -0.53772
 Alpha  occ. eigenvalues --   -0.53577  -0.53279  -0.52930  -0.52823  -0.52497
 Alpha  occ. eigenvalues --   -0.52382  -0.52175  -0.52071  -0.51959  -0.51887
 Alpha  occ. eigenvalues --   -0.51562  -0.51183  -0.51105  -0.51091  -0.50906
 Alpha  occ. eigenvalues --   -0.50793  -0.50490  -0.49962  -0.49768  -0.49597
 Alpha  occ. eigenvalues --   -0.49467  -0.49248  -0.49070  -0.48924  -0.48826
 Alpha  occ. eigenvalues --   -0.48741  -0.48634  -0.48425  -0.48109  -0.47957
 Alpha  occ. eigenvalues --   -0.47883  -0.47517  -0.47415  -0.47143  -0.47039
 Alpha  occ. eigenvalues --   -0.46766  -0.46711  -0.46295  -0.46147  -0.45900
 Alpha  occ. eigenvalues --   -0.45697  -0.45603  -0.45346  -0.45277  -0.45152
 Alpha  occ. eigenvalues --   -0.45044  -0.44628  -0.44571  -0.44417  -0.44249
 Alpha  occ. eigenvalues --   -0.44128  -0.43684  -0.43437  -0.43262  -0.43133
 Alpha  occ. eigenvalues --   -0.42716  -0.42657  -0.42540  -0.42027  -0.41874
 Alpha  occ. eigenvalues --   -0.41755  -0.41580  -0.41297  -0.40734  -0.40401
 Alpha  occ. eigenvalues --   -0.40312  -0.40011  -0.39799  -0.39461  -0.39372
 Alpha  occ. eigenvalues --   -0.39092  -0.39048  -0.38966  -0.38668  -0.38542
 Alpha  occ. eigenvalues --   -0.38436  -0.37474  -0.37075  -0.36514  -0.36377
 Alpha  occ. eigenvalues --   -0.35908  -0.35534  -0.35372  -0.33391  -0.32982
 Alpha  occ. eigenvalues --   -0.32899  -0.32382  -0.32297  -0.31472  -0.26380
 Alpha  occ. eigenvalues --   -0.23365
 Alpha virt. eigenvalues --   -0.07636  -0.00700   0.01736   0.03879   0.04266
 Alpha virt. eigenvalues --    0.06292   0.07265   0.07535   0.08589   0.09174
 Alpha virt. eigenvalues --    0.09875   0.10573   0.11659   0.11822   0.12196

 Mulliken charges:
               1
     1  Mg   0.969551
     2  C   -0.029432
     3  C   -0.091338
     4  C   -0.068127
     5  C   -0.081717
     6  N   -0.354175
     7  C    0.000331
     8  C   -0.064604
     9  C   -0.131598
    10  C    0.052724
    11  C    0.031114
    12  C    0.023918
    13  C   -0.067167
    14  C    0.258313
    15  O   -0.249906
    16  O   -0.356598
    17  N   -0.437501
    18  C    0.167426
    19  C   -0.134165
    20  C   -0.076520
    21  C    0.207345
    22  C    0.061682
    23  C    0.050155
    24  O   -0.253972
    25  C   -0.019898
    26  N   -0.355669
    27  C    0.014220
    28  C   -0.106705
    29  C   -0.044346
    30  C    0.082115
    31  C   -0.009582
    32  C   -0.052963
    33  C   -0.056716
    34  N   -0.390258
    35  C    0.113120
    36  C   -0.203738
    37  C   -0.078150
    38  C    0.111506
    39  C    0.072482
    40  C    0.098425
    41  O   -0.192435
    42  C   -0.042884
    43  C    0.277152
    44  O   -0.265036
    45  O   -0.385087
    46  C    0.148976
    47  C    0.265212
    48  C   -0.139987
    49  C   -0.209171
    50  C    0.014219
    51  C    0.032004
    52  C   -0.045574
    53  C    0.021308
    54  C   -0.184002
    55  C   -0.004619
    56  C    0.000953
    57  C   -0.006127
    58  C   -0.031187
    59  C   -0.171244
    60  C    0.000086
    61  C    0.029936
    62  C   -0.036610
    63  C   -0.044762
    64  C   -0.278707
    65  C    0.045615
    66  C    0.016117
    67  H    0.005529
    68  H   -0.015463
    69  H    0.000923
    70  H    0.043147
    71  H    0.042600
    72  H    0.036646
    73  H    0.040250
    74  H    0.048594
    75  H    0.056209
    76  H    0.039035
    77  H    0.068744
    78  H    0.068005
    79  H    0.053282
    80  H    0.064138
    81  H    0.038051
    82  H    0.035206
    83  H    0.056448
    84  H    0.064817
    85  H    0.056542
    86  H    0.033106
    87  H    0.046163
    88  H    0.042957
    89  H    0.032573
    90  H    0.038145
    91  H    0.029600
    92  H    0.048218
    93  H    0.029702
    94  H    0.054992
    95  H    0.061439
    96  H    0.055834
    97  H    0.054612
    98  H    0.073493
    99  H    0.060691
   100  H    0.063989
   101  H    0.041604
   102  H    0.052443
   103  H    0.042834
   104  H    0.022651
   105  H    0.022527
   106  H    0.055751
   107  H    0.049342
   108  H    0.009559
   109  H    0.027223
   110  H    0.030252
   111  H    0.023774
   112  H    0.019969
   113  H    0.026598
   114  H    0.022726
   115  H    0.034635
   116  H    0.036565
   117  H    0.025612
   118  H    0.012609
   119  H    0.014392
   120  H    0.017205
   121  H    0.024860
   122  H    0.014044
   123  H    0.016996
   124  H    0.009807
   125  H    0.023557
   126  H    0.024222
   127  H    0.024379
   128  H    0.023484
   129  H    0.014844
   130  H    0.024522
   131  H    0.023686
   132  H    0.013981
   133  H    0.018681
   134  H    0.021826
   135  H    0.033264
   136  H    0.021673
   137  H    0.032466
   138  H    0.043372
   139  H    0.020944
   140  H    0.039171
 Sum of Mulliken charges =  -0.00000

 Dipole moment (field-independent basis, Debye):
    X=              1.3509    Y=              6.2882    Z=              0.8524  Tot=              6.4879
 Quadrupole moment (field-independent basis, Debye-Ang):
   XX=           -365.3920   YY=           -441.6622   ZZ=           -404.5483
   XY=             20.0852   XZ=              0.6812   YZ=             40.2683

 Normal termination of Gaussian 16 at Thu May  5 06:26:02 2022.
