 Gaussian 16, Revision A.03,
 Gaussian 16:  ES64L-G16RevA.03 25-Dec-2016

 --------------------
 #p ZINDO=(nstates=5)
 --------------------

 -----------------------------
 step_701_chromophore_14 ZINDO
 -----------------------------
 Symbolic Z-matrix:
 Charge =  0 Multiplicity = 1

                         Standard orientation:
 ---------------------------------------------------------------------
 Center     Atomic      Atomic             Coordinates (Angstroms)
 Number     Number       Type             X           Y           Z
 ---------------------------------------------------------------------
      1         12           0        5.279221    0.896503    0.042178
      2          6           0        4.737373   -2.549896    0.496606
      3          6           0        4.043157    0.483124   -3.275977
      4          6           0        4.842492    4.190813   -0.321527
      5          6           0        5.642075    1.194096    3.512942
      6          7           0        4.408753   -0.784228   -1.168717
      7          6           0        4.364655   -2.114819   -0.757410
      8          6           0        3.957791   -3.001223   -1.899485
      9          6           0        3.803054   -2.079250   -3.107526
     10          6           0        4.132158   -0.703872   -2.510956
     11          6           0        4.622766   -2.467136   -4.351983
     12          6           0        2.724003   -3.952686   -1.708972
     13          6           0        1.580450   -3.183966   -1.042489
     14          6           0        0.148928   -3.527939   -1.504262
     15          8           0       -0.217467   -4.437687   -2.222064
     16          8           0       -0.662815   -2.580643   -0.960519
     17          7           0        4.823608    2.204058   -1.617219
     18          6           0        4.387044    1.829589   -2.906005
     19          6           0        4.136708    3.034922   -3.715789
     20          6           0        4.470900    4.168047   -2.852414
     21          6           0        4.832413    3.540048   -1.549627
     22          6           0        3.647229    3.083216   -5.073317
     23          6           0        4.501296    5.601286   -3.277531
     24          8           0        4.244689    5.970633   -4.427712
     25          6           0        5.008064    6.725125   -2.425657
     26          7           0        5.152413    2.464300    1.476262
     27          6           0        4.943948    3.750219    1.039695
     28          6           0        4.771428    4.752455    2.209469
     29          6           0        5.102433    3.741750    3.405040
     30          6           0        5.268303    2.383261    2.784455
     31          6           0        5.787174    5.975277    1.905349
     32          6           0        4.143550    3.757983    4.659824
     33          6           0        4.709257    3.675460    6.153405
     34          7           0        5.263812   -0.418393    1.684298
     35          6           0        5.574976   -0.176972    2.983379
     36          6           0        5.820200   -1.366490    3.705074
     37          6           0        5.460785   -2.437096    2.750902
     38          6           0        5.048665   -1.712151    1.568288
     39          6           0        6.247752   -1.431773    5.145267
     40          6           0        5.303971   -3.867054    2.475664
     41          8           0        5.389250   -4.825412    3.211953
     42          6           0        4.825604   -3.964881    1.045418
     43          6           0        5.786695   -4.812514    0.276185
     44          8           0        5.546574   -5.909305   -0.277667
     45          8           0        7.054200   -4.230532    0.315622
     46          6           0        8.133516   -5.042192   -0.328960
     47          6           0       -2.052868   -2.652527   -1.398394
     48          6           0       -2.697781   -1.374399   -0.970134
     49          6           0       -3.515253   -0.569568   -1.598290
     50          6           0       -4.158161   -0.891642   -2.965888
     51          6           0       -4.097884    0.633185   -0.957252
     52          6           0       -5.173713    0.427802    0.205001
     53          6           0       -6.483122    1.149942    0.006559
     54          6           0       -7.680759    0.336857    0.724714
     55          6           0       -7.392636   -0.341365    2.087405
     56          6           0       -8.233719   -0.731829   -0.325544
     57          6           0       -9.730591   -0.432222   -0.703873
     58          6           0      -10.650816   -1.304594    0.193147
     59          6           0      -11.951757   -0.681161    0.810327
     60          6           0      -12.083900   -1.198897    2.199523
     61          6           0      -13.251057   -0.911440   -0.074992
     62          6           0      -14.072799    0.398907   -0.355471
     63          6           0      -15.578316    0.264686   -0.118094
     64          6           0      -16.020480    1.408221    0.978451
     65          6           0      -17.321961    1.009938    1.624284
     66          6           0      -15.841115    2.813182    0.339020
     67          1           0        3.550510    0.305695   -4.234134
     68          1           0        4.490679    5.223851   -0.335984
     69          1           0        5.925037    1.353223    4.555633
     70          1           0        4.791485   -3.673515   -2.100019
     71          1           0        2.787396   -1.954221   -3.484961
     72          1           0        3.836732   -2.716657   -5.065322
     73          1           0        5.193710   -3.381843   -4.194682
     74          1           0        5.281071   -1.672802   -4.704159
     75          1           0        3.103441   -4.777161   -1.106190
     76          1           0        2.429894   -4.220389   -2.724239
     77          1           0        1.709088   -2.114750   -1.210201
     78          1           0        1.902576   -3.437995   -0.032180
     79          1           0        4.405605    2.912085   -5.837061
     80          1           0        3.266853    4.045634   -5.415246
     81          1           0        2.921520    2.275332   -5.170680
     82          1           0        5.884172    6.486309   -1.821500
     83          1           0        4.309071    6.915531   -1.611314
     84          1           0        5.306016    7.594636   -3.010969
     85          1           0        3.761323    5.160612    2.225900
     86          1           0        6.012024    4.198901    3.794322
     87          1           0        5.267029    6.926559    1.789264
     88          1           0        6.414801    5.791950    1.034413
     89          1           0        6.590458    6.130830    2.625859
     90          1           0        3.619570    2.803380    4.651055
     91          1           0        3.385394    4.517727    4.468311
     92          1           0        3.970548    4.218015    6.742664
     93          1           0        5.635424    4.243941    6.240721
     94          1           0        4.917769    2.655075    6.475331
     95          1           0        6.315099   -2.508961    5.294315
     96          1           0        5.502994   -1.073827    5.856257
     97          1           0        7.196865   -0.895376    5.146571
     98          1           0        3.886637   -4.502739    1.174743
     99          1           0        8.288079   -6.056017    0.041094
    100          1           0        9.089199   -4.518091   -0.365822
    101          1           0        7.779234   -5.255786   -1.337875
    102          1           0       -2.578454   -3.492200   -0.943000
    103          1           0       -2.145866   -2.789730   -2.476600
    104          1           0       -2.212425   -0.970117   -0.082303
    105          1           0       -3.858541   -1.891221   -3.282595
    106          1           0       -3.772470   -0.084826   -3.588685
    107          1           0       -5.246461   -0.942915   -2.957134
    108          1           0       -4.525393    1.252660   -1.745260
    109          1           0       -3.265401    1.148224   -0.477768
    110          1           0       -4.671241    0.775919    1.107478
    111          1           0       -5.261671   -0.658505    0.186853
    112          1           0       -6.511835    1.125001   -1.083331
    113          1           0       -6.496525    2.146167    0.448316
    114          1           0       -8.413825    1.105127    0.974350
    115          1           0       -7.402194   -1.430915    2.069256
    116          1           0       -8.159675    0.108302    2.717824
    117          1           0       -6.414276   -0.113569    2.511528
    118          1           0       -8.167205   -1.702480    0.167464
    119          1           0       -7.582527   -0.846232   -1.191989
    120          1           0       -9.875007   -0.770906   -1.730740
    121          1           0      -10.104327    0.587590   -0.611178
    122          1           0      -10.011938   -1.717345    0.974239
    123          1           0      -11.008212   -2.117664   -0.439254
    124          1           0      -11.740137    0.387577    0.850496
    125          1           0      -11.367824   -0.765743    2.897444
    126          1           0      -11.841699   -2.260780    2.212892
    127          1           0      -13.055797   -1.053247    2.672184
    128          1           0      -13.809856   -1.764939    0.309941
    129          1           0      -12.908425   -1.190203   -1.071145
    130          1           0      -13.942112    0.730467   -1.386065
    131          1           0      -13.723032    1.202382    0.292542
    132          1           0      -15.755976   -0.779958    0.138383
    133          1           0      -16.214293    0.417884   -0.990227
    134          1           0      -15.187434    1.342737    1.678346
    135          1           0      -17.807087    0.265344    0.993268
    136          1           0      -17.934138    1.900892    1.769347
    137          1           0      -17.074325    0.544940    2.578063
    138          1           0      -15.109463    3.324764    0.965545
    139          1           0      -16.804807    3.316874    0.415068
    140          1           0      -15.624371    2.659821   -0.718311
 ---------------------------------------------------------------------

 SCF Done:  E(RZINDO/S) =  -474.082852034     A.U. after   20 cycles

 Excitation energies and oscillator strengths:

 Excited State   1:      Singlet-A      1.2727 eV  974.17 nm  f=0.5732  <S**2>=0.000
     175 ->178         0.17585
     176 ->177         0.66623
 This state for optimization and/or second-order correction.
 Total Energy, E(CIS/TDA) =  -474.036080659
 Copying the excited state density for this state as the 1-particle RhoCI density.

 Excited State   2:      Singlet-A      1.8769 eV  660.58 nm  f=0.0467  <S**2>=0.000
     175 ->177         0.53941
     176 ->178        -0.41843

 Excited State   3:      Singlet-A      2.8010 eV  442.65 nm  f=0.0007  <S**2>=0.000
     168 ->177         0.33077
     168 ->178        -0.21549
     168 ->179         0.38117
     168 ->181         0.28374
     168 ->184        -0.11468
     168 ->185         0.20059
     168 ->189         0.12655
     168 ->191         0.10016

 Excited State   4:      Singlet-A      2.8832 eV  430.02 nm  f=0.3736  <S**2>=0.000
     175 ->177         0.21332
     176 ->178         0.32737
     176 ->179        -0.32835
     176 ->180         0.45919

 Excited State   5:      Singlet-A      2.9588 eV  419.03 nm  f=0.6999  <S**2>=0.000
     175 ->177         0.31885
     176 ->178         0.42991
     176 ->180        -0.42239

 The electronic state is 1-A.
 Alpha  occ. eigenvalues --   -1.85005  -1.80721  -1.79898  -1.73957  -1.71614
 Alpha  occ. eigenvalues --   -1.70467  -1.64196  -1.60740  -1.60142  -1.58400
 Alpha  occ. eigenvalues --   -1.55936  -1.51600  -1.48928  -1.47316  -1.45452
 Alpha  occ. eigenvalues --   -1.44495  -1.43162  -1.41345  -1.39423  -1.38164
 Alpha  occ. eigenvalues --   -1.36985  -1.34043  -1.32236  -1.31389  -1.28114
 Alpha  occ. eigenvalues --   -1.27107  -1.25795  -1.22847  -1.21505  -1.18785
 Alpha  occ. eigenvalues --   -1.17299  -1.16316  -1.15454  -1.13389  -1.13110
 Alpha  occ. eigenvalues --   -1.12744  -1.10726  -1.08681  -1.05552  -1.04265
 Alpha  occ. eigenvalues --   -1.02892  -1.01430  -1.00209  -0.98269  -0.96229
 Alpha  occ. eigenvalues --   -0.95680  -0.95301  -0.93551  -0.92558  -0.92184
 Alpha  occ. eigenvalues --   -0.90999  -0.90436  -0.88910  -0.87756  -0.86427
 Alpha  occ. eigenvalues --   -0.85320  -0.85081  -0.83998  -0.83740  -0.81671
 Alpha  occ. eigenvalues --   -0.81060  -0.78513  -0.78083  -0.77848  -0.77404
 Alpha  occ. eigenvalues --   -0.76480  -0.74808  -0.74208  -0.73879  -0.73581
 Alpha  occ. eigenvalues --   -0.72546  -0.72196  -0.71684  -0.71390  -0.70630
 Alpha  occ. eigenvalues --   -0.70295  -0.69993  -0.68477  -0.68149  -0.68069
 Alpha  occ. eigenvalues --   -0.67703  -0.66810  -0.66622  -0.65795  -0.65562
 Alpha  occ. eigenvalues --   -0.64801  -0.64263  -0.64156  -0.63660  -0.63325
 Alpha  occ. eigenvalues --   -0.63151  -0.62747  -0.62633  -0.62470  -0.62209
 Alpha  occ. eigenvalues --   -0.62051  -0.61406  -0.61042  -0.60737  -0.60540
 Alpha  occ. eigenvalues --   -0.60084  -0.59575  -0.59149  -0.58641  -0.58199
 Alpha  occ. eigenvalues --   -0.57732  -0.57568  -0.57346  -0.57070  -0.56774
 Alpha  occ. eigenvalues --   -0.56426  -0.55677  -0.55589  -0.55430  -0.54664
 Alpha  occ. eigenvalues --   -0.54577  -0.53771  -0.53472  -0.53112  -0.53037
 Alpha  occ. eigenvalues --   -0.52835  -0.52465  -0.52079  -0.51834  -0.51714
 Alpha  occ. eigenvalues --   -0.51450  -0.51217  -0.50907  -0.50620  -0.50452
 Alpha  occ. eigenvalues --   -0.50117  -0.49967  -0.49807  -0.49496  -0.48851
 Alpha  occ. eigenvalues --   -0.48597  -0.48451  -0.48271  -0.48193  -0.48026
 Alpha  occ. eigenvalues --   -0.47759  -0.47621  -0.47360  -0.46901  -0.46822
 Alpha  occ. eigenvalues --   -0.46594  -0.46397  -0.45874  -0.45617  -0.45496
 Alpha  occ. eigenvalues --   -0.45283  -0.45174  -0.45006  -0.44691  -0.44146
 Alpha  occ. eigenvalues --   -0.44131  -0.43630  -0.43152  -0.42554  -0.42418
 Alpha  occ. eigenvalues --   -0.42363  -0.41725  -0.41247  -0.39184  -0.39078
 Alpha  occ. eigenvalues --   -0.38482  -0.37396  -0.35897  -0.34901  -0.34381
 Alpha  occ. eigenvalues --   -0.33846  -0.32824  -0.32654  -0.31425  -0.27092
 Alpha  occ. eigenvalues --   -0.22366
 Alpha virt. eigenvalues --   -0.09073  -0.02975  -0.01262  -0.00029   0.00809
 Alpha virt. eigenvalues --    0.02043   0.02205   0.02405   0.04064   0.05280
 Alpha virt. eigenvalues --    0.05803   0.06091   0.06398   0.07098   0.07466

 Mulliken charges:
               1
     1  Mg   0.436569
     2  C   -0.037121
     3  C   -0.085651
     4  C   -0.095123
     5  C   -0.083571
     6  N   -0.294275
     7  C    0.104997
     8  C    0.000338
     9  C    0.004852
    10  C    0.161038
    11  C   -0.051527
    12  C   -0.029199
    13  C   -0.007675
    14  C    0.467815
    15  O   -0.506398
    16  O   -0.265904
    17  N   -0.328523
    18  C    0.121612
    19  C    0.068642
    20  C   -0.059652
    21  C    0.160319
    22  C   -0.030121
    23  C    0.331605
    24  O   -0.529915
    25  C   -0.026714
    26  N   -0.252501
    27  C    0.146299
    28  C   -0.003745
    29  C    0.005952
    30  C    0.111493
    31  C   -0.058033
    32  C   -0.045946
    33  C   -0.055048
    34  N   -0.309674
    35  C    0.075327
    36  C    0.005732
    37  C   -0.097852
    38  C    0.103489
    39  C   -0.043144
    40  C    0.342365
    41  O   -0.527286
    42  C    0.064249
    43  C    0.487311
    44  O   -0.529664
    45  O   -0.267649
    46  C    0.070916
    47  C    0.107408
    48  C   -0.082956
    49  C   -0.002878
    50  C   -0.052264
    51  C   -0.032718
    52  C   -0.032746
    53  C   -0.039006
    54  C   -0.022180
    55  C   -0.057694
    56  C   -0.036688
    57  C   -0.039079
    58  C   -0.045451
    59  C   -0.009560
    60  C   -0.048406
    61  C   -0.037943
    62  C   -0.037095
    63  C   -0.049425
    64  C   -0.024969
    65  C   -0.051108
    66  C   -0.058605
    67  H    0.031002
    68  H    0.020059
    69  H    0.032592
    70  H    0.030552
    71  H    0.033998
    72  H    0.020015
    73  H    0.026950
    74  H    0.028245
    75  H    0.040398
    76  H    0.031225
    77  H    0.040808
    78  H    0.056215
    79  H    0.038676
    80  H    0.048117
    81  H    0.025576
    82  H    0.020905
    83  H    0.037907
    84  H    0.045197
    85  H    0.043086
    86  H    0.029428
    87  H    0.023803
    88  H    0.023614
    89  H    0.020583
    90  H    0.014274
    91  H    0.024455
    92  H    0.024058
    93  H    0.014757
    94  H    0.034242
    95  H    0.031527
    96  H    0.035062
    97  H    0.036506
    98  H    0.061257
    99  H    0.051776
   100  H    0.037331
   101  H    0.034236
   102  H    0.050039
   103  H    0.048736
   104  H    0.021788
   105  H    0.019436
   106  H    0.033495
   107  H    0.028747
   108  H    0.017192
   109  H    0.015991
   110  H    0.019972
   111  H    0.026969
   112  H    0.030115
   113  H    0.023379
   114  H    0.017731
   115  H    0.025925
   116  H    0.019948
   117  H    0.016475
   118  H    0.019741
   119  H    0.019889
   120  H    0.012997
   121  H    0.029647
   122  H    0.021633
   123  H    0.014072
   124  H    0.017083
   125  H    0.010518
   126  H    0.015049
   127  H    0.012688
   128  H    0.030377
   129  H    0.011895
   130  H    0.017239
   131  H    0.022400
   132  H    0.018123
   133  H    0.015474
   134  H    0.014257
   135  H    0.023143
   136  H    0.020678
   137  H    0.018936
   138  H    0.028174
   139  H    0.015425
   140  H    0.030548
 Sum of Mulliken charges =  -0.00000

 Dipole moment (field-independent basis, Debye):
    X=              0.6196    Y=              9.5348    Z=             -0.7256  Tot=              9.5825
 N-N= 4.309812161871D+03 E-N= 0.000000000000D+00  KE=-9.293077092072D+03
 Leave Link  601 at Thu May  5 06:43:36 2022, MaxMem=  6710886400 cpu:               3.3 elap:               0.2
 (Enter /sw/apps/gaussian-16.0/g16/l9999.exe)
 1\1\GINC-BP1-COMPUTE183\SP\RZINDO CIS\STO-3G\C55H74Mg1N4O6\OF15641\05-
 May-2022\0\\#p ZINDO=(nstates=5)\\step_701_chromophore_14 ZINDO\\0,1\M
 g,0,46.852,44.643,44.017\C,0,43.394,44.22,43.526\C,0,47.225,41.203,43.
 159\C,0,50.139,45.009,43.53\C,0,46.329,48.106,43.994\N,0,45.5,42.985,4
 3.33\C,0,44.11,43.068,43.279\C,0,43.515,41.713,43.023\C,0,44.694,40.74
 3,42.974\C,0,45.892,41.676,43.198\C,0,44.61,39.542,43.934\C,0,42.543,4
 1.538,41.803\C,0,43.132,42.233,40.573\C,0,42.903,41.547,39.21\O,0,42.1

 Normal termination of Gaussian 16 at Thu May  5 06:43:36 2022.
