 Gaussian 16, Revision A.03,
 Gaussian 16:  ES64L-G16RevA.03 25-Dec-2016

 ------------------------------
 #p blyp/Def2SVP td=(nstates=5)
 ------------------------------

 ---------------------------------------------------
 step_1451_chromophore_17 TDDFT with blyp functional
 ---------------------------------------------------
 Symbolic Z-matrix:
 Charge =  0 Multiplicity = 1

                         Standard orientation:
 ---------------------------------------------------------------------
 Center     Atomic      Atomic             Coordinates (Angstroms)
 Number     Number       Type             X           Y           Z
 ---------------------------------------------------------------------
      1         12           0        4.816019    1.335423   -0.421591
      2          6           0        4.081712   -2.176282   -0.437544
      3          6           0        2.271771    1.705741   -2.749391
      4          6           0        4.763767    4.558525    0.365661
      5          6           0        6.904632    0.678691    2.353083
      6          7           0        3.296359   -0.126770   -1.459740
      7          6           0        3.281785   -1.487406   -1.362519
      8          6           0        2.319591   -2.091727   -2.367810
      9          6           0        2.051791   -0.844779   -3.332257
     10          6           0        2.602894    0.353814   -2.483412
     11          6           0        2.433872   -0.884015   -4.800125
     12          6           0        1.060650   -2.735955   -1.612821
     13          6           0        0.646560   -4.209132   -2.137400
     14          6           0       -0.214909   -4.985659   -1.127339
     15          8           0       -0.086316   -6.175746   -0.902861
     16          8           0       -1.307688   -4.215718   -0.600396
     17          7           0        3.690604    2.938319   -1.160219
     18          6           0        2.667407    2.940816   -2.120887
     19          6           0        2.256210    4.315556   -2.347095
     20          6           0        3.032996    5.114137   -1.483568
     21          6           0        3.838544    4.231373   -0.653128
     22          6           0        1.211681    4.718301   -3.356369
     23          6           0        3.025969    6.614425   -1.531243
     24          8           0        2.387549    7.170869   -2.417929
     25          6           0        3.783260    7.562076   -0.526450
     26          7           0        5.816762    2.398732    1.007802
     27          6           0        5.723099    3.734567    1.041603
     28          6           0        6.521376    4.357271    2.264194
     29          6           0        7.261295    3.115953    2.808332
     30          6           0        6.653318    2.007406    1.966113
     31          6           0        7.373952    5.692120    2.030905
     32          6           0        7.218682    2.955783    4.378049
     33          6           0        5.940880    2.184835    4.903213
     34          7           0        5.531821   -0.398218    0.723475
     35          6           0        6.427074   -0.532052    1.716233
     36          6           0        6.578079   -1.908779    2.119070
     37          6           0        5.607209   -2.585370    1.309828
     38          6           0        5.029708   -1.626811    0.474120
     39          6           0        7.576678   -2.408064    3.088179
     40          6           0        4.948427   -3.859636    0.990317
     41          8           0        5.077483   -4.962058    1.534332
     42          6           0        4.060524   -3.726704   -0.259686
     43          6           0        4.692340   -4.486380   -1.412377
     44          8           0        5.794913   -4.197961   -1.856381
     45          8           0        3.849626   -5.490875   -1.740022
     46          6           0        4.239248   -6.344921   -2.892725
     47          6           0       -2.238316   -5.003429    0.254936
     48          6           0       -3.247844   -4.004286    0.925261
     49          6           0       -4.106187   -4.234959    1.921835
     50          6           0       -4.307908   -5.567453    2.594766
     51          6           0       -5.006635   -3.166441    2.474607
     52          6           0       -6.194932   -2.857289    1.595860
     53          6           0       -6.422328   -1.394149    1.344079
     54          6           0       -7.938532   -1.084477    1.268368
     55          6           0       -8.530038   -0.966488    2.756825
     56          6           0       -8.075737    0.273489    0.570688
     57          6           0       -8.442067    0.124936   -0.902947
     58          6           0       -8.468400    1.479803   -1.592639
     59          6           0       -9.873110    1.925049   -2.180187
     60          6           0       -9.512730    2.601624   -3.545182
     61          6           0      -10.730675    2.810202   -1.203486
     62          6           0      -12.091031    2.071506   -0.636890
     63          6           0      -12.123725    1.881030    0.901313
     64          6           0      -13.326434    2.425717    1.706685
     65          6           0      -12.937961    2.968022    3.075200
     66          6           0      -14.309033    1.267132    1.768248
     67          1           0        1.580796    1.910512   -3.569860
     68          1           0        4.718364    5.611238    0.652342
     69          1           0        7.573532    0.522168    3.202358
     70          1           0        2.733457   -2.911412   -2.954057
     71          1           0        0.984494   -0.629968   -3.403850
     72          1           0        2.962784   -1.823606   -4.961218
     73          1           0        3.003860   -0.070399   -5.249678
     74          1           0        1.474760   -0.942705   -5.314953
     75          1           0        0.190868   -2.115292   -1.826377
     76          1           0        1.277081   -2.816446   -0.547369
     77          1           0        1.533251   -4.829010   -2.271537
     78          1           0        0.103943   -4.036067   -3.067297
     79          1           0        0.347131    4.996161   -2.753737
     80          1           0        0.959411    3.850395   -3.964995
     81          1           0        1.583930    5.355705   -4.158914
     82          1           0        3.297062    7.484180    0.445476
     83          1           0        3.554555    8.532601   -0.965244
     84          1           0        4.848236    7.355210   -0.422803
     85          1           0        5.890429    4.723747    3.073358
     86          1           0        8.277320    3.223164    2.428564
     87          1           0        6.717707    6.554385    1.907818
     88          1           0        7.946149    5.484922    1.127149
     89          1           0        8.043401    5.811681    2.882283
     90          1           0        7.210697    3.970877    4.774850
     91          1           0        8.165925    2.478694    4.630132
     92          1           0        5.575150    2.727169    5.775592
     93          1           0        5.968491    1.117723    5.123959
     94          1           0        5.106493    2.403451    4.236641
     95          1           0        7.993129   -3.336339    2.694822
     96          1           0        7.231242   -2.785701    4.051266
     97          1           0        8.358005   -1.694656    3.350328
     98          1           0        3.023541   -3.982195   -0.041532
     99          1           0        3.864744   -6.091415   -3.884796
    100          1           0        3.898270   -7.367694   -2.733253
    101          1           0        5.315146   -6.489435   -2.992238
    102          1           0       -1.638384   -5.285497    1.120419
    103          1           0       -2.801034   -5.850067   -0.138608
    104          1           0       -3.302253   -2.998342    0.508155
    105          1           0       -5.352660   -5.841169    2.440076
    106          1           0       -4.057043   -5.684919    3.648418
    107          1           0       -3.690196   -6.299469    2.074240
    108          1           0       -4.445868   -2.256840    2.688054
    109          1           0       -5.389553   -3.446233    3.455460
    110          1           0       -7.013889   -3.351631    2.118817
    111          1           0       -5.991351   -3.234579    0.592829
    112          1           0       -5.856191   -1.023025    0.489313
    113          1           0       -5.985874   -0.742330    2.100477
    114          1           0       -8.498132   -1.916203    0.841091
    115          1           0       -8.010163   -1.689946    3.384821
    116          1           0       -9.591633   -1.174667    2.891524
    117          1           0       -8.342202    0.068542    3.042571
    118          1           0       -7.078230    0.708879    0.516345
    119          1           0       -8.834752    0.872081    1.073064
    120          1           0       -9.460684   -0.255613   -0.973230
    121          1           0       -7.728101   -0.527990   -1.404662
    122          1           0       -7.763778    1.418136   -2.422426
    123          1           0       -8.134743    2.244287   -0.891270
    124          1           0      -10.449072    1.030712   -2.418173
    125          1           0       -8.746779    2.022489   -4.061674
    126          1           0       -9.165519    3.620691   -3.373840
    127          1           0      -10.444552    2.483187   -4.097567
    128          1           0      -10.949895    3.697975   -1.796657
    129          1           0      -10.054818    3.133885   -0.412168
    130          1           0      -12.113059    1.070837   -1.065959
    131          1           0      -12.895991    2.692697   -1.029384
    132          1           0      -11.308424    2.323884    1.472901
    133          1           0      -11.946733    0.820386    1.082607
    134          1           0      -13.874985    3.212883    1.188602
    135          1           0      -12.109265    3.668557    2.964050
    136          1           0      -12.524698    2.208092    3.737398
    137          1           0      -13.735397    3.571354    3.508915
    138          1           0      -14.892085    1.278745    2.688944
    139          1           0      -13.882739    0.271442    1.888914
    140          1           0      -15.048918    1.245975    0.967738
 ---------------------------------------------------------------------

 SCF Done:  E(RB-LYP) =  -3007.37459878     A.U. after   23 cycles

 Excitation energies and oscillator strengths:

 Excited State   1:      Singlet-A      1.7863 eV  694.07 nm  f=0.0079  <S**2>=0.000
     244 -> 247        0.64295
     245 -> 247        0.27135
 This state for optimization and/or second-order correction.
 Total Energy, E(TD-HF/TD-DFT) =  -3007.30895242
 Copying the excited state density for this state as the 1-particle RhoCI density.

 Excited State   2:      Singlet-A      1.8486 eV  670.70 nm  f=0.2992  <S**2>=0.000
     245 -> 248        0.20569
     246 -> 247        0.67602
     246 <- 247       -0.13843

 Excited State   3:      Singlet-A      1.8864 eV  657.24 nm  f=0.0005  <S**2>=0.000
     243 -> 247        0.70246

 Excited State   4:      Singlet-A      2.0071 eV  617.74 nm  f=0.0729  <S**2>=0.000
     244 -> 247       -0.26913
     245 -> 247        0.59230
     246 -> 248       -0.23212

 Excited State   5:      Singlet-A      2.1971 eV  564.32 nm  f=0.0000  <S**2>=0.000
     242 -> 247        0.70709

 The electronic state is 1-A.
 Alpha  occ. eigenvalues --  -46.28524 -18.84095 -18.81824 -18.77491 -18.77332
 Alpha  occ. eigenvalues --  -18.75375 -18.75030 -14.03947 -14.03220 -14.01143
 Alpha  occ. eigenvalues --  -14.00622 -10.04843 -10.04467  -9.99827  -9.99382
 Alpha  occ. eigenvalues --   -9.98486  -9.98172  -9.97362  -9.96888  -9.96543
 Alpha  occ. eigenvalues --   -9.96438  -9.96082  -9.96007  -9.95237  -9.94916
 Alpha  occ. eigenvalues --   -9.94427  -9.94397  -9.94304  -9.94156  -9.94132
 Alpha  occ. eigenvalues --   -9.94023  -9.93953  -9.93943  -9.93773  -9.93757
 Alpha  occ. eigenvalues --   -9.93665  -9.93532  -9.93199  -9.93188  -9.92763
 Alpha  occ. eigenvalues --   -9.92701  -9.92514  -9.92293  -9.92244  -9.92227
 Alpha  occ. eigenvalues --   -9.92109  -9.92030  -9.91994  -9.91914  -9.91788
 Alpha  occ. eigenvalues --   -9.91704  -9.91539  -9.91462  -9.91416  -9.91266
 Alpha  occ. eigenvalues --   -9.90961  -9.90936  -9.90923  -9.90887  -9.90867
 Alpha  occ. eigenvalues --   -9.90824  -9.90634  -9.90541  -9.90319  -9.90153
 Alpha  occ. eigenvalues --   -9.90066  -2.92993  -1.73403  -1.72905  -1.72688
 Alpha  occ. eigenvalues --   -0.98675  -0.96242  -0.91375  -0.90941  -0.90098
 Alpha  occ. eigenvalues --   -0.89346  -0.87934  -0.86655  -0.86031  -0.84086
 Alpha  occ. eigenvalues --   -0.75254  -0.73902  -0.72596  -0.72540  -0.72099
 Alpha  occ. eigenvalues --   -0.71968  -0.71368  -0.70670  -0.70557  -0.69668
 Alpha  occ. eigenvalues --   -0.69368  -0.68938  -0.67993  -0.67526  -0.66983
 Alpha  occ. eigenvalues --   -0.65987  -0.65748  -0.65016  -0.64606  -0.64295
 Alpha  occ. eigenvalues --   -0.63706  -0.62519  -0.62230  -0.61925  -0.61129
 Alpha  occ. eigenvalues --   -0.60451  -0.60106  -0.59981  -0.58879  -0.58643
 Alpha  occ. eigenvalues --   -0.57774  -0.57349  -0.56642  -0.55941  -0.55780
 Alpha  occ. eigenvalues --   -0.53974  -0.53376  -0.52824  -0.52276  -0.51713
 Alpha  occ. eigenvalues --   -0.51391  -0.50968  -0.50408  -0.50366  -0.49698
 Alpha  occ. eigenvalues --   -0.49419  -0.49332  -0.49148  -0.48563  -0.46211
 Alpha  occ. eigenvalues --   -0.46106  -0.45781  -0.45304  -0.45002  -0.44866
 Alpha  occ. eigenvalues --   -0.43945  -0.43468  -0.43160  -0.42792  -0.42312
 Alpha  occ. eigenvalues --   -0.42187  -0.41964  -0.41716  -0.41505  -0.41363
 Alpha  occ. eigenvalues --   -0.40809  -0.40462  -0.40284  -0.40110  -0.40094
 Alpha  occ. eigenvalues --   -0.39952  -0.39800  -0.39601  -0.39313  -0.39284
 Alpha  occ. eigenvalues --   -0.38916  -0.38646  -0.38502  -0.38446  -0.37957
 Alpha  occ. eigenvalues --   -0.37820  -0.37740  -0.37515  -0.37259  -0.37183
 Alpha  occ. eigenvalues --   -0.37054  -0.36762  -0.36666  -0.36417  -0.36360
 Alpha  occ. eigenvalues --   -0.36272  -0.36004  -0.35619  -0.35475  -0.35437
 Alpha  occ. eigenvalues --   -0.35255  -0.35230  -0.34895  -0.34670  -0.34377
 Alpha  occ. eigenvalues --   -0.34352  -0.34144  -0.34109  -0.33903  -0.33824
 Alpha  occ. eigenvalues --   -0.33654  -0.33582  -0.33532  -0.33419  -0.33192
 Alpha  occ. eigenvalues --   -0.32992  -0.32808  -0.32770  -0.32414  -0.32377
 Alpha  occ. eigenvalues --   -0.32002  -0.31760  -0.31527  -0.31432  -0.31286
 Alpha  occ. eigenvalues --   -0.31095  -0.30930  -0.30816  -0.30776  -0.30653
 Alpha  occ. eigenvalues --   -0.30600  -0.30479  -0.30362  -0.30300  -0.29951
 Alpha  occ. eigenvalues --   -0.29461  -0.29339  -0.29212  -0.29162  -0.28932
 Alpha  occ. eigenvalues --   -0.28792  -0.28562  -0.28478  -0.28195  -0.28077
 Alpha  occ. eigenvalues --   -0.27942  -0.27619  -0.27153  -0.26899  -0.26626
 Alpha  occ. eigenvalues --   -0.26505  -0.26343  -0.25923  -0.25504  -0.25450
 Alpha  occ. eigenvalues --   -0.25123  -0.25090  -0.23830  -0.23802  -0.23427
 Alpha  occ. eigenvalues --   -0.22908  -0.22800  -0.22170  -0.21782  -0.20371
 Alpha  occ. eigenvalues --   -0.20038  -0.19729  -0.18514  -0.18183  -0.17192
 Alpha  occ. eigenvalues --   -0.16139
 Alpha virt. eigenvalues --   -0.11655  -0.07195  -0.06031  -0.04640  -0.03778
 Alpha virt. eigenvalues --   -0.03410  -0.02971  -0.01454  -0.00927  -0.00360
 Alpha virt. eigenvalues --    0.00865   0.01520   0.02309   0.02344   0.02867

 Mulliken charges:
               1
     1  Mg   0.700152
     2  C   -0.037851
     3  C   -0.041704
     4  C   -0.056250
     5  C   -0.063453
     6  N   -0.154373
     7  C   -0.105389
     8  C    0.029248
     9  C   -0.014086
    10  C    0.026529
    11  C    0.141852
    12  C    0.078554
    13  C    0.094358
    14  C    0.098110
    15  O   -0.168616
    16  O   -0.321617
    17  N   -0.339201
    18  C    0.101529
    19  C   -0.140520
    20  C    0.068252
    21  C    0.124170
    22  C    0.219158
    23  C   -0.112638
    24  O   -0.170201
    25  C    0.117333
    26  N   -0.210201
    27  C    0.079126
    28  C   -0.073239
    29  C    0.083420
    30  C   -0.008684
    31  C    0.091765
    32  C    0.100224
    33  C    0.071946
    34  N   -0.203495
    35  C    0.067015
    36  C   -0.152222
    37  C    0.109381
    38  C    0.093576
    39  C    0.159637
    40  C   -0.087641
    41  O   -0.149893
    42  C    0.108772
    43  C    0.147245
    44  O   -0.173696
    45  O   -0.246731
    46  C    0.205805
    47  C    0.315821
    48  C   -0.121851
    49  C   -0.149388
    50  C    0.140582
    51  C    0.137464
    52  C    0.119512
    53  C    0.065830
    54  C   -0.067311
    55  C    0.077514
    56  C    0.102174
    57  C    0.074353
    58  C    0.113248
    59  C   -0.128235
    60  C    0.105135
    61  C    0.117600
    62  C    0.095214
    63  C    0.088759
    64  C   -0.072162
    65  C    0.107151
    66  C    0.104742
    67  H   -0.068074
    68  H   -0.086242
    69  H   -0.069657
    70  H   -0.023307
    71  H   -0.029879
    72  H   -0.014086
    73  H    0.002714
    74  H   -0.014056
    75  H   -0.005833
    76  H    0.004972
    77  H    0.012217
    78  H    0.014161
    79  H    0.016928
    80  H   -0.050452
    81  H    0.013683
    82  H    0.011446
    83  H   -0.005047
    84  H    0.019476
    85  H   -0.019974
    86  H   -0.035050
    87  H    0.010279
    88  H   -0.005305
    89  H   -0.002900
    90  H   -0.019303
    91  H   -0.012032
    92  H   -0.022218
    93  H    0.015717
    94  H   -0.007620
    95  H    0.004533
    96  H   -0.005536
    97  H   -0.012395
    98  H   -0.010294
    99  H    0.018379
   100  H    0.019001
   101  H    0.022627
   102  H    0.008847
   103  H    0.028508
   104  H   -0.041345
   105  H   -0.006963
   106  H    0.005905
   107  H   -0.031099
   108  H   -0.028720
   109  H   -0.048121
   110  H   -0.021670
   111  H   -0.021748
   112  H   -0.036859
   113  H   -0.045036
   114  H   -0.036404
   115  H   -0.025101
   116  H   -0.010603
   117  H   -0.012253
   118  H   -0.029874
   119  H   -0.026350
   120  H   -0.037603
   121  H   -0.036659
   122  H   -0.050352
   123  H   -0.037027
   124  H   -0.038241
   125  H   -0.017075
   126  H   -0.004496
   127  H   -0.019660
   128  H   -0.040734
   129  H   -0.030489
   130  H   -0.019001
   131  H   -0.019065
   132  H   -0.041621
   133  H   -0.032019
   134  H   -0.036018
   135  H   -0.023410
   136  H   -0.015327
   137  H   -0.011796
   138  H   -0.044096
   139  H   -0.030497
   140  H   -0.014407
 Sum of Mulliken charges =  -0.00000

 Dipole moment (field-independent basis, Debye):
    X=             -0.3658    Y=              1.9238    Z=              0.0434  Tot=              1.9587
 Quadrupole moment (field-independent basis, Debye-Ang):
   XX=           -383.7722   YY=           -438.9875   ZZ=           -387.1237
   XY=             30.7209   XZ=              5.9382   YZ=             34.6228

 Normal termination of Gaussian 16 at Thu Apr 28 05:45:55 2022.
