 Gaussian 16, Revision A.03,
 Gaussian 16:  ES64L-G16RevA.03 25-Dec-2016

 -----------------------------------
 #p cam-b3lyp/Def2SVP td=(nstates=5)
 -----------------------------------

 --------------------------------------------------------
 step_1451_chromophore_17 TDDFT with cam-b3lyp functional
 --------------------------------------------------------
 Symbolic Z-matrix:
 Charge =  0 Multiplicity = 1

                         Standard orientation:
 ---------------------------------------------------------------------
 Center     Atomic      Atomic             Coordinates (Angstroms)
 Number     Number       Type             X           Y           Z
 ---------------------------------------------------------------------
      1         12           0        4.816019    1.335423   -0.421591
      2          6           0        4.081712   -2.176282   -0.437544
      3          6           0        2.271771    1.705741   -2.749391
      4          6           0        4.763767    4.558525    0.365661
      5          6           0        6.904632    0.678691    2.353083
      6          7           0        3.296359   -0.126770   -1.459740
      7          6           0        3.281785   -1.487406   -1.362519
      8          6           0        2.319591   -2.091727   -2.367810
      9          6           0        2.051791   -0.844779   -3.332257
     10          6           0        2.602894    0.353814   -2.483412
     11          6           0        2.433872   -0.884015   -4.800125
     12          6           0        1.060650   -2.735955   -1.612821
     13          6           0        0.646560   -4.209132   -2.137400
     14          6           0       -0.214909   -4.985659   -1.127339
     15          8           0       -0.086316   -6.175746   -0.902861
     16          8           0       -1.307688   -4.215718   -0.600396
     17          7           0        3.690604    2.938319   -1.160219
     18          6           0        2.667407    2.940816   -2.120887
     19          6           0        2.256210    4.315556   -2.347095
     20          6           0        3.032996    5.114137   -1.483568
     21          6           0        3.838544    4.231373   -0.653128
     22          6           0        1.211681    4.718301   -3.356369
     23          6           0        3.025969    6.614425   -1.531243
     24          8           0        2.387549    7.170869   -2.417929
     25          6           0        3.783260    7.562076   -0.526450
     26          7           0        5.816762    2.398732    1.007802
     27          6           0        5.723099    3.734567    1.041603
     28          6           0        6.521376    4.357271    2.264194
     29          6           0        7.261295    3.115953    2.808332
     30          6           0        6.653318    2.007406    1.966113
     31          6           0        7.373952    5.692120    2.030905
     32          6           0        7.218682    2.955783    4.378049
     33          6           0        5.940880    2.184835    4.903213
     34          7           0        5.531821   -0.398218    0.723475
     35          6           0        6.427074   -0.532052    1.716233
     36          6           0        6.578079   -1.908779    2.119070
     37          6           0        5.607209   -2.585370    1.309828
     38          6           0        5.029708   -1.626811    0.474120
     39          6           0        7.576678   -2.408064    3.088179
     40          6           0        4.948427   -3.859636    0.990317
     41          8           0        5.077483   -4.962058    1.534332
     42          6           0        4.060524   -3.726704   -0.259686
     43          6           0        4.692340   -4.486380   -1.412377
     44          8           0        5.794913   -4.197961   -1.856381
     45          8           0        3.849626   -5.490875   -1.740022
     46          6           0        4.239248   -6.344921   -2.892725
     47          6           0       -2.238316   -5.003429    0.254936
     48          6           0       -3.247844   -4.004286    0.925261
     49          6           0       -4.106187   -4.234959    1.921835
     50          6           0       -4.307908   -5.567453    2.594766
     51          6           0       -5.006635   -3.166441    2.474607
     52          6           0       -6.194932   -2.857289    1.595860
     53          6           0       -6.422328   -1.394149    1.344079
     54          6           0       -7.938532   -1.084477    1.268368
     55          6           0       -8.530038   -0.966488    2.756825
     56          6           0       -8.075737    0.273489    0.570688
     57          6           0       -8.442067    0.124936   -0.902947
     58          6           0       -8.468400    1.479803   -1.592639
     59          6           0       -9.873110    1.925049   -2.180187
     60          6           0       -9.512730    2.601624   -3.545182
     61          6           0      -10.730675    2.810202   -1.203486
     62          6           0      -12.091031    2.071506   -0.636890
     63          6           0      -12.123725    1.881030    0.901313
     64          6           0      -13.326434    2.425717    1.706685
     65          6           0      -12.937961    2.968022    3.075200
     66          6           0      -14.309033    1.267132    1.768248
     67          1           0        1.580796    1.910512   -3.569860
     68          1           0        4.718364    5.611238    0.652342
     69          1           0        7.573532    0.522168    3.202358
     70          1           0        2.733457   -2.911412   -2.954057
     71          1           0        0.984494   -0.629968   -3.403850
     72          1           0        2.962784   -1.823606   -4.961218
     73          1           0        3.003860   -0.070399   -5.249678
     74          1           0        1.474760   -0.942705   -5.314953
     75          1           0        0.190868   -2.115292   -1.826377
     76          1           0        1.277081   -2.816446   -0.547369
     77          1           0        1.533251   -4.829010   -2.271537
     78          1           0        0.103943   -4.036067   -3.067297
     79          1           0        0.347131    4.996161   -2.753737
     80          1           0        0.959411    3.850395   -3.964995
     81          1           0        1.583930    5.355705   -4.158914
     82          1           0        3.297062    7.484180    0.445476
     83          1           0        3.554555    8.532601   -0.965244
     84          1           0        4.848236    7.355210   -0.422803
     85          1           0        5.890429    4.723747    3.073358
     86          1           0        8.277320    3.223164    2.428564
     87          1           0        6.717707    6.554385    1.907818
     88          1           0        7.946149    5.484922    1.127149
     89          1           0        8.043401    5.811681    2.882283
     90          1           0        7.210697    3.970877    4.774850
     91          1           0        8.165925    2.478694    4.630132
     92          1           0        5.575150    2.727169    5.775592
     93          1           0        5.968491    1.117723    5.123959
     94          1           0        5.106493    2.403451    4.236641
     95          1           0        7.993129   -3.336339    2.694822
     96          1           0        7.231242   -2.785701    4.051266
     97          1           0        8.358005   -1.694656    3.350328
     98          1           0        3.023541   -3.982195   -0.041532
     99          1           0        3.864744   -6.091415   -3.884796
    100          1           0        3.898270   -7.367694   -2.733253
    101          1           0        5.315146   -6.489435   -2.992238
    102          1           0       -1.638384   -5.285497    1.120419
    103          1           0       -2.801034   -5.850067   -0.138608
    104          1           0       -3.302253   -2.998342    0.508155
    105          1           0       -5.352660   -5.841169    2.440076
    106          1           0       -4.057043   -5.684919    3.648418
    107          1           0       -3.690196   -6.299469    2.074240
    108          1           0       -4.445868   -2.256840    2.688054
    109          1           0       -5.389553   -3.446233    3.455460
    110          1           0       -7.013889   -3.351631    2.118817
    111          1           0       -5.991351   -3.234579    0.592829
    112          1           0       -5.856191   -1.023025    0.489313
    113          1           0       -5.985874   -0.742330    2.100477
    114          1           0       -8.498132   -1.916203    0.841091
    115          1           0       -8.010163   -1.689946    3.384821
    116          1           0       -9.591633   -1.174667    2.891524
    117          1           0       -8.342202    0.068542    3.042571
    118          1           0       -7.078230    0.708879    0.516345
    119          1           0       -8.834752    0.872081    1.073064
    120          1           0       -9.460684   -0.255613   -0.973230
    121          1           0       -7.728101   -0.527990   -1.404662
    122          1           0       -7.763778    1.418136   -2.422426
    123          1           0       -8.134743    2.244287   -0.891270
    124          1           0      -10.449072    1.030712   -2.418173
    125          1           0       -8.746779    2.022489   -4.061674
    126          1           0       -9.165519    3.620691   -3.373840
    127          1           0      -10.444552    2.483187   -4.097567
    128          1           0      -10.949895    3.697975   -1.796657
    129          1           0      -10.054818    3.133885   -0.412168
    130          1           0      -12.113059    1.070837   -1.065959
    131          1           0      -12.895991    2.692697   -1.029384
    132          1           0      -11.308424    2.323884    1.472901
    133          1           0      -11.946733    0.820386    1.082607
    134          1           0      -13.874985    3.212883    1.188602
    135          1           0      -12.109265    3.668557    2.964050
    136          1           0      -12.524698    2.208092    3.737398
    137          1           0      -13.735397    3.571354    3.508915
    138          1           0      -14.892085    1.278745    2.688944
    139          1           0      -13.882739    0.271442    1.888914
    140          1           0      -15.048918    1.245975    0.967738
 ---------------------------------------------------------------------

 SCF Done:  E(RCAM-B3LYP) =  -3007.15742230     A.U. after   17 cycles

 Excitation energies and oscillator strengths:

 Excited State   1:      Singlet-A      1.7642 eV  702.78 nm  f=0.3824  <S**2>=0.000
     245 -> 248        0.19133
     246 -> 247        0.68112
     245 <- 248        0.10615
 This state for optimization and/or second-order correction.
 Total Energy, E(TD-HF/TD-DFT) =  -3007.09258898
 Copying the excited state density for this state as the 1-particle RhoCI density.

 Excited State   2:      Singlet-A      2.1974 eV  564.22 nm  f=0.1185  <S**2>=0.000
     245 -> 247        0.64185
     246 -> 248       -0.28003

 Excited State   3:      Singlet-A      3.2891 eV  376.95 nm  f=0.0058  <S**2>=0.000
     242 -> 247        0.43947
     244 -> 247        0.53180

 Excited State   4:      Singlet-A      3.3911 eV  365.62 nm  f=0.0207  <S**2>=0.000
     241 -> 247       -0.14881
     242 -> 247        0.43932
     244 -> 247       -0.42132
     246 -> 248       -0.27846

 Excited State   5:      Singlet-A      3.4410 eV  360.31 nm  f=0.0170  <S**2>=0.000
     241 -> 247        0.52750
     241 -> 249       -0.30210
     241 -> 251        0.22446
     242 -> 247        0.17093
     246 -> 248        0.10565

 The electronic state is 1-A.
 Alpha  occ. eigenvalues --  -46.90178 -19.27071 -19.24654 -19.20539 -19.20368
 Alpha  occ. eigenvalues --  -19.18820 -19.18041 -14.42752 -14.42202 -14.39747
 Alpha  occ. eigenvalues --  -14.38839 -10.40254 -10.39862 -10.35243 -10.34493
 Alpha  occ. eigenvalues --  -10.32551 -10.32219 -10.32174 -10.31526 -10.30890
 Alpha  occ. eigenvalues --  -10.30817 -10.30674 -10.30592 -10.29118 -10.29025
 Alpha  occ. eigenvalues --  -10.28693 -10.28428 -10.28419 -10.28409 -10.28384
 Alpha  occ. eigenvalues --  -10.28237 -10.28227 -10.28150 -10.27929 -10.27785
 Alpha  occ. eigenvalues --  -10.27683 -10.27516 -10.27353 -10.27096 -10.27065
 Alpha  occ. eigenvalues --  -10.26633 -10.26548 -10.26520 -10.26090 -10.26010
 Alpha  occ. eigenvalues --  -10.25845 -10.25832 -10.25648 -10.25551 -10.25455
 Alpha  occ. eigenvalues --  -10.25405 -10.25397 -10.25324 -10.25224 -10.25148
 Alpha  occ. eigenvalues --  -10.24572 -10.24563 -10.24540 -10.24529 -10.24528
 Alpha  occ. eigenvalues --  -10.24404 -10.24251 -10.24192 -10.23943 -10.23753
 Alpha  occ. eigenvalues --  -10.23713  -3.18540  -1.93428  -1.93021  -1.92813
 Alpha  occ. eigenvalues --   -1.17172  -1.14671  -1.09995  -1.08945  -1.08254
 Alpha  occ. eigenvalues --   -1.07110  -1.05652  -1.04354  -1.03457  -1.01835
 Alpha  occ. eigenvalues --   -0.92283  -0.90795  -0.89335  -0.89253  -0.88815
 Alpha  occ. eigenvalues --   -0.88662  -0.88151  -0.87273  -0.87125  -0.86222
 Alpha  occ. eigenvalues --   -0.85842  -0.85346  -0.84261  -0.83613  -0.83127
 Alpha  occ. eigenvalues --   -0.81914  -0.81735  -0.80879  -0.80703  -0.80263
 Alpha  occ. eigenvalues --   -0.79414  -0.78094  -0.77749  -0.77724  -0.76573
 Alpha  occ. eigenvalues --   -0.75828  -0.75434  -0.75256  -0.74127  -0.73874
 Alpha  occ. eigenvalues --   -0.72759  -0.72312  -0.71536  -0.70642  -0.70554
 Alpha  occ. eigenvalues --   -0.68498  -0.67912  -0.67390  -0.66654  -0.65771
 Alpha  occ. eigenvalues --   -0.65363  -0.65116  -0.64569  -0.64429  -0.63757
 Alpha  occ. eigenvalues --   -0.63358  -0.63045  -0.62856  -0.62492  -0.59890
 Alpha  occ. eigenvalues --   -0.59688  -0.59383  -0.58702  -0.58584  -0.58153
 Alpha  occ. eigenvalues --   -0.57431  -0.56717  -0.56267  -0.55953  -0.55581
 Alpha  occ. eigenvalues --   -0.55300  -0.54899  -0.54815  -0.54702  -0.54159
 Alpha  occ. eigenvalues --   -0.53631  -0.53237  -0.53098  -0.52959  -0.52670
 Alpha  occ. eigenvalues --   -0.52616  -0.52532  -0.52336  -0.52048  -0.51785
 Alpha  occ. eigenvalues --   -0.51460  -0.51388  -0.51103  -0.50849  -0.50479
 Alpha  occ. eigenvalues --   -0.50311  -0.50083  -0.49801  -0.49493  -0.49412
 Alpha  occ. eigenvalues --   -0.49235  -0.49016  -0.48879  -0.48720  -0.48544
 Alpha  occ. eigenvalues --   -0.48449  -0.48312  -0.48105  -0.48033  -0.47691
 Alpha  occ. eigenvalues --   -0.47461  -0.47181  -0.46712  -0.46610  -0.46415
 Alpha  occ. eigenvalues --   -0.46147  -0.46101  -0.45917  -0.45674  -0.45629
 Alpha  occ. eigenvalues --   -0.45513  -0.45422  -0.45223  -0.45137  -0.44865
 Alpha  occ. eigenvalues --   -0.44617  -0.44591  -0.44464  -0.43922  -0.43859
 Alpha  occ. eigenvalues --   -0.43743  -0.43555  -0.43272  -0.42997  -0.42812
 Alpha  occ. eigenvalues --   -0.42774  -0.42604  -0.42445  -0.42383  -0.42227
 Alpha  occ. eigenvalues --   -0.41899  -0.41848  -0.41706  -0.41582  -0.41324
 Alpha  occ. eigenvalues --   -0.40618  -0.40450  -0.40308  -0.40116  -0.39989
 Alpha  occ. eigenvalues --   -0.39788  -0.39570  -0.39516  -0.39273  -0.39030
 Alpha  occ. eigenvalues --   -0.38854  -0.38514  -0.37964  -0.37938  -0.37896
 Alpha  occ. eigenvalues --   -0.37699  -0.37132  -0.36823  -0.36698  -0.36328
 Alpha  occ. eigenvalues --   -0.35914  -0.35742  -0.34980  -0.34463  -0.34209
 Alpha  occ. eigenvalues --   -0.34101  -0.33263  -0.33123  -0.31229  -0.30951
 Alpha  occ. eigenvalues --   -0.30198  -0.29908  -0.29403  -0.29024  -0.23922
 Alpha  occ. eigenvalues --   -0.21509
 Alpha virt. eigenvalues --   -0.08780  -0.02095   0.00481   0.01596   0.02412
 Alpha virt. eigenvalues --    0.04056   0.04843   0.05325   0.06596   0.06724
 Alpha virt. eigenvalues --    0.07786   0.08273   0.08313   0.08743   0.08866

 Mulliken charges:
               1
     1  Mg   0.829082
     2  C   -0.060789
     3  C   -0.054181
     4  C   -0.079434
     5  C   -0.069701
     6  N   -0.221809
     7  C   -0.069902
     8  C   -0.014875
     9  C   -0.064331
    10  C    0.045920
    11  C    0.080073
    12  C    0.031994
    13  C    0.028805
    14  C    0.180288
    15  O   -0.207996
    16  O   -0.386555
    17  N   -0.425233
    18  C    0.109143
    19  C   -0.143445
    20  C   -0.005368
    21  C    0.156507
    22  C    0.164915
    23  C   -0.036470
    24  O   -0.209809
    25  C    0.041193
    26  N   -0.287219
    27  C    0.101124
    28  C   -0.124190
    29  C    0.025595
    30  C    0.011156
    31  C    0.044123
    32  C    0.041492
    33  C    0.009285
    34  N   -0.289983
    35  C    0.072951
    36  C   -0.152032
    37  C    0.031249
    38  C    0.126274
    39  C    0.106695
    40  C    0.011270
    41  O   -0.189551
    42  C    0.038894
    43  C    0.232118
    44  O   -0.211257
    45  O   -0.311887
    46  C    0.167048
    47  C    0.285492
    48  C   -0.138271
    49  C   -0.177619
    50  C    0.081762
    51  C    0.076782
    52  C    0.059368
    53  C    0.015864
    54  C   -0.126311
    55  C    0.028104
    56  C    0.048322
    57  C    0.026463
    58  C    0.056719
    59  C   -0.179176
    60  C    0.046084
    61  C    0.064692
    62  C    0.042115
    63  C    0.035055
    64  C   -0.133951
    65  C    0.046198
    66  C    0.043857
    67  H   -0.032782
    68  H   -0.051831
    69  H   -0.034950
    70  H    0.007923
    71  H    0.004990
    72  H    0.011110
    73  H    0.029313
    74  H    0.010228
    75  H    0.024513
    76  H    0.033035
    77  H    0.040978
    78  H    0.043927
    79  H    0.044285
    80  H   -0.022654
    81  H    0.043395
    82  H    0.038982
    83  H    0.031821
    84  H    0.044617
    85  H    0.013145
    86  H    0.001363
    87  H    0.029881
    88  H    0.018141
    89  H    0.021218
    90  H    0.008183
    91  H    0.015892
    92  H    0.002905
    93  H    0.039138
    94  H    0.015001
    95  H    0.029804
    96  H    0.020396
    97  H    0.010877
    98  H    0.031427
    99  H    0.037975
   100  H    0.042887
   101  H    0.048798
   102  H    0.036520
   103  H    0.052829
   104  H   -0.007285
   105  H    0.016413
   106  H    0.031073
   107  H   -0.006947
   108  H    0.003200
   109  H   -0.016045
   110  H    0.005251
   111  H    0.008551
   112  H   -0.008562
   113  H   -0.015386
   114  H   -0.003769
   115  H   -0.003024
   116  H    0.012602
   117  H    0.010006
   118  H   -0.002066
   119  H   -0.001688
   120  H   -0.011854
   121  H   -0.008391
   122  H   -0.018979
   123  H   -0.009015
   124  H   -0.007869
   125  H    0.007093
   126  H    0.017866
   127  H    0.005317
   128  H   -0.009987
   129  H   -0.004099
   130  H    0.007607
   131  H    0.008693
   132  H   -0.015313
   133  H   -0.005992
   134  H   -0.003993
   135  H    0.001482
   136  H    0.008181
   137  H    0.013487
   138  H   -0.017307
   139  H   -0.005813
   140  H    0.010556
 Sum of Mulliken charges =  -0.00000

 Dipole moment (field-independent basis, Debye):
    X=             -0.5948    Y=              2.7545    Z=             -0.3700  Tot=              2.8422
 Quadrupole moment (field-independent basis, Debye-Ang):
   XX=           -386.1179   YY=           -434.2737   ZZ=           -384.9599
   XY=             34.8525   XZ=              4.7020   YZ=             35.9754

 Normal termination of Gaussian 16 at Thu Apr 28 04:22:24 2022.
