 Gaussian 16, Revision A.03,
 Gaussian 16:  ES64L-G16RevA.03 25-Dec-2016

 ---------------------------------
 #p PBE1PBE/Def2SVP td=(nstates=5)
 ---------------------------------

 ------------------------------------------------------
 step_1451_chromophore_17 TDDFT with PBE1PBE functional
 ------------------------------------------------------
 Symbolic Z-matrix:
 Charge =  0 Multiplicity = 1

                         Standard orientation:
 ---------------------------------------------------------------------
 Center     Atomic      Atomic             Coordinates (Angstroms)
 Number     Number       Type             X           Y           Z
 ---------------------------------------------------------------------
      1         12           0        4.816019    1.335423   -0.421591
      2          6           0        4.081712   -2.176282   -0.437544
      3          6           0        2.271771    1.705741   -2.749391
      4          6           0        4.763767    4.558525    0.365661
      5          6           0        6.904632    0.678691    2.353083
      6          7           0        3.296359   -0.126770   -1.459740
      7          6           0        3.281785   -1.487406   -1.362519
      8          6           0        2.319591   -2.091727   -2.367810
      9          6           0        2.051791   -0.844779   -3.332257
     10          6           0        2.602894    0.353814   -2.483412
     11          6           0        2.433872   -0.884015   -4.800125
     12          6           0        1.060650   -2.735955   -1.612821
     13          6           0        0.646560   -4.209132   -2.137400
     14          6           0       -0.214909   -4.985659   -1.127339
     15          8           0       -0.086316   -6.175746   -0.902861
     16          8           0       -1.307688   -4.215718   -0.600396
     17          7           0        3.690604    2.938319   -1.160219
     18          6           0        2.667407    2.940816   -2.120887
     19          6           0        2.256210    4.315556   -2.347095
     20          6           0        3.032996    5.114137   -1.483568
     21          6           0        3.838544    4.231373   -0.653128
     22          6           0        1.211681    4.718301   -3.356369
     23          6           0        3.025969    6.614425   -1.531243
     24          8           0        2.387549    7.170869   -2.417929
     25          6           0        3.783260    7.562076   -0.526450
     26          7           0        5.816762    2.398732    1.007802
     27          6           0        5.723099    3.734567    1.041603
     28          6           0        6.521376    4.357271    2.264194
     29          6           0        7.261295    3.115953    2.808332
     30          6           0        6.653318    2.007406    1.966113
     31          6           0        7.373952    5.692120    2.030905
     32          6           0        7.218682    2.955783    4.378049
     33          6           0        5.940880    2.184835    4.903213
     34          7           0        5.531821   -0.398218    0.723475
     35          6           0        6.427074   -0.532052    1.716233
     36          6           0        6.578079   -1.908779    2.119070
     37          6           0        5.607209   -2.585370    1.309828
     38          6           0        5.029708   -1.626811    0.474120
     39          6           0        7.576678   -2.408064    3.088179
     40          6           0        4.948427   -3.859636    0.990317
     41          8           0        5.077483   -4.962058    1.534332
     42          6           0        4.060524   -3.726704   -0.259686
     43          6           0        4.692340   -4.486380   -1.412377
     44          8           0        5.794913   -4.197961   -1.856381
     45          8           0        3.849626   -5.490875   -1.740022
     46          6           0        4.239248   -6.344921   -2.892725
     47          6           0       -2.238316   -5.003429    0.254936
     48          6           0       -3.247844   -4.004286    0.925261
     49          6           0       -4.106187   -4.234959    1.921835
     50          6           0       -4.307908   -5.567453    2.594766
     51          6           0       -5.006635   -3.166441    2.474607
     52          6           0       -6.194932   -2.857289    1.595860
     53          6           0       -6.422328   -1.394149    1.344079
     54          6           0       -7.938532   -1.084477    1.268368
     55          6           0       -8.530038   -0.966488    2.756825
     56          6           0       -8.075737    0.273489    0.570688
     57          6           0       -8.442067    0.124936   -0.902947
     58          6           0       -8.468400    1.479803   -1.592639
     59          6           0       -9.873110    1.925049   -2.180187
     60          6           0       -9.512730    2.601624   -3.545182
     61          6           0      -10.730675    2.810202   -1.203486
     62          6           0      -12.091031    2.071506   -0.636890
     63          6           0      -12.123725    1.881030    0.901313
     64          6           0      -13.326434    2.425717    1.706685
     65          6           0      -12.937961    2.968022    3.075200
     66          6           0      -14.309033    1.267132    1.768248
     67          1           0        1.580796    1.910512   -3.569860
     68          1           0        4.718364    5.611238    0.652342
     69          1           0        7.573532    0.522168    3.202358
     70          1           0        2.733457   -2.911412   -2.954057
     71          1           0        0.984494   -0.629968   -3.403850
     72          1           0        2.962784   -1.823606   -4.961218
     73          1           0        3.003860   -0.070399   -5.249678
     74          1           0        1.474760   -0.942705   -5.314953
     75          1           0        0.190868   -2.115292   -1.826377
     76          1           0        1.277081   -2.816446   -0.547369
     77          1           0        1.533251   -4.829010   -2.271537
     78          1           0        0.103943   -4.036067   -3.067297
     79          1           0        0.347131    4.996161   -2.753737
     80          1           0        0.959411    3.850395   -3.964995
     81          1           0        1.583930    5.355705   -4.158914
     82          1           0        3.297062    7.484180    0.445476
     83          1           0        3.554555    8.532601   -0.965244
     84          1           0        4.848236    7.355210   -0.422803
     85          1           0        5.890429    4.723747    3.073358
     86          1           0        8.277320    3.223164    2.428564
     87          1           0        6.717707    6.554385    1.907818
     88          1           0        7.946149    5.484922    1.127149
     89          1           0        8.043401    5.811681    2.882283
     90          1           0        7.210697    3.970877    4.774850
     91          1           0        8.165925    2.478694    4.630132
     92          1           0        5.575150    2.727169    5.775592
     93          1           0        5.968491    1.117723    5.123959
     94          1           0        5.106493    2.403451    4.236641
     95          1           0        7.993129   -3.336339    2.694822
     96          1           0        7.231242   -2.785701    4.051266
     97          1           0        8.358005   -1.694656    3.350328
     98          1           0        3.023541   -3.982195   -0.041532
     99          1           0        3.864744   -6.091415   -3.884796
    100          1           0        3.898270   -7.367694   -2.733253
    101          1           0        5.315146   -6.489435   -2.992238
    102          1           0       -1.638384   -5.285497    1.120419
    103          1           0       -2.801034   -5.850067   -0.138608
    104          1           0       -3.302253   -2.998342    0.508155
    105          1           0       -5.352660   -5.841169    2.440076
    106          1           0       -4.057043   -5.684919    3.648418
    107          1           0       -3.690196   -6.299469    2.074240
    108          1           0       -4.445868   -2.256840    2.688054
    109          1           0       -5.389553   -3.446233    3.455460
    110          1           0       -7.013889   -3.351631    2.118817
    111          1           0       -5.991351   -3.234579    0.592829
    112          1           0       -5.856191   -1.023025    0.489313
    113          1           0       -5.985874   -0.742330    2.100477
    114          1           0       -8.498132   -1.916203    0.841091
    115          1           0       -8.010163   -1.689946    3.384821
    116          1           0       -9.591633   -1.174667    2.891524
    117          1           0       -8.342202    0.068542    3.042571
    118          1           0       -7.078230    0.708879    0.516345
    119          1           0       -8.834752    0.872081    1.073064
    120          1           0       -9.460684   -0.255613   -0.973230
    121          1           0       -7.728101   -0.527990   -1.404662
    122          1           0       -7.763778    1.418136   -2.422426
    123          1           0       -8.134743    2.244287   -0.891270
    124          1           0      -10.449072    1.030712   -2.418173
    125          1           0       -8.746779    2.022489   -4.061674
    126          1           0       -9.165519    3.620691   -3.373840
    127          1           0      -10.444552    2.483187   -4.097567
    128          1           0      -10.949895    3.697975   -1.796657
    129          1           0      -10.054818    3.133885   -0.412168
    130          1           0      -12.113059    1.070837   -1.065959
    131          1           0      -12.895991    2.692697   -1.029384
    132          1           0      -11.308424    2.323884    1.472901
    133          1           0      -11.946733    0.820386    1.082607
    134          1           0      -13.874985    3.212883    1.188602
    135          1           0      -12.109265    3.668557    2.964050
    136          1           0      -12.524698    2.208092    3.737398
    137          1           0      -13.735397    3.571354    3.508915
    138          1           0      -14.892085    1.278745    2.688944
    139          1           0      -13.882739    0.271442    1.888914
    140          1           0      -15.048918    1.245975    0.967738
 ---------------------------------------------------------------------

 SCF Done:  E(RPBE1PBE) =  -3005.34557307     A.U. after   15 cycles

 Excitation energies and oscillator strengths:

 Excited State   1:      Singlet-A      1.9058 eV  650.57 nm  f=0.3677  <S**2>=0.000
     245 -> 248       -0.18745
     246 -> 247        0.68720
 This state for optimization and/or second-order correction.
 Total Energy, E(TD-HF/TD-DFT) =  -3005.27553720
 Copying the excited state density for this state as the 1-particle RhoCI density.

 Excited State   2:      Singlet-A      2.2037 eV  562.62 nm  f=0.1135  <S**2>=0.000
     245 -> 247        0.65337
     246 -> 248        0.25367

 Excited State   3:      Singlet-A      2.8979 eV  427.84 nm  f=0.0007  <S**2>=0.000
     241 -> 247       -0.10272
     242 -> 247        0.65141
     242 -> 249        0.16191
     243 -> 247       -0.14181

 Excited State   4:      Singlet-A      2.9481 eV  420.56 nm  f=0.0013  <S**2>=0.000
     241 -> 247        0.24352
     242 -> 247        0.17829
     243 -> 247        0.63341

 Excited State   5:      Singlet-A      3.0110 eV  411.77 nm  f=0.0021  <S**2>=0.000
     240 -> 247        0.42611
     240 -> 249       -0.11215
     241 -> 247        0.48246
     243 -> 247       -0.20593

 The electronic state is 1-A.
 Alpha  occ. eigenvalues --  -46.93561 -19.27746 -19.25397 -19.20838 -19.20631
 Alpha  occ. eigenvalues --  -19.18892 -19.18414 -14.42273 -14.41582 -14.39341
 Alpha  occ. eigenvalues --  -14.38579 -10.37290 -10.36969 -10.32276 -10.31795
 Alpha  occ. eigenvalues --  -10.29801 -10.29742 -10.29666 -10.29103 -10.28676
 Alpha  occ. eigenvalues --  -10.28465 -10.28324 -10.28177 -10.27055 -10.26866
 Alpha  occ. eigenvalues --  -10.26299 -10.26199 -10.26165 -10.26102 -10.26032
 Alpha  occ. eigenvalues --  -10.25994 -10.25931 -10.25848 -10.25752 -10.25430
 Alpha  occ. eigenvalues --  -10.25391 -10.25384 -10.25006 -10.24613 -10.24525
 Alpha  occ. eigenvalues --  -10.24424 -10.23929 -10.23761 -10.23732 -10.23392
 Alpha  occ. eigenvalues --  -10.23326 -10.23288 -10.23252 -10.23187 -10.23168
 Alpha  occ. eigenvalues --  -10.23064 -10.23044 -10.22960 -10.22800 -10.22777
 Alpha  occ. eigenvalues --  -10.22110 -10.22093 -10.22082 -10.21983 -10.21940
 Alpha  occ. eigenvalues --  -10.21915 -10.21735 -10.21655 -10.21438 -10.21319
 Alpha  occ. eigenvalues --  -10.21079  -3.15506  -1.88333  -1.87905  -1.87700
 Alpha  occ. eigenvalues --   -1.11975  -1.09488  -1.04587  -1.03777  -1.03122
 Alpha  occ. eigenvalues --   -1.02029  -1.00311  -0.98983  -0.98264  -0.96316
 Alpha  occ. eigenvalues --   -0.86708  -0.84912  -0.83550  -0.83430  -0.83012
 Alpha  occ. eigenvalues --   -0.82776  -0.82383  -0.81452  -0.81358  -0.80452
 Alpha  occ. eigenvalues --   -0.80251  -0.79567  -0.78430  -0.77909  -0.77384
 Alpha  occ. eigenvalues --   -0.76143  -0.75918  -0.75191  -0.74807  -0.74427
 Alpha  occ. eigenvalues --   -0.73638  -0.72403  -0.72075  -0.71931  -0.70902
 Alpha  occ. eigenvalues --   -0.69904  -0.69673  -0.69556  -0.68270  -0.68027
 Alpha  occ. eigenvalues --   -0.67207  -0.66646  -0.65972  -0.64954  -0.64926
 Alpha  occ. eigenvalues --   -0.63016  -0.62116  -0.61811  -0.60874  -0.60239
 Alpha  occ. eigenvalues --   -0.59854  -0.59604  -0.58993  -0.58772  -0.57856
 Alpha  occ. eigenvalues --   -0.57590  -0.57501  -0.57473  -0.56650  -0.54367
 Alpha  occ. eigenvalues --   -0.54186  -0.53946  -0.53315  -0.53026  -0.52721
 Alpha  occ. eigenvalues --   -0.51996  -0.51178  -0.50862  -0.50518  -0.50098
 Alpha  occ. eigenvalues --   -0.49783  -0.49488  -0.49296  -0.49112  -0.48557
 Alpha  occ. eigenvalues --   -0.48165  -0.47917  -0.47589  -0.47539  -0.47162
 Alpha  occ. eigenvalues --   -0.47109  -0.47077  -0.46816  -0.46544  -0.46264
 Alpha  occ. eigenvalues --   -0.45951  -0.45815  -0.45729  -0.45336  -0.45004
 Alpha  occ. eigenvalues --   -0.44848  -0.44623  -0.44415  -0.44059  -0.43982
 Alpha  occ. eigenvalues --   -0.43848  -0.43623  -0.43454  -0.43341  -0.43222
 Alpha  occ. eigenvalues --   -0.42998  -0.42893  -0.42755  -0.42611  -0.42338
 Alpha  occ. eigenvalues --   -0.42051  -0.41718  -0.41368  -0.41353  -0.41128
 Alpha  occ. eigenvalues --   -0.40787  -0.40725  -0.40688  -0.40389  -0.40244
 Alpha  occ. eigenvalues --   -0.40227  -0.40133  -0.40048  -0.39917  -0.39640
 Alpha  occ. eigenvalues --   -0.39435  -0.39247  -0.39227  -0.38818  -0.38571
 Alpha  occ. eigenvalues --   -0.38497  -0.38411  -0.37967  -0.37824  -0.37572
 Alpha  occ. eigenvalues --   -0.37496  -0.37352  -0.37215  -0.37165  -0.37076
 Alpha  occ. eigenvalues --   -0.36750  -0.36625  -0.36616  -0.36305  -0.36269
 Alpha  occ. eigenvalues --   -0.35545  -0.35285  -0.35174  -0.35023  -0.34725
 Alpha  occ. eigenvalues --   -0.34607  -0.34506  -0.34283  -0.34208  -0.33875
 Alpha  occ. eigenvalues --   -0.33595  -0.33277  -0.32922  -0.32876  -0.32738
 Alpha  occ. eigenvalues --   -0.32436  -0.31896  -0.31798  -0.31783  -0.31389
 Alpha  occ. eigenvalues --   -0.30840  -0.30571  -0.29818  -0.29599  -0.29157
 Alpha  occ. eigenvalues --   -0.29030  -0.28776  -0.28227  -0.26833  -0.25619
 Alpha  occ. eigenvalues --   -0.25362  -0.25121  -0.24835  -0.24651  -0.20865
 Alpha  occ. eigenvalues --   -0.19103
 Alpha virt. eigenvalues --   -0.11245  -0.05556  -0.03733  -0.02043  -0.01155
 Alpha virt. eigenvalues --   -0.00527   0.00154   0.01314   0.02134   0.02627
 Alpha virt. eigenvalues --    0.03869   0.04252   0.05153   0.05231   0.05622

 Mulliken charges:
               1
     1  Mg   0.967700
     2  C   -0.071792
     3  C   -0.054274
     4  C   -0.076123
     5  C   -0.062011
     6  N   -0.327014
     7  C    0.006502
     8  C   -0.083534
     9  C   -0.137086
    10  C    0.084357
    11  C    0.022728
    12  C   -0.013889
    13  C   -0.056007
    14  C    0.245104
    15  O   -0.240631
    16  O   -0.413920
    17  N   -0.531597
    18  C    0.136324
    19  C   -0.174493
    20  C   -0.058507
    21  C    0.181613
    22  C    0.106536
    23  C    0.018180
    24  O   -0.242975
    25  C   -0.037777
    26  N   -0.401676
    27  C    0.133646
    28  C   -0.190478
    29  C   -0.043207
    30  C    0.048503
    31  C   -0.017923
    32  C   -0.029437
    33  C   -0.064283
    34  N   -0.414604
    35  C    0.104154
    36  C   -0.169957
    37  C   -0.023219
    38  C    0.181874
    39  C    0.056875
    40  C    0.110159
    41  O   -0.232911
    42  C   -0.074983
    43  C    0.322202
    44  O   -0.245649
    45  O   -0.345957
    46  C    0.110866
    47  C    0.243559
    48  C   -0.143465
    49  C   -0.229251
    50  C    0.018468
    51  C    0.016593
    52  C   -0.007077
    53  C   -0.032859
    54  C   -0.212445
    55  C   -0.030558
    56  C   -0.018669
    57  C   -0.032108
    58  C    0.003541
    59  C   -0.260001
    60  C   -0.020930
    61  C    0.016613
    62  C   -0.022791
    63  C   -0.019520
    64  C   -0.229916
    65  C   -0.017526
    66  C   -0.011139
    67  H   -0.000329
    68  H   -0.013299
    69  H   -0.001713
    70  H    0.048314
    71  H    0.042375
    72  H    0.038710
    73  H    0.055750
    74  H    0.036913
    75  H    0.057247
    76  H    0.064926
    77  H    0.078742
    78  H    0.076325
    79  H    0.071378
    80  H    0.005602
    81  H    0.069059
    82  H    0.065576
    83  H    0.059320
    84  H    0.069794
    85  H    0.050883
    86  H    0.041509
    87  H    0.056538
    88  H    0.046807
    89  H    0.048742
    90  H    0.041784
    91  H    0.047548
    92  H    0.032721
    93  H    0.065178
    94  H    0.045828
    95  H    0.058632
    96  H    0.049165
    97  H    0.037785
    98  H    0.070853
    99  H    0.058952
   100  H    0.064370
   101  H    0.069821
   102  H    0.064899
   103  H    0.077608
   104  H    0.023217
   105  H    0.045505
   106  H    0.057840
   107  H    0.021645
   108  H    0.035704
   109  H    0.016699
   110  H    0.036597
   111  H    0.043168
   112  H    0.023389
   113  H    0.016976
   114  H    0.032325
   115  H    0.025503
   116  H    0.040290
   117  H    0.037144
   118  H    0.031644
   119  H    0.035380
   120  H    0.022630
   121  H    0.024350
   122  H    0.013808
   123  H    0.022957
   124  H    0.029464
   125  H    0.035308
   126  H    0.045626
   127  H    0.034487
   128  H    0.022919
   129  H    0.026551
   130  H    0.038995
   131  H    0.039979
   132  H    0.016665
   133  H    0.026388
   134  H    0.033456
   135  H    0.029897
   136  H    0.035772
   137  H    0.041550
   138  H    0.010820
   139  H    0.020942
   140  H    0.038170
 Sum of Mulliken charges =  -0.00000

 Dipole moment (field-independent basis, Debye):
    X=             -0.3894    Y=              2.4477    Z=             -0.0945  Tot=              2.4803
 Quadrupole moment (field-independent basis, Debye-Ang):
   XX=           -380.3985   YY=           -432.2190   ZZ=           -381.0247
   XY=             34.0387   XZ=              6.7213   YZ=             36.6443

 Normal termination of Gaussian 16 at Thu Apr 28 04:46:21 2022.
