 Gaussian 16, Revision A.03,
 Gaussian 16:  ES64L-G16RevA.03 25-Dec-2016

 --------------------------------
 #p wB97XD/Def2SVP td=(nstates=5)
 --------------------------------

 -----------------------------------------------------
 step_1451_chromophore_17 TDDFT with wB97XD functional
 -----------------------------------------------------
 Symbolic Z-matrix:
 Charge =  0 Multiplicity = 1

                         Standard orientation:
 ---------------------------------------------------------------------
 Center     Atomic      Atomic             Coordinates (Angstroms)
 Number     Number       Type             X           Y           Z
 ---------------------------------------------------------------------
      1         12           0        4.816019    1.335423   -0.421591
      2          6           0        4.081712   -2.176282   -0.437544
      3          6           0        2.271771    1.705741   -2.749391
      4          6           0        4.763767    4.558525    0.365661
      5          6           0        6.904632    0.678691    2.353083
      6          7           0        3.296359   -0.126770   -1.459740
      7          6           0        3.281785   -1.487406   -1.362519
      8          6           0        2.319591   -2.091727   -2.367810
      9          6           0        2.051791   -0.844779   -3.332257
     10          6           0        2.602894    0.353814   -2.483412
     11          6           0        2.433872   -0.884015   -4.800125
     12          6           0        1.060650   -2.735955   -1.612821
     13          6           0        0.646560   -4.209132   -2.137400
     14          6           0       -0.214909   -4.985659   -1.127339
     15          8           0       -0.086316   -6.175746   -0.902861
     16          8           0       -1.307688   -4.215718   -0.600396
     17          7           0        3.690604    2.938319   -1.160219
     18          6           0        2.667407    2.940816   -2.120887
     19          6           0        2.256210    4.315556   -2.347095
     20          6           0        3.032996    5.114137   -1.483568
     21          6           0        3.838544    4.231373   -0.653128
     22          6           0        1.211681    4.718301   -3.356369
     23          6           0        3.025969    6.614425   -1.531243
     24          8           0        2.387549    7.170869   -2.417929
     25          6           0        3.783260    7.562076   -0.526450
     26          7           0        5.816762    2.398732    1.007802
     27          6           0        5.723099    3.734567    1.041603
     28          6           0        6.521376    4.357271    2.264194
     29          6           0        7.261295    3.115953    2.808332
     30          6           0        6.653318    2.007406    1.966113
     31          6           0        7.373952    5.692120    2.030905
     32          6           0        7.218682    2.955783    4.378049
     33          6           0        5.940880    2.184835    4.903213
     34          7           0        5.531821   -0.398218    0.723475
     35          6           0        6.427074   -0.532052    1.716233
     36          6           0        6.578079   -1.908779    2.119070
     37          6           0        5.607209   -2.585370    1.309828
     38          6           0        5.029708   -1.626811    0.474120
     39          6           0        7.576678   -2.408064    3.088179
     40          6           0        4.948427   -3.859636    0.990317
     41          8           0        5.077483   -4.962058    1.534332
     42          6           0        4.060524   -3.726704   -0.259686
     43          6           0        4.692340   -4.486380   -1.412377
     44          8           0        5.794913   -4.197961   -1.856381
     45          8           0        3.849626   -5.490875   -1.740022
     46          6           0        4.239248   -6.344921   -2.892725
     47          6           0       -2.238316   -5.003429    0.254936
     48          6           0       -3.247844   -4.004286    0.925261
     49          6           0       -4.106187   -4.234959    1.921835
     50          6           0       -4.307908   -5.567453    2.594766
     51          6           0       -5.006635   -3.166441    2.474607
     52          6           0       -6.194932   -2.857289    1.595860
     53          6           0       -6.422328   -1.394149    1.344079
     54          6           0       -7.938532   -1.084477    1.268368
     55          6           0       -8.530038   -0.966488    2.756825
     56          6           0       -8.075737    0.273489    0.570688
     57          6           0       -8.442067    0.124936   -0.902947
     58          6           0       -8.468400    1.479803   -1.592639
     59          6           0       -9.873110    1.925049   -2.180187
     60          6           0       -9.512730    2.601624   -3.545182
     61          6           0      -10.730675    2.810202   -1.203486
     62          6           0      -12.091031    2.071506   -0.636890
     63          6           0      -12.123725    1.881030    0.901313
     64          6           0      -13.326434    2.425717    1.706685
     65          6           0      -12.937961    2.968022    3.075200
     66          6           0      -14.309033    1.267132    1.768248
     67          1           0        1.580796    1.910512   -3.569860
     68          1           0        4.718364    5.611238    0.652342
     69          1           0        7.573532    0.522168    3.202358
     70          1           0        2.733457   -2.911412   -2.954057
     71          1           0        0.984494   -0.629968   -3.403850
     72          1           0        2.962784   -1.823606   -4.961218
     73          1           0        3.003860   -0.070399   -5.249678
     74          1           0        1.474760   -0.942705   -5.314953
     75          1           0        0.190868   -2.115292   -1.826377
     76          1           0        1.277081   -2.816446   -0.547369
     77          1           0        1.533251   -4.829010   -2.271537
     78          1           0        0.103943   -4.036067   -3.067297
     79          1           0        0.347131    4.996161   -2.753737
     80          1           0        0.959411    3.850395   -3.964995
     81          1           0        1.583930    5.355705   -4.158914
     82          1           0        3.297062    7.484180    0.445476
     83          1           0        3.554555    8.532601   -0.965244
     84          1           0        4.848236    7.355210   -0.422803
     85          1           0        5.890429    4.723747    3.073358
     86          1           0        8.277320    3.223164    2.428564
     87          1           0        6.717707    6.554385    1.907818
     88          1           0        7.946149    5.484922    1.127149
     89          1           0        8.043401    5.811681    2.882283
     90          1           0        7.210697    3.970877    4.774850
     91          1           0        8.165925    2.478694    4.630132
     92          1           0        5.575150    2.727169    5.775592
     93          1           0        5.968491    1.117723    5.123959
     94          1           0        5.106493    2.403451    4.236641
     95          1           0        7.993129   -3.336339    2.694822
     96          1           0        7.231242   -2.785701    4.051266
     97          1           0        8.358005   -1.694656    3.350328
     98          1           0        3.023541   -3.982195   -0.041532
     99          1           0        3.864744   -6.091415   -3.884796
    100          1           0        3.898270   -7.367694   -2.733253
    101          1           0        5.315146   -6.489435   -2.992238
    102          1           0       -1.638384   -5.285497    1.120419
    103          1           0       -2.801034   -5.850067   -0.138608
    104          1           0       -3.302253   -2.998342    0.508155
    105          1           0       -5.352660   -5.841169    2.440076
    106          1           0       -4.057043   -5.684919    3.648418
    107          1           0       -3.690196   -6.299469    2.074240
    108          1           0       -4.445868   -2.256840    2.688054
    109          1           0       -5.389553   -3.446233    3.455460
    110          1           0       -7.013889   -3.351631    2.118817
    111          1           0       -5.991351   -3.234579    0.592829
    112          1           0       -5.856191   -1.023025    0.489313
    113          1           0       -5.985874   -0.742330    2.100477
    114          1           0       -8.498132   -1.916203    0.841091
    115          1           0       -8.010163   -1.689946    3.384821
    116          1           0       -9.591633   -1.174667    2.891524
    117          1           0       -8.342202    0.068542    3.042571
    118          1           0       -7.078230    0.708879    0.516345
    119          1           0       -8.834752    0.872081    1.073064
    120          1           0       -9.460684   -0.255613   -0.973230
    121          1           0       -7.728101   -0.527990   -1.404662
    122          1           0       -7.763778    1.418136   -2.422426
    123          1           0       -8.134743    2.244287   -0.891270
    124          1           0      -10.449072    1.030712   -2.418173
    125          1           0       -8.746779    2.022489   -4.061674
    126          1           0       -9.165519    3.620691   -3.373840
    127          1           0      -10.444552    2.483187   -4.097567
    128          1           0      -10.949895    3.697975   -1.796657
    129          1           0      -10.054818    3.133885   -0.412168
    130          1           0      -12.113059    1.070837   -1.065959
    131          1           0      -12.895991    2.692697   -1.029384
    132          1           0      -11.308424    2.323884    1.472901
    133          1           0      -11.946733    0.820386    1.082607
    134          1           0      -13.874985    3.212883    1.188602
    135          1           0      -12.109265    3.668557    2.964050
    136          1           0      -12.524698    2.208092    3.737398
    137          1           0      -13.735397    3.571354    3.508915
    138          1           0      -14.892085    1.278745    2.688944
    139          1           0      -13.882739    0.271442    1.888914
    140          1           0      -15.048918    1.245975    0.967738
 ---------------------------------------------------------------------

 SCF Done:  E(RwB97XD) =  -3007.85580846     A.U. after   17 cycles

 Excitation energies and oscillator strengths:

 Excited State   1:      Singlet-A      1.7117 eV  724.33 nm  f=0.3814  <S**2>=0.000
     245 -> 248        0.19632
     246 -> 247        0.67899
     245 <- 248        0.11535
 This state for optimization and/or second-order correction.
 Total Energy, E(TD-HF/TD-DFT) =  -3007.79290399
 Copying the excited state density for this state as the 1-particle RhoCI density.

 Excited State   2:      Singlet-A      2.1427 eV  578.63 nm  f=0.1151  <S**2>=0.000
     245 -> 247        0.63938
     246 -> 248       -0.28257

 Excited State   3:      Singlet-A      3.3090 eV  374.68 nm  f=0.0086  <S**2>=0.000
     241 -> 247       -0.34958
     242 -> 247        0.39439
     244 -> 247        0.43129
     246 -> 248       -0.11513

 Excited State   4:      Singlet-A      3.4224 eV  362.27 nm  f=0.0348  <S**2>=0.000
     241 -> 247        0.30883
     242 -> 247       -0.17161
     244 -> 247        0.49605
     246 -> 248        0.30233

 Excited State   5:      Singlet-A      3.4827 eV  356.00 nm  f=0.0136  <S**2>=0.000
     241 -> 247        0.31662
     241 -> 249       -0.23638
     241 -> 250        0.16462
     242 -> 247        0.42602
     242 -> 249       -0.23628
     242 -> 250        0.16851
     244 -> 247       -0.11996

 The electronic state is 1-A.
 Alpha  occ. eigenvalues --  -46.96515 -19.32289 -19.29924 -19.25483 -19.25315
 Alpha  occ. eigenvalues --  -19.23862 -19.23080 -14.47314 -14.46795 -14.44386
 Alpha  occ. eigenvalues --  -14.43393 -10.44107 -10.43712 -10.39251 -10.38494
 Alpha  occ. eigenvalues --  -10.36303 -10.36257 -10.36139 -10.35585 -10.34999
 Alpha  occ. eigenvalues --  -10.34806 -10.34794 -10.34554 -10.33107 -10.33072
 Alpha  occ. eigenvalues --  -10.32895 -10.32539 -10.32475 -10.32386 -10.32354
 Alpha  occ. eigenvalues --  -10.32284 -10.32282 -10.32161 -10.32055 -10.31849
 Alpha  occ. eigenvalues --  -10.31625 -10.31534 -10.31420 -10.31226 -10.30953
 Alpha  occ. eigenvalues --  -10.30649 -10.30452 -10.30380 -10.30067 -10.29973
 Alpha  occ. eigenvalues --  -10.29769 -10.29661 -10.29477 -10.29474 -10.29445
 Alpha  occ. eigenvalues --  -10.29338 -10.29311 -10.29223 -10.29164 -10.29164
 Alpha  occ. eigenvalues --  -10.28486 -10.28460 -10.28444 -10.28408 -10.28354
 Alpha  occ. eigenvalues --  -10.28323 -10.28112 -10.28092 -10.27833 -10.27680
 Alpha  occ. eigenvalues --  -10.27516  -3.22355  -1.95925  -1.95497  -1.95289
 Alpha  occ. eigenvalues --   -1.19352  -1.16841  -1.12232  -1.11130  -1.10465
 Alpha  occ. eigenvalues --   -1.09346  -1.07648  -1.06357  -1.05469  -1.03920
 Alpha  occ. eigenvalues --   -0.94244  -0.92576  -0.91107  -0.91093  -0.90657
 Alpha  occ. eigenvalues --   -0.90436  -0.90106  -0.89084  -0.89016  -0.88220
 Alpha  occ. eigenvalues --   -0.87750  -0.87240  -0.86093  -0.85537  -0.85016
 Alpha  occ. eigenvalues --   -0.83767  -0.83590  -0.82832  -0.82624  -0.82113
 Alpha  occ. eigenvalues --   -0.81281  -0.80000  -0.79726  -0.79638  -0.78494
 Alpha  occ. eigenvalues --   -0.77601  -0.77276  -0.77202  -0.75949  -0.75709
 Alpha  occ. eigenvalues --   -0.74726  -0.74246  -0.73523  -0.72581  -0.72451
 Alpha  occ. eigenvalues --   -0.70506  -0.69768  -0.69414  -0.68515  -0.67733
 Alpha  occ. eigenvalues --   -0.67302  -0.67126  -0.66445  -0.66407  -0.65557
 Alpha  occ. eigenvalues --   -0.65166  -0.65038  -0.64831  -0.64316  -0.61882
 Alpha  occ. eigenvalues --   -0.61651  -0.61374  -0.60665  -0.60512  -0.60126
 Alpha  occ. eigenvalues --   -0.59443  -0.58627  -0.58238  -0.57893  -0.57549
 Alpha  occ. eigenvalues --   -0.57207  -0.56837  -0.56730  -0.56572  -0.56026
 Alpha  occ. eigenvalues --   -0.55556  -0.55174  -0.55037  -0.54901  -0.54524
 Alpha  occ. eigenvalues --   -0.54501  -0.54448  -0.54200  -0.53996  -0.53651
 Alpha  occ. eigenvalues --   -0.53410  -0.53286  -0.53032  -0.52718  -0.52425
 Alpha  occ. eigenvalues --   -0.52224  -0.51985  -0.51710  -0.51396  -0.51322
 Alpha  occ. eigenvalues --   -0.51148  -0.50926  -0.50796  -0.50641  -0.50469
 Alpha  occ. eigenvalues --   -0.50330  -0.50271  -0.50020  -0.49915  -0.49610
 Alpha  occ. eigenvalues --   -0.49448  -0.49031  -0.48609  -0.48533  -0.48326
 Alpha  occ. eigenvalues --   -0.48058  -0.47982  -0.47836  -0.47563  -0.47487
 Alpha  occ. eigenvalues --   -0.47455  -0.47293  -0.47121  -0.47053  -0.46785
 Alpha  occ. eigenvalues --   -0.46537  -0.46465  -0.46368  -0.45837  -0.45729
 Alpha  occ. eigenvalues --   -0.45652  -0.45461  -0.45199  -0.44962  -0.44728
 Alpha  occ. eigenvalues --   -0.44661  -0.44549  -0.44454  -0.44346  -0.44154
 Alpha  occ. eigenvalues --   -0.43783  -0.43737  -0.43626  -0.43436  -0.43280
 Alpha  occ. eigenvalues --   -0.42505  -0.42327  -0.42220  -0.42054  -0.41822
 Alpha  occ. eigenvalues --   -0.41657  -0.41469  -0.41375  -0.41170  -0.40900
 Alpha  occ. eigenvalues --   -0.40671  -0.40352  -0.39966  -0.39836  -0.39782
 Alpha  occ. eigenvalues --   -0.39521  -0.38969  -0.38844  -0.38689  -0.38407
 Alpha  occ. eigenvalues --   -0.37762  -0.37591  -0.36917  -0.36445  -0.36048
 Alpha  occ. eigenvalues --   -0.36038  -0.35383  -0.35085  -0.33444  -0.32912
 Alpha  occ. eigenvalues --   -0.32191  -0.32075  -0.31419  -0.31166  -0.25839
 Alpha  occ. eigenvalues --   -0.23314
 Alpha virt. eigenvalues --   -0.07131  -0.00167   0.02546   0.04486   0.04823
 Alpha virt. eigenvalues --    0.06349   0.06989   0.07936   0.08861   0.09272
 Alpha virt. eigenvalues --    0.10419   0.10972   0.11847   0.11948   0.12266

 Mulliken charges:
               1
     1  Mg   0.961159
     2  C   -0.073133
     3  C   -0.065941
     4  C   -0.086622
     5  C   -0.074100
     6  N   -0.288972
     7  C   -0.027983
     8  C   -0.056042
     9  C   -0.109932
    10  C    0.067083
    11  C    0.030732
    12  C   -0.005321
    13  C   -0.030796
    14  C    0.236650
    15  O   -0.238875
    16  O   -0.414191
    17  N   -0.504327
    18  C    0.128249
    19  C   -0.161540
    20  C   -0.051305
    21  C    0.180336
    22  C    0.117450
    23  C    0.010491
    24  O   -0.238634
    25  C   -0.021004
    26  N   -0.366027
    27  C    0.121589
    28  C   -0.169443
    29  C   -0.020934
    30  C    0.033270
    31  C   -0.004050
    32  C   -0.012306
    33  C   -0.045192
    34  N   -0.374849
    35  C    0.090341
    36  C   -0.168350
    37  C   -0.015453
    38  C    0.159444
    39  C    0.066377
    40  C    0.089470
    41  O   -0.225059
    42  C   -0.027095
    43  C    0.295355
    44  O   -0.240317
    45  O   -0.342705
    46  C    0.126505
    47  C    0.256388
    48  C   -0.155810
    49  C   -0.210391
    50  C    0.032816
    51  C    0.031949
    52  C    0.009350
    53  C   -0.017465
    54  C   -0.185313
    55  C   -0.016525
    56  C    0.008978
    57  C   -0.017167
    58  C    0.019083
    59  C   -0.231692
    60  C   -0.004713
    61  C    0.026245
    62  C   -0.005028
    63  C   -0.000772
    64  C   -0.200976
    65  C   -0.004993
    66  C   -0.002540
    67  H   -0.007421
    68  H   -0.030172
    69  H   -0.011951
    70  H    0.031539
    71  H    0.030824
    72  H    0.033247
    73  H    0.051235
    74  H    0.031965
    75  H    0.050069
    76  H    0.055231
    77  H    0.064245
    78  H    0.070649
    79  H    0.068367
    80  H    0.000383
    81  H    0.067049
    82  H    0.061397
    83  H    0.058131
    84  H    0.064596
    85  H    0.038942
    86  H    0.030298
    87  H    0.050985
    88  H    0.039715
    89  H    0.043579
    90  H    0.032705
    91  H    0.040936
    92  H    0.026712
    93  H    0.060497
    94  H    0.034942
    95  H    0.052537
    96  H    0.043299
    97  H    0.031823
    98  H    0.059964
    99  H    0.054961
   100  H    0.061005
   101  H    0.066136
   102  H    0.058328
   103  H    0.073622
   104  H    0.020061
   105  H    0.038710
   106  H    0.053671
   107  H    0.014817
   108  H    0.027552
   109  H    0.009778
   110  H    0.027744
   111  H    0.032795
   112  H    0.014310
   113  H    0.005649
   114  H    0.021719
   115  H    0.017308
   116  H    0.035329
   117  H    0.029659
   118  H    0.019661
   119  H    0.020362
   120  H    0.010363
   121  H    0.016659
   122  H    0.005212
   123  H    0.011812
   124  H    0.015108
   125  H    0.028484
   126  H    0.039146
   127  H    0.028564
   128  H    0.015399
   129  H    0.016086
   130  H    0.029994
   131  H    0.033159
   132  H    0.003590
   133  H    0.016338
   134  H    0.023949
   135  H    0.022988
   136  H    0.029665
   137  H    0.036650
   138  H    0.004593
   139  H    0.014127
   140  H    0.033191
 Sum of Mulliken charges =  -0.00000

 Dipole moment (field-independent basis, Debye):
    X=             -0.6502    Y=              2.9230    Z=             -0.4418  Tot=              3.0269
 Quadrupole moment (field-independent basis, Debye-Ang):
   XX=           -382.6090   YY=           -429.9805   ZZ=           -380.6674
   XY=             35.6551   XZ=              4.8665   YZ=             36.0627

 Normal termination of Gaussian 16 at Thu Apr 28 05:26:56 2022.
