 Gaussian 16, Revision A.03,
 Gaussian 16:  ES64L-G16RevA.03 25-Dec-2016

 --------------------
 #p ZINDO=(nstates=5)
 --------------------

 ------------------------------
 step_1451_chromophore_17 ZINDO
 ------------------------------
 Symbolic Z-matrix:
 Charge =  0 Multiplicity = 1

                         Standard orientation:
 ---------------------------------------------------------------------
 Center     Atomic      Atomic             Coordinates (Angstroms)
 Number     Number       Type             X           Y           Z
 ---------------------------------------------------------------------
      1         12           0        4.816019    1.335423   -0.421591
      2          6           0        4.081712   -2.176282   -0.437544
      3          6           0        2.271771    1.705741   -2.749391
      4          6           0        4.763767    4.558525    0.365661
      5          6           0        6.904632    0.678691    2.353083
      6          7           0        3.296359   -0.126770   -1.459740
      7          6           0        3.281785   -1.487406   -1.362519
      8          6           0        2.319591   -2.091727   -2.367810
      9          6           0        2.051791   -0.844779   -3.332257
     10          6           0        2.602894    0.353814   -2.483412
     11          6           0        2.433872   -0.884015   -4.800125
     12          6           0        1.060650   -2.735955   -1.612821
     13          6           0        0.646560   -4.209132   -2.137400
     14          6           0       -0.214909   -4.985659   -1.127339
     15          8           0       -0.086316   -6.175746   -0.902861
     16          8           0       -1.307688   -4.215718   -0.600396
     17          7           0        3.690604    2.938319   -1.160219
     18          6           0        2.667407    2.940816   -2.120887
     19          6           0        2.256210    4.315556   -2.347095
     20          6           0        3.032996    5.114137   -1.483568
     21          6           0        3.838544    4.231373   -0.653128
     22          6           0        1.211681    4.718301   -3.356369
     23          6           0        3.025969    6.614425   -1.531243
     24          8           0        2.387549    7.170869   -2.417929
     25          6           0        3.783260    7.562076   -0.526450
     26          7           0        5.816762    2.398732    1.007802
     27          6           0        5.723099    3.734567    1.041603
     28          6           0        6.521376    4.357271    2.264194
     29          6           0        7.261295    3.115953    2.808332
     30          6           0        6.653318    2.007406    1.966113
     31          6           0        7.373952    5.692120    2.030905
     32          6           0        7.218682    2.955783    4.378049
     33          6           0        5.940880    2.184835    4.903213
     34          7           0        5.531821   -0.398218    0.723475
     35          6           0        6.427074   -0.532052    1.716233
     36          6           0        6.578079   -1.908779    2.119070
     37          6           0        5.607209   -2.585370    1.309828
     38          6           0        5.029708   -1.626811    0.474120
     39          6           0        7.576678   -2.408064    3.088179
     40          6           0        4.948427   -3.859636    0.990317
     41          8           0        5.077483   -4.962058    1.534332
     42          6           0        4.060524   -3.726704   -0.259686
     43          6           0        4.692340   -4.486380   -1.412377
     44          8           0        5.794913   -4.197961   -1.856381
     45          8           0        3.849626   -5.490875   -1.740022
     46          6           0        4.239248   -6.344921   -2.892725
     47          6           0       -2.238316   -5.003429    0.254936
     48          6           0       -3.247844   -4.004286    0.925261
     49          6           0       -4.106187   -4.234959    1.921835
     50          6           0       -4.307908   -5.567453    2.594766
     51          6           0       -5.006635   -3.166441    2.474607
     52          6           0       -6.194932   -2.857289    1.595860
     53          6           0       -6.422328   -1.394149    1.344079
     54          6           0       -7.938532   -1.084477    1.268368
     55          6           0       -8.530038   -0.966488    2.756825
     56          6           0       -8.075737    0.273489    0.570688
     57          6           0       -8.442067    0.124936   -0.902947
     58          6           0       -8.468400    1.479803   -1.592639
     59          6           0       -9.873110    1.925049   -2.180187
     60          6           0       -9.512730    2.601624   -3.545182
     61          6           0      -10.730675    2.810202   -1.203486
     62          6           0      -12.091031    2.071506   -0.636890
     63          6           0      -12.123725    1.881030    0.901313
     64          6           0      -13.326434    2.425717    1.706685
     65          6           0      -12.937961    2.968022    3.075200
     66          6           0      -14.309033    1.267132    1.768248
     67          1           0        1.580796    1.910512   -3.569860
     68          1           0        4.718364    5.611238    0.652342
     69          1           0        7.573532    0.522168    3.202358
     70          1           0        2.733457   -2.911412   -2.954057
     71          1           0        0.984494   -0.629968   -3.403850
     72          1           0        2.962784   -1.823606   -4.961218
     73          1           0        3.003860   -0.070399   -5.249678
     74          1           0        1.474760   -0.942705   -5.314953
     75          1           0        0.190868   -2.115292   -1.826377
     76          1           0        1.277081   -2.816446   -0.547369
     77          1           0        1.533251   -4.829010   -2.271537
     78          1           0        0.103943   -4.036067   -3.067297
     79          1           0        0.347131    4.996161   -2.753737
     80          1           0        0.959411    3.850395   -3.964995
     81          1           0        1.583930    5.355705   -4.158914
     82          1           0        3.297062    7.484180    0.445476
     83          1           0        3.554555    8.532601   -0.965244
     84          1           0        4.848236    7.355210   -0.422803
     85          1           0        5.890429    4.723747    3.073358
     86          1           0        8.277320    3.223164    2.428564
     87          1           0        6.717707    6.554385    1.907818
     88          1           0        7.946149    5.484922    1.127149
     89          1           0        8.043401    5.811681    2.882283
     90          1           0        7.210697    3.970877    4.774850
     91          1           0        8.165925    2.478694    4.630132
     92          1           0        5.575150    2.727169    5.775592
     93          1           0        5.968491    1.117723    5.123959
     94          1           0        5.106493    2.403451    4.236641
     95          1           0        7.993129   -3.336339    2.694822
     96          1           0        7.231242   -2.785701    4.051266
     97          1           0        8.358005   -1.694656    3.350328
     98          1           0        3.023541   -3.982195   -0.041532
     99          1           0        3.864744   -6.091415   -3.884796
    100          1           0        3.898270   -7.367694   -2.733253
    101          1           0        5.315146   -6.489435   -2.992238
    102          1           0       -1.638384   -5.285497    1.120419
    103          1           0       -2.801034   -5.850067   -0.138608
    104          1           0       -3.302253   -2.998342    0.508155
    105          1           0       -5.352660   -5.841169    2.440076
    106          1           0       -4.057043   -5.684919    3.648418
    107          1           0       -3.690196   -6.299469    2.074240
    108          1           0       -4.445868   -2.256840    2.688054
    109          1           0       -5.389553   -3.446233    3.455460
    110          1           0       -7.013889   -3.351631    2.118817
    111          1           0       -5.991351   -3.234579    0.592829
    112          1           0       -5.856191   -1.023025    0.489313
    113          1           0       -5.985874   -0.742330    2.100477
    114          1           0       -8.498132   -1.916203    0.841091
    115          1           0       -8.010163   -1.689946    3.384821
    116          1           0       -9.591633   -1.174667    2.891524
    117          1           0       -8.342202    0.068542    3.042571
    118          1           0       -7.078230    0.708879    0.516345
    119          1           0       -8.834752    0.872081    1.073064
    120          1           0       -9.460684   -0.255613   -0.973230
    121          1           0       -7.728101   -0.527990   -1.404662
    122          1           0       -7.763778    1.418136   -2.422426
    123          1           0       -8.134743    2.244287   -0.891270
    124          1           0      -10.449072    1.030712   -2.418173
    125          1           0       -8.746779    2.022489   -4.061674
    126          1           0       -9.165519    3.620691   -3.373840
    127          1           0      -10.444552    2.483187   -4.097567
    128          1           0      -10.949895    3.697975   -1.796657
    129          1           0      -10.054818    3.133885   -0.412168
    130          1           0      -12.113059    1.070837   -1.065959
    131          1           0      -12.895991    2.692697   -1.029384
    132          1           0      -11.308424    2.323884    1.472901
    133          1           0      -11.946733    0.820386    1.082607
    134          1           0      -13.874985    3.212883    1.188602
    135          1           0      -12.109265    3.668557    2.964050
    136          1           0      -12.524698    2.208092    3.737398
    137          1           0      -13.735397    3.571354    3.508915
    138          1           0      -14.892085    1.278745    2.688944
    139          1           0      -13.882739    0.271442    1.888914
    140          1           0      -15.048918    1.245975    0.967738
 ---------------------------------------------------------------------

 SCF Done:  E(RZINDO/S) =  -473.970237886     A.U. after   20 cycles

 Excitation energies and oscillator strengths:

 Excited State   1:      Singlet-A      1.3241 eV  936.35 nm  f=0.5735  <S**2>=0.000
     175 ->178         0.19648
     176 ->177         0.66073
 This state for optimization and/or second-order correction.
 Total Energy, E(CIS/TDA) =  -473.921577338
 Copying the excited state density for this state as the 1-particle RhoCI density.

 Excited State   2:      Singlet-A      1.8832 eV  658.37 nm  f=0.0412  <S**2>=0.000
     175 ->177         0.54401
     176 ->178        -0.42251

 Excited State   3:      Singlet-A      2.9466 eV  420.77 nm  f=0.0431  <S**2>=0.000
     168 ->177         0.28586
     168 ->178        -0.18523
     168 ->179        -0.35002
     168 ->181        -0.29033
     168 ->183        -0.14358
     168 ->185        -0.23375
     168 ->194        -0.10052
     176 ->178        -0.11212

 Excited State   4:      Singlet-A      2.9695 eV  417.53 nm  f=0.1390  <S**2>=0.000
     170 ->177         0.26323
     170 ->179         0.33648
     170 ->181        -0.29282
     170 ->183        -0.13082
     170 ->185         0.18742
     170 ->187         0.15040
     175 ->177         0.13271
     176 ->178         0.18895
     176 ->179         0.10357

 Excited State   5:      Singlet-A      2.9976 eV  413.61 nm  f=0.8297  <S**2>=0.000
     170 ->177        -0.12559
     170 ->179        -0.15096
     170 ->181         0.13921
     175 ->177         0.33139
     176 ->178         0.45112
     176 ->180        -0.22603

 The electronic state is 1-A.
 Alpha  occ. eigenvalues --   -1.83984  -1.80990  -1.78914  -1.71324  -1.71168
 Alpha  occ. eigenvalues --   -1.68539  -1.66128  -1.60516  -1.59348  -1.58141
 Alpha  occ. eigenvalues --   -1.56739  -1.51884  -1.47739  -1.47464  -1.46455
 Alpha  occ. eigenvalues --   -1.44335  -1.43313  -1.39890  -1.38538  -1.37885
 Alpha  occ. eigenvalues --   -1.35279  -1.32925  -1.32268  -1.31107  -1.28062
 Alpha  occ. eigenvalues --   -1.27211  -1.25798  -1.21862  -1.19672  -1.17679
 Alpha  occ. eigenvalues --   -1.17112  -1.16853  -1.15152  -1.13743  -1.13057
 Alpha  occ. eigenvalues --   -1.11313  -1.10555  -1.10171  -1.04965  -1.04181
 Alpha  occ. eigenvalues --   -1.01105  -1.00631  -0.99055  -0.98159  -0.97226
 Alpha  occ. eigenvalues --   -0.96816  -0.94627  -0.94051  -0.93008  -0.91668
 Alpha  occ. eigenvalues --   -0.90369  -0.89851  -0.89209  -0.88115  -0.87963
 Alpha  occ. eigenvalues --   -0.85896  -0.84704  -0.83867  -0.81768  -0.80634
 Alpha  occ. eigenvalues --   -0.79698  -0.78342  -0.76855  -0.76647  -0.75629
 Alpha  occ. eigenvalues --   -0.75384  -0.75260  -0.74785  -0.74068  -0.73168
 Alpha  occ. eigenvalues --   -0.72629  -0.72427  -0.71525  -0.71182  -0.70890
 Alpha  occ. eigenvalues --   -0.70607  -0.70489  -0.69042  -0.68987  -0.68408
 Alpha  occ. eigenvalues --   -0.67364  -0.66668  -0.66617  -0.65764  -0.65140
 Alpha  occ. eigenvalues --   -0.64746  -0.64558  -0.64109  -0.64041  -0.63900
 Alpha  occ. eigenvalues --   -0.63585  -0.63090  -0.62902  -0.62698  -0.62012
 Alpha  occ. eigenvalues --   -0.61264  -0.60954  -0.60648  -0.60129  -0.60010
 Alpha  occ. eigenvalues --   -0.59425  -0.59172  -0.58806  -0.58770  -0.58546
 Alpha  occ. eigenvalues --   -0.58328  -0.57396  -0.56816  -0.56423  -0.55586
 Alpha  occ. eigenvalues --   -0.55452  -0.55325  -0.55218  -0.54893  -0.54853
 Alpha  occ. eigenvalues --   -0.54688  -0.53452  -0.53274  -0.52996  -0.52495
 Alpha  occ. eigenvalues --   -0.52297  -0.52096  -0.51889  -0.51598  -0.51572
 Alpha  occ. eigenvalues --   -0.51289  -0.51004  -0.50536  -0.50405  -0.50335
 Alpha  occ. eigenvalues --   -0.50190  -0.49862  -0.49661  -0.49478  -0.49204
 Alpha  occ. eigenvalues --   -0.48990  -0.48749  -0.48399  -0.48378  -0.48209
 Alpha  occ. eigenvalues --   -0.47791  -0.47590  -0.47475  -0.47216  -0.47070
 Alpha  occ. eigenvalues --   -0.46926  -0.46527  -0.46394  -0.46251  -0.45931
 Alpha  occ. eigenvalues --   -0.45830  -0.45568  -0.44675  -0.44244  -0.44075
 Alpha  occ. eigenvalues --   -0.43759  -0.43353  -0.43115  -0.42936  -0.42122
 Alpha  occ. eigenvalues --   -0.41981  -0.41808  -0.40578  -0.39330  -0.38867
 Alpha  occ. eigenvalues --   -0.38480  -0.37305  -0.35786  -0.34696  -0.34409
 Alpha  occ. eigenvalues --   -0.33567  -0.32700  -0.31818  -0.31601  -0.26566
 Alpha  occ. eigenvalues --   -0.22211
 Alpha virt. eigenvalues --   -0.08530  -0.02682  -0.00561   0.00787   0.01259
 Alpha virt. eigenvalues --    0.01397   0.02746   0.03015   0.04301   0.05477
 Alpha virt. eigenvalues --    0.05984   0.06636   0.07075   0.07488   0.07843

 Mulliken charges:
               1
     1  Mg   0.439414
     2  C   -0.031635
     3  C   -0.075433
     4  C   -0.096291
     5  C   -0.075487
     6  N   -0.270513
     7  C    0.094966
     8  C    0.002759
     9  C    0.001525
    10  C    0.153783
    11  C   -0.044356
    12  C   -0.032454
    13  C   -0.002593
    14  C    0.456059
    15  O   -0.490364
    16  O   -0.284629
    17  N   -0.349479
    18  C    0.111488
    19  C    0.060964
    20  C   -0.034649
    21  C    0.132000
    22  C   -0.035325
    23  C    0.314998
    24  O   -0.521694
    25  C   -0.034629
    26  N   -0.233652
    27  C    0.142305
    28  C   -0.018254
    29  C   -0.003675
    30  C    0.112562
    31  C   -0.055612
    32  C   -0.023426
    33  C   -0.058638
    34  N   -0.319639
    35  C    0.085343
    36  C    0.019788
    37  C   -0.051479
    38  C    0.101566
    39  C   -0.036777
    40  C    0.338581
    41  O   -0.531993
    42  C    0.048171
    43  C    0.501478
    44  O   -0.517229
    45  O   -0.247064
    46  C    0.068415
    47  C    0.100823
    48  C   -0.098825
    49  C   -0.002044
    50  C   -0.045303
    51  C   -0.020668
    52  C   -0.027843
    53  C   -0.029402
    54  C   -0.021565
    55  C   -0.070112
    56  C   -0.034700
    57  C   -0.039405
    58  C   -0.043774
    59  C   -0.025788
    60  C   -0.061408
    61  C   -0.046356
    62  C   -0.035183
    63  C   -0.034365
    64  C   -0.000077
    65  C   -0.051579
    66  C   -0.058649
    67  H    0.024196
    68  H    0.027937
    69  H    0.024884
    70  H    0.032021
    71  H    0.020557
    72  H    0.020630
    73  H    0.034057
    74  H    0.015527
    75  H    0.029035
    76  H    0.037629
    77  H    0.046879
    78  H    0.048771
    79  H    0.048880
    80  H    0.008458
    81  H    0.052684
    82  H    0.036290
    83  H    0.041355
    84  H    0.041280
    85  H    0.026738
    86  H    0.027035
    87  H    0.026032
    88  H    0.021751
    89  H    0.025142
    90  H    0.021116
    91  H    0.024405
    92  H    0.008096
    93  H    0.039458
    94  H    0.018660
    95  H    0.031601
    96  H    0.030994
    97  H    0.021517
    98  H    0.055283
    99  H    0.040865
   100  H    0.033031
   101  H    0.047474
   102  H    0.047955
   103  H    0.068160
   104  H    0.027934
   105  H    0.025727
   106  H    0.034527
   107  H    0.011718
   108  H    0.018568
   109  H    0.011358
   110  H    0.026189
   111  H    0.022237
   112  H    0.016377
   113  H    0.013023
   114  H    0.026686
   115  H    0.016026
   116  H    0.019125
   117  H    0.020201
   118  H    0.024882
   119  H    0.025236
   120  H    0.017134
   121  H    0.020584
   122  H    0.014806
   123  H    0.018725
   124  H    0.019615
   125  H    0.018950
   126  H    0.027812
   127  H    0.014961
   128  H    0.018995
   129  H    0.023983
   130  H    0.025918
   131  H    0.026369
   132  H    0.014082
   133  H    0.017786
   134  H    0.022436
   135  H    0.007186
   136  H    0.024156
   137  H    0.020437
   138  H    0.001474
   139  H    0.017353
   140  H    0.018069
 Sum of Mulliken charges =  -0.00000

 Dipole moment (field-independent basis, Debye):
    X=             -2.1783    Y=              5.4726    Z=             -0.6186  Tot=              5.9226
 N-N= 4.345819144477D+03 E-N= 0.000000000000D+00  KE=-9.365502658457D+03
 Leave Link  601 at Thu Apr 28 05:46:02 2022, MaxMem=  6710886400 cpu:               0.7 elap:               0.0
 (Enter /sw/apps/gaussian-16.0/g16/l9999.exe)
 1\1\GINC-BP1-COMPUTE163\SP\RZINDO CIS\STO-3G\C55H74Mg1N4O6\OF15641\28-
 Apr-2022\0\\#p ZINDO=(nstates=5)\\step_1451_chromophore_17 ZINDO\\0,1\
 Mg,0,29.992,59.679,41.359\C,0,27.034,58.16,40.012\C,0,31.741,56.931,40
 .168\C,0,32.751,61.503,41.627\C,0,28.019,62.561,41.901\N,0,29.414,57.7
 41,40.161\C,0,28.154,57.333,39.834\C,0,28.168,55.918,39.287\C,0,29.633
 ,55.435,39.708\C,0,30.334,56.789,40.077\C,0,29.839,54.27,40.658\C,0,27
 .803,55.923,37.726\C,0,26.726,54.799,37.286\C,0,26.047,55.112,35.942\O

 Normal termination of Gaussian 16 at Thu Apr 28 05:46:03 2022.
