 Gaussian 16, Revision A.03,
 Gaussian 16:  ES64L-G16RevA.03 25-Dec-2016

 ------------------------------
 #p blyp/Def2SVP td=(nstates=5)
 ------------------------------

 ---------------------------------------------------
 step_1701_chromophore_17 TDDFT with blyp functional
 ---------------------------------------------------
 Symbolic Z-matrix:
 Charge =  0 Multiplicity = 1

                         Standard orientation:
 ---------------------------------------------------------------------
 Center     Atomic      Atomic             Coordinates (Angstroms)
 Number     Number       Type             X           Y           Z
 ---------------------------------------------------------------------
      1         12           0        4.496938    1.484704   -0.700818
      2          6           0        4.785359   -1.959027   -0.559792
      3          6           0        1.685871    0.998156   -2.741885
      4          6           0        3.676021    4.552330    0.001924
      5          6           0        7.047784    1.568640    1.852087
      6          7           0        3.414457   -0.271509   -1.574430
      7          6           0        3.636171   -1.546820   -1.293053
      8          6           0        2.694949   -2.482470   -1.917314
      9          6           0        1.927958   -1.531223   -2.892381
     10          6           0        2.327009   -0.170599   -2.379394
     11          6           0        2.412799   -1.703920   -4.356723
     12          6           0        1.742349   -3.190611   -0.795822
     13          6           0        0.939336   -4.400069   -1.203722
     14          6           0        0.072500   -5.029614   -0.062702
     15          8           0        0.410326   -6.060002    0.512144
     16          8           0       -1.093958   -4.309303    0.219381
     17          7           0        3.023683    2.698937   -1.451755
     18          6           0        1.943772    2.352999   -2.288366
     19          6           0        1.181404    3.502825   -2.605086
     20          6           0        1.603793    4.491049   -1.704976
     21          6           0        2.842315    3.953975   -0.924626
     22          6           0        0.083602    3.581500   -3.624181
     23          6           0        0.976182    5.810657   -1.491029
     24          8           0        0.023436    6.153296   -2.195191
     25          6           0        1.295694    6.722870   -0.384335
     26          7           0        5.228002    2.869213    0.851623
     27          6           0        4.803608    4.143631    0.778395
     28          6           0        5.613528    5.004250    1.733321
     29          6           0        6.765661    4.115700    2.227442
     30          6           0        6.278836    2.708805    1.707774
     31          6           0        6.052707    6.378564    1.297981
     32          6           0        7.032406    4.244185    3.802679
     33          6           0        8.465331    4.667729    4.276921
     34          7           0        5.824865    0.082466    0.379195
     35          6           0        6.816256    0.284380    1.312362
     36          6           0        7.427264   -0.969400    1.641446
     37          6           0        6.641720   -1.883385    0.978253
     38          6           0        5.728651   -1.150352    0.204695
     39          6           0        8.658204   -1.191096    2.440884
     40          6           0        6.529646   -3.285174    0.608780
     41          8           0        7.102116   -4.285622    1.063849
     42          6           0        5.241624   -3.377939   -0.355660
     43          6           0        5.702704   -4.057761   -1.558329
     44          8           0        6.678907   -3.776175   -2.208627
     45          8           0        5.058699   -5.281255   -1.802658
     46          6           0        5.573281   -6.055962   -3.017256
     47          6           0       -2.141810   -4.821929    1.131143
     48          6           0       -2.669529   -3.729368    1.941624
     49          6           0       -3.646341   -3.851985    2.889494
     50          6           0       -4.556778   -5.080321    3.000844
     51          6           0       -4.180793   -2.705576    3.789553
     52          6           0       -4.805481   -1.518252    3.048149
     53          6           0       -6.321293   -1.657917    2.649483
     54          6           0       -6.545915   -1.543223    1.107403
     55          6           0       -6.219751   -2.857781    0.404771
     56          6           0       -7.950174   -0.900953    0.708930
     57          6           0       -7.914947    0.167019   -0.452995
     58          6           0       -8.765917    1.450684   -0.223278
     59          6           0       -9.916920    1.659603   -1.271257
     60          6           0       -9.381295    2.453879   -2.476412
     61          6           0      -11.263814    2.294962   -0.639684
     62          6           0      -12.461123    1.437426   -0.988723
     63          6           0      -13.263579    0.920822    0.297666
     64          6           0      -14.804511    1.270452    0.272149
     65          6           0      -15.104591    2.626632    0.937578
     66          6           0      -15.659934    0.215126    0.991399
     67          1           0        0.843094    0.786056   -3.402619
     68          1           0        3.371566    5.571812    0.247815
     69          1           0        7.950244    1.704891    2.452794
     70          1           0        3.195276   -3.284895   -2.459630
     71          1           0        0.851768   -1.698759   -2.867075
     72          1           0        3.445802   -2.035393   -4.249750
     73          1           0        2.390321   -0.720926   -4.826711
     74          1           0        1.776844   -2.270186   -5.037359
     75          1           0        0.980783   -2.453516   -0.541234
     76          1           0        2.319106   -3.385635    0.108469
     77          1           0        1.711433   -5.130032   -1.445340
     78          1           0        0.332291   -4.185149   -2.082719
     79          1           0        0.137556    2.599668   -4.095159
     80          1           0        0.478338    4.270875   -4.370305
     81          1           0       -0.915831    3.745532   -3.220636
     82          1           0        1.172102    6.223994    0.577352
     83          1           0        0.696373    7.624213   -0.252487
     84          1           0        2.275510    7.188049   -0.497675
     85          1           0        4.948056    5.274646    2.552616
     86          1           0        7.682945    4.447266    1.740902
     87          1           0        5.513240    6.746240    0.425298
     88          1           0        7.069235    6.452802    0.912911
     89          1           0        5.878472    7.085368    2.110055
     90          1           0        6.736163    3.357391    4.362667
     91          1           0        6.301831    4.964314    4.170111
     92          1           0        8.868468    3.877667    4.911536
     93          1           0        8.462900    5.606619    4.828982
     94          1           0        9.098565    4.717562    3.390909
     95          1           0        8.806877   -0.513133    3.281034
     96          1           0        9.557536   -0.951744    1.873293
     97          1           0        8.620908   -2.242873    2.722447
     98          1           0        4.445055   -3.936290    0.135673
     99          1           0        6.105443   -5.435550   -3.739046
    100          1           0        4.717253   -6.548212   -3.478878
    101          1           0        6.232324   -6.792837   -2.559449
    102          1           0       -1.572770   -5.469456    1.798934
    103          1           0       -2.820406   -5.350299    0.462979
    104          1           0       -2.021270   -2.857506    1.860369
    105          1           0       -5.465782   -4.871301    2.436409
    106          1           0       -4.938570   -5.379482    3.976928
    107          1           0       -4.026758   -5.955670    2.624860
    108          1           0       -3.321210   -2.357089    4.362263
    109          1           0       -4.971624   -2.996290    4.481094
    110          1           0       -4.289739   -1.332686    2.105875
    111          1           0       -4.776436   -0.616272    3.660251
    112          1           0       -6.976748   -0.945152    3.150020
    113          1           0       -6.618353   -2.637878    3.022900
    114          1           0       -5.847415   -0.839809    0.652860
    115          1           0       -5.155599   -3.028524    0.239098
    116          1           0       -6.700324   -2.811476   -0.573014
    117          1           0       -6.648689   -3.673589    0.985974
    118          1           0       -8.345710   -0.417853    1.601647
    119          1           0       -8.576908   -1.722905    0.361624
    120          1           0       -8.231121   -0.382436   -1.339522
    121          1           0       -6.858123    0.400618   -0.582631
    122          1           0       -8.083856    2.299658   -0.178765
    123          1           0       -9.193635    1.510398    0.778030
    124          1           0      -10.182225    0.691480   -1.696951
    125          1           0       -8.849054    3.306403   -2.052696
    126          1           0      -10.187948    2.827368   -3.108220
    127          1           0       -8.715752    1.854080   -3.095750
    128          1           0      -11.479280    3.284774   -1.042616
    129          1           0      -11.232883    2.469849    0.435450
    130          1           0      -12.200760    0.463688   -1.401911
    131          1           0      -13.065825    2.037603   -1.669525
    132          1           0      -12.798969    1.167575    1.252401
    133          1           0      -13.250483   -0.158704    0.146571
    134          1           0      -15.046110    1.392559   -0.783833
    135          1           0      -15.155369    3.402703    0.173831
    136          1           0      -14.345393    2.754788    1.708243
    137          1           0      -16.049220    2.769004    1.462965
    138          1           0      -16.304826   -0.240032    0.239116
    139          1           0      -16.175103    0.852645    1.710687
    140          1           0      -15.204916   -0.655083    1.464590
 ---------------------------------------------------------------------

 SCF Done:  E(RB-LYP) =  -3007.36393237     A.U. after   20 cycles

 Excitation energies and oscillator strengths:

 Excited State   1:      Singlet-A      1.6231 eV  763.86 nm  f=0.0001  <S**2>=0.000
     244 -> 247        0.70664
 This state for optimization and/or second-order correction.
 Total Energy, E(TD-HF/TD-DFT) =  -3007.30428350
 Copying the excited state density for this state as the 1-particle RhoCI density.

 Excited State   2:      Singlet-A      1.8418 eV  673.18 nm  f=0.2992  <S**2>=0.000
     245 -> 248        0.21368
     246 -> 247        0.67598
     246 <- 247       -0.13827

 Excited State   3:      Singlet-A      1.9208 eV  645.48 nm  f=0.0091  <S**2>=0.000
     243 -> 247        0.64492
     245 -> 247       -0.27561

 Excited State   4:      Singlet-A      2.0156 eV  615.12 nm  f=0.0705  <S**2>=0.000
     243 -> 247        0.28182
     245 -> 247        0.58631
     246 -> 248       -0.22780

 Excited State   5:      Singlet-A      2.2468 eV  551.83 nm  f=0.0004  <S**2>=0.000
     242 -> 247        0.70676

 The electronic state is 1-A.
 Alpha  occ. eigenvalues --  -46.29153 -18.81528 -18.80781 -18.77060 -18.75891
 Alpha  occ. eigenvalues --  -18.75874 -18.74428 -14.03702 -14.03600 -14.01832
 Alpha  occ. eigenvalues --  -14.00812 -10.04663 -10.02999  -9.99857  -9.98924
 Alpha  occ. eigenvalues --   -9.98110  -9.97443  -9.97272  -9.96962  -9.96728
 Alpha  occ. eigenvalues --   -9.96597  -9.96519  -9.96459  -9.95262  -9.94551
 Alpha  occ. eigenvalues --   -9.94505  -9.94397  -9.94260  -9.94041  -9.93860
 Alpha  occ. eigenvalues --   -9.93814  -9.93809  -9.93779  -9.93675  -9.93658
 Alpha  occ. eigenvalues --   -9.93451  -9.93445  -9.93332  -9.93236  -9.93076
 Alpha  occ. eigenvalues --   -9.93013  -9.92839  -9.92648  -9.92529  -9.92384
 Alpha  occ. eigenvalues --   -9.92373  -9.92320  -9.92308  -9.92215  -9.92055
 Alpha  occ. eigenvalues --   -9.91829  -9.91765  -9.91758  -9.91576  -9.91378
 Alpha  occ. eigenvalues --   -9.91333  -9.91164  -9.91146  -9.91093  -9.90898
 Alpha  occ. eigenvalues --   -9.90875  -9.90814  -9.90803  -9.90582  -9.90478
 Alpha  occ. eigenvalues --   -9.90301  -2.93529  -1.73950  -1.73443  -1.73214
 Alpha  occ. eigenvalues --   -0.96395  -0.96321  -0.90561  -0.90417  -0.89545
 Alpha  occ. eigenvalues --   -0.88935  -0.88022  -0.87969  -0.86561  -0.84720
 Alpha  occ. eigenvalues --   -0.75314  -0.73512  -0.72963  -0.72695  -0.72459
 Alpha  occ. eigenvalues --   -0.72159  -0.71581  -0.71454  -0.71320  -0.70488
 Alpha  occ. eigenvalues --   -0.70189  -0.69454  -0.68320  -0.67748  -0.67660
 Alpha  occ. eigenvalues --   -0.66756  -0.66171  -0.65327  -0.64977  -0.64499
 Alpha  occ. eigenvalues --   -0.64008  -0.62859  -0.62313  -0.61824  -0.60774
 Alpha  occ. eigenvalues --   -0.60592  -0.60179  -0.59534  -0.59053  -0.58915
 Alpha  occ. eigenvalues --   -0.58616  -0.58129  -0.57318  -0.55654  -0.55032
 Alpha  occ. eigenvalues --   -0.54245  -0.53695  -0.53376  -0.52152  -0.52004
 Alpha  occ. eigenvalues --   -0.51807  -0.51300  -0.50646  -0.50492  -0.49575
 Alpha  occ. eigenvalues --   -0.49371  -0.49037  -0.48832  -0.47533  -0.47255
 Alpha  occ. eigenvalues --   -0.46685  -0.46587  -0.46194  -0.45771  -0.44726
 Alpha  occ. eigenvalues --   -0.44559  -0.43754  -0.43381  -0.43128  -0.42967
 Alpha  occ. eigenvalues --   -0.42419  -0.41838  -0.41334  -0.41156  -0.40995
 Alpha  occ. eigenvalues --   -0.40835  -0.40588  -0.40519  -0.40113  -0.40006
 Alpha  occ. eigenvalues --   -0.39897  -0.39673  -0.39573  -0.39430  -0.39196
 Alpha  occ. eigenvalues --   -0.38926  -0.38895  -0.38492  -0.38393  -0.38224
 Alpha  occ. eigenvalues --   -0.38134  -0.37907  -0.37636  -0.37388  -0.37309
 Alpha  occ. eigenvalues --   -0.37278  -0.36940  -0.36931  -0.36580  -0.36456
 Alpha  occ. eigenvalues --   -0.36304  -0.36182  -0.36088  -0.35789  -0.35585
 Alpha  occ. eigenvalues --   -0.35537  -0.35338  -0.35182  -0.35063  -0.34739
 Alpha  occ. eigenvalues --   -0.34484  -0.34389  -0.34309  -0.34162  -0.33820
 Alpha  occ. eigenvalues --   -0.33801  -0.33789  -0.33660  -0.33551  -0.33208
 Alpha  occ. eigenvalues --   -0.33036  -0.33009  -0.32927  -0.32615  -0.32524
 Alpha  occ. eigenvalues --   -0.32289  -0.32203  -0.31973  -0.31849  -0.31520
 Alpha  occ. eigenvalues --   -0.31420  -0.31064  -0.30911  -0.30610  -0.30436
 Alpha  occ. eigenvalues --   -0.30274  -0.30088  -0.29999  -0.29900  -0.29653
 Alpha  occ. eigenvalues --   -0.29559  -0.29470  -0.29399  -0.29243  -0.29081
 Alpha  occ. eigenvalues --   -0.28857  -0.28541  -0.28458  -0.28308  -0.28257
 Alpha  occ. eigenvalues --   -0.27559  -0.27161  -0.27054  -0.26647  -0.26431
 Alpha  occ. eigenvalues --   -0.26402  -0.26296  -0.26173  -0.25601  -0.25144
 Alpha  occ. eigenvalues --   -0.25025  -0.24378  -0.24158  -0.23959  -0.23844
 Alpha  occ. eigenvalues --   -0.23377  -0.22526  -0.21861  -0.21391  -0.21232
 Alpha  occ. eigenvalues --   -0.20664  -0.20076  -0.18813  -0.17686  -0.17478
 Alpha  occ. eigenvalues --   -0.16291
 Alpha virt. eigenvalues --   -0.11821  -0.07606  -0.05960  -0.04719  -0.03762
 Alpha virt. eigenvalues --   -0.03228  -0.02835  -0.02253  -0.01616  -0.00025
 Alpha virt. eigenvalues --    0.00792   0.01305   0.02357   0.02910   0.02978

 Mulliken charges:
               1
     1  Mg   0.698466
     2  C   -0.008812
     3  C   -0.057974
     4  C   -0.030037
     5  C   -0.069988
     6  N   -0.173091
     7  C   -0.055267
     8  C    0.027974
     9  C    0.004288
    10  C   -0.006261
    11  C    0.140078
    12  C    0.049426
    13  C    0.172421
    14  C    0.090839
    15  O   -0.182118
    16  O   -0.319201
    17  N   -0.343920
    18  C    0.154304
    19  C   -0.170529
    20  C    0.064100
    21  C    0.146677
    22  C    0.243508
    23  C   -0.110679
    24  O   -0.184901
    25  C    0.149576
    26  N   -0.203296
    27  C   -0.008290
    28  C    0.057726
    29  C    0.006941
    30  C    0.027107
    31  C    0.120919
    32  C    0.069662
    33  C    0.061265
    34  N   -0.129140
    35  C    0.085436
    36  C   -0.154554
    37  C    0.070617
    38  C   -0.005058
    39  C    0.173637
    40  C   -0.013693
    41  O   -0.148538
    42  C    0.097220
    43  C    0.084136
    44  O   -0.169457
    45  O   -0.313210
    46  C    0.202059
    47  C    0.307586
    48  C   -0.099827
    49  C   -0.116189
    50  C    0.114255
    51  C    0.143751
    52  C    0.072914
    53  C    0.096261
    54  C   -0.100888
    55  C    0.106808
    56  C    0.085235
    57  C    0.061472
    58  C    0.115566
    59  C   -0.068200
    60  C    0.103987
    61  C    0.111408
    62  C    0.049258
    63  C    0.075803
    64  C   -0.114770
    65  C    0.094230
    66  C    0.124362
    67  H   -0.058642
    68  H   -0.089844
    69  H   -0.061535
    70  H   -0.018880
    71  H   -0.031466
    72  H    0.003647
    73  H   -0.023288
    74  H   -0.002115
    75  H   -0.021301
    76  H   -0.006654
    77  H   -0.005376
    78  H   -0.012164
    79  H   -0.048447
    80  H    0.007747
    81  H    0.025851
    82  H    0.008100
    83  H   -0.025988
    84  H    0.011102
    85  H   -0.019035
    86  H   -0.015908
    87  H   -0.019857
    88  H   -0.020418
    89  H   -0.009595
    90  H   -0.020458
    91  H   -0.034210
    92  H   -0.003485
    93  H    0.003049
    94  H   -0.009840
    95  H   -0.018117
    96  H   -0.000508
    97  H    0.020528
    98  H   -0.005056
    99  H    0.032656
   100  H    0.017080
   101  H    0.027645
   102  H    0.014225
   103  H    0.014772
   104  H   -0.023229
   105  H   -0.002717
   106  H   -0.009485
   107  H   -0.008740
   108  H   -0.020275
   109  H   -0.031202
   110  H   -0.023489
   111  H   -0.030967
   112  H   -0.037086
   113  H   -0.043735
   114  H   -0.033831
   115  H   -0.004058
   116  H   -0.028330
   117  H   -0.008547
   118  H   -0.033205
   119  H   -0.034042
   120  H   -0.025346
   121  H   -0.033636
   122  H   -0.038380
   123  H   -0.039781
   124  H   -0.027988
   125  H   -0.017876
   126  H   -0.019377
   127  H   -0.015163
   128  H   -0.042833
   129  H   -0.033118
   130  H   -0.020736
   131  H   -0.018983
   132  H   -0.020535
   133  H   -0.038574
   134  H   -0.034305
   135  H   -0.017256
   136  H   -0.017623
   137  H   -0.017237
   138  H   -0.016956
   139  H   -0.022747
   140  H   -0.016219
 Sum of Mulliken charges =  -0.00000

 Dipole moment (field-independent basis, Debye):
    X=             -1.3196    Y=              3.6920    Z=              0.2938  Tot=              3.9317
 Quadrupole moment (field-independent basis, Debye-Ang):
   XX=           -404.5729   YY=           -428.6044   ZZ=           -390.1193
   XY=             57.4573   XZ=              0.7599   YZ=             32.3192

 Normal termination of Gaussian 16 at Wed May  4 12:36:56 2022.
