 Gaussian 16, Revision A.03,
 Gaussian 16:  ES64L-G16RevA.03 25-Dec-2016

 -----------------------------------
 #p cam-b3lyp/Def2SVP td=(nstates=5)
 -----------------------------------

 --------------------------------------------------------
 step_1701_chromophore_17 TDDFT with cam-b3lyp functional
 --------------------------------------------------------
 Symbolic Z-matrix:
 Charge =  0 Multiplicity = 1

                         Standard orientation:
 ---------------------------------------------------------------------
 Center     Atomic      Atomic             Coordinates (Angstroms)
 Number     Number       Type             X           Y           Z
 ---------------------------------------------------------------------
      1         12           0        4.496938    1.484704   -0.700818
      2          6           0        4.785359   -1.959027   -0.559792
      3          6           0        1.685871    0.998156   -2.741885
      4          6           0        3.676021    4.552330    0.001924
      5          6           0        7.047784    1.568640    1.852087
      6          7           0        3.414457   -0.271509   -1.574430
      7          6           0        3.636171   -1.546820   -1.293053
      8          6           0        2.694949   -2.482470   -1.917314
      9          6           0        1.927958   -1.531223   -2.892381
     10          6           0        2.327009   -0.170599   -2.379394
     11          6           0        2.412799   -1.703920   -4.356723
     12          6           0        1.742349   -3.190611   -0.795822
     13          6           0        0.939336   -4.400069   -1.203722
     14          6           0        0.072500   -5.029614   -0.062702
     15          8           0        0.410326   -6.060002    0.512144
     16          8           0       -1.093958   -4.309303    0.219381
     17          7           0        3.023683    2.698937   -1.451755
     18          6           0        1.943772    2.352999   -2.288366
     19          6           0        1.181404    3.502825   -2.605086
     20          6           0        1.603793    4.491049   -1.704976
     21          6           0        2.842315    3.953975   -0.924626
     22          6           0        0.083602    3.581500   -3.624181
     23          6           0        0.976182    5.810657   -1.491029
     24          8           0        0.023436    6.153296   -2.195191
     25          6           0        1.295694    6.722870   -0.384335
     26          7           0        5.228002    2.869213    0.851623
     27          6           0        4.803608    4.143631    0.778395
     28          6           0        5.613528    5.004250    1.733321
     29          6           0        6.765661    4.115700    2.227442
     30          6           0        6.278836    2.708805    1.707774
     31          6           0        6.052707    6.378564    1.297981
     32          6           0        7.032406    4.244185    3.802679
     33          6           0        8.465331    4.667729    4.276921
     34          7           0        5.824865    0.082466    0.379195
     35          6           0        6.816256    0.284380    1.312362
     36          6           0        7.427264   -0.969400    1.641446
     37          6           0        6.641720   -1.883385    0.978253
     38          6           0        5.728651   -1.150352    0.204695
     39          6           0        8.658204   -1.191096    2.440884
     40          6           0        6.529646   -3.285174    0.608780
     41          8           0        7.102116   -4.285622    1.063849
     42          6           0        5.241624   -3.377939   -0.355660
     43          6           0        5.702704   -4.057761   -1.558329
     44          8           0        6.678907   -3.776175   -2.208627
     45          8           0        5.058699   -5.281255   -1.802658
     46          6           0        5.573281   -6.055962   -3.017256
     47          6           0       -2.141810   -4.821929    1.131143
     48          6           0       -2.669529   -3.729368    1.941624
     49          6           0       -3.646341   -3.851985    2.889494
     50          6           0       -4.556778   -5.080321    3.000844
     51          6           0       -4.180793   -2.705576    3.789553
     52          6           0       -4.805481   -1.518252    3.048149
     53          6           0       -6.321293   -1.657917    2.649483
     54          6           0       -6.545915   -1.543223    1.107403
     55          6           0       -6.219751   -2.857781    0.404771
     56          6           0       -7.950174   -0.900953    0.708930
     57          6           0       -7.914947    0.167019   -0.452995
     58          6           0       -8.765917    1.450684   -0.223278
     59          6           0       -9.916920    1.659603   -1.271257
     60          6           0       -9.381295    2.453879   -2.476412
     61          6           0      -11.263814    2.294962   -0.639684
     62          6           0      -12.461123    1.437426   -0.988723
     63          6           0      -13.263579    0.920822    0.297666
     64          6           0      -14.804511    1.270452    0.272149
     65          6           0      -15.104591    2.626632    0.937578
     66          6           0      -15.659934    0.215126    0.991399
     67          1           0        0.843094    0.786056   -3.402619
     68          1           0        3.371566    5.571812    0.247815
     69          1           0        7.950244    1.704891    2.452794
     70          1           0        3.195276   -3.284895   -2.459630
     71          1           0        0.851768   -1.698759   -2.867075
     72          1           0        3.445802   -2.035393   -4.249750
     73          1           0        2.390321   -0.720926   -4.826711
     74          1           0        1.776844   -2.270186   -5.037359
     75          1           0        0.980783   -2.453516   -0.541234
     76          1           0        2.319106   -3.385635    0.108469
     77          1           0        1.711433   -5.130032   -1.445340
     78          1           0        0.332291   -4.185149   -2.082719
     79          1           0        0.137556    2.599668   -4.095159
     80          1           0        0.478338    4.270875   -4.370305
     81          1           0       -0.915831    3.745532   -3.220636
     82          1           0        1.172102    6.223994    0.577352
     83          1           0        0.696373    7.624213   -0.252487
     84          1           0        2.275510    7.188049   -0.497675
     85          1           0        4.948056    5.274646    2.552616
     86          1           0        7.682945    4.447266    1.740902
     87          1           0        5.513240    6.746240    0.425298
     88          1           0        7.069235    6.452802    0.912911
     89          1           0        5.878472    7.085368    2.110055
     90          1           0        6.736163    3.357391    4.362667
     91          1           0        6.301831    4.964314    4.170111
     92          1           0        8.868468    3.877667    4.911536
     93          1           0        8.462900    5.606619    4.828982
     94          1           0        9.098565    4.717562    3.390909
     95          1           0        8.806877   -0.513133    3.281034
     96          1           0        9.557536   -0.951744    1.873293
     97          1           0        8.620908   -2.242873    2.722447
     98          1           0        4.445055   -3.936290    0.135673
     99          1           0        6.105443   -5.435550   -3.739046
    100          1           0        4.717253   -6.548212   -3.478878
    101          1           0        6.232324   -6.792837   -2.559449
    102          1           0       -1.572770   -5.469456    1.798934
    103          1           0       -2.820406   -5.350299    0.462979
    104          1           0       -2.021270   -2.857506    1.860369
    105          1           0       -5.465782   -4.871301    2.436409
    106          1           0       -4.938570   -5.379482    3.976928
    107          1           0       -4.026758   -5.955670    2.624860
    108          1           0       -3.321210   -2.357089    4.362263
    109          1           0       -4.971624   -2.996290    4.481094
    110          1           0       -4.289739   -1.332686    2.105875
    111          1           0       -4.776436   -0.616272    3.660251
    112          1           0       -6.976748   -0.945152    3.150020
    113          1           0       -6.618353   -2.637878    3.022900
    114          1           0       -5.847415   -0.839809    0.652860
    115          1           0       -5.155599   -3.028524    0.239098
    116          1           0       -6.700324   -2.811476   -0.573014
    117          1           0       -6.648689   -3.673589    0.985974
    118          1           0       -8.345710   -0.417853    1.601647
    119          1           0       -8.576908   -1.722905    0.361624
    120          1           0       -8.231121   -0.382436   -1.339522
    121          1           0       -6.858123    0.400618   -0.582631
    122          1           0       -8.083856    2.299658   -0.178765
    123          1           0       -9.193635    1.510398    0.778030
    124          1           0      -10.182225    0.691480   -1.696951
    125          1           0       -8.849054    3.306403   -2.052696
    126          1           0      -10.187948    2.827368   -3.108220
    127          1           0       -8.715752    1.854080   -3.095750
    128          1           0      -11.479280    3.284774   -1.042616
    129          1           0      -11.232883    2.469849    0.435450
    130          1           0      -12.200760    0.463688   -1.401911
    131          1           0      -13.065825    2.037603   -1.669525
    132          1           0      -12.798969    1.167575    1.252401
    133          1           0      -13.250483   -0.158704    0.146571
    134          1           0      -15.046110    1.392559   -0.783833
    135          1           0      -15.155369    3.402703    0.173831
    136          1           0      -14.345393    2.754788    1.708243
    137          1           0      -16.049220    2.769004    1.462965
    138          1           0      -16.304826   -0.240032    0.239116
    139          1           0      -16.175103    0.852645    1.710687
    140          1           0      -15.204916   -0.655083    1.464590
 ---------------------------------------------------------------------

 SCF Done:  E(RCAM-B3LYP) =  -3007.15256709     A.U. after   19 cycles

 Excitation energies and oscillator strengths:

 Excited State   1:      Singlet-A      1.7636 eV  703.04 nm  f=0.3849  <S**2>=0.000
     245 -> 248        0.18312
     246 -> 247        0.67984
     245 <- 248        0.10305
 This state for optimization and/or second-order correction.
 Total Energy, E(TD-HF/TD-DFT) =  -3007.08775781
 Copying the excited state density for this state as the 1-particle RhoCI density.

 Excited State   2:      Singlet-A      2.2123 eV  560.44 nm  f=0.1010  <S**2>=0.000
     245 -> 247        0.63280
     246 -> 248       -0.29493

 Excited State   3:      Singlet-A      3.2887 eV  377.00 nm  f=0.0001  <S**2>=0.000
     242 -> 247        0.56320
     242 -> 248        0.18359
     242 -> 249        0.25640
     242 -> 251       -0.22366

 Excited State   4:      Singlet-A      3.4400 eV  360.42 nm  f=0.3356  <S**2>=0.000
     240 -> 247        0.18949
     241 -> 247       -0.31699
     241 -> 249        0.10047
     243 -> 247        0.19794
     245 -> 247        0.20302
     246 -> 248        0.49874

 Excited State   5:      Singlet-A      3.4614 eV  358.19 nm  f=0.0325  <S**2>=0.000
     240 -> 247        0.22182
     241 -> 247        0.19929
     241 -> 249       -0.15874
     241 -> 251       -0.11064
     243 -> 247        0.58122
     246 -> 248       -0.10847

 The electronic state is 1-A.
 Alpha  occ. eigenvalues --  -46.90862 -19.24279 -19.23613 -19.19976 -19.18960
 Alpha  occ. eigenvalues --  -19.18745 -19.17913 -14.42605 -14.42509 -14.40515
 Alpha  occ. eigenvalues --  -14.39059 -10.39978 -10.38364 -10.35025 -10.34287
 Alpha  occ. eigenvalues --  -10.32171 -10.32080 -10.31787 -10.31300 -10.31279
 Alpha  occ. eigenvalues --  -10.31095 -10.31039 -10.30738 -10.29061 -10.28560
 Alpha  occ. eigenvalues --  -10.28555 -10.28520 -10.28414 -10.28246 -10.28006
 Alpha  occ. eigenvalues --  -10.28005 -10.27941 -10.27864 -10.27783 -10.27736
 Alpha  occ. eigenvalues --  -10.27680 -10.27658 -10.27635 -10.27586 -10.27187
 Alpha  occ. eigenvalues --  -10.27003 -10.26585 -10.26447 -10.26245 -10.26225
 Alpha  occ. eigenvalues --  -10.26171 -10.26064 -10.25994 -10.25965 -10.25891
 Alpha  occ. eigenvalues --  -10.25853 -10.25576 -10.25485 -10.25239 -10.25081
 Alpha  occ. eigenvalues --  -10.25042 -10.24872 -10.24866 -10.24823 -10.24580
 Alpha  occ. eigenvalues --  -10.24574 -10.24518 -10.24393 -10.24186 -10.24071
 Alpha  occ. eigenvalues --  -10.23876  -3.19128  -1.94030  -1.93603  -1.93399
 Alpha  occ. eigenvalues --   -1.14846  -1.14728  -1.09203  -1.08480  -1.07302
 Alpha  occ. eigenvalues --   -1.06520  -1.05782  -1.05675  -1.04311  -1.02509
 Alpha  occ. eigenvalues --   -0.92316  -0.90343  -0.89712  -0.89405  -0.89313
 Alpha  occ. eigenvalues --   -0.88915  -0.88230  -0.88062  -0.87835  -0.87050
 Alpha  occ. eigenvalues --   -0.86876  -0.85930  -0.84610  -0.83965  -0.83891
 Alpha  occ. eigenvalues --   -0.82845  -0.82480  -0.81305  -0.80806  -0.80277
 Alpha  occ. eigenvalues --   -0.79792  -0.78379  -0.77924  -0.77572  -0.76170
 Alpha  occ. eigenvalues --   -0.75895  -0.75500  -0.74860  -0.74314  -0.74172
 Alpha  occ. eigenvalues --   -0.73654  -0.73065  -0.72295  -0.70490  -0.69641
 Alpha  occ. eigenvalues --   -0.68880  -0.68255  -0.67922  -0.66273  -0.66189
 Alpha  occ. eigenvalues --   -0.66114  -0.65484  -0.64670  -0.64611  -0.63592
 Alpha  occ. eigenvalues --   -0.63138  -0.62914  -0.62772  -0.61212  -0.60805
 Alpha  occ. eigenvalues --   -0.60209  -0.60182  -0.59572  -0.59290  -0.58125
 Alpha  occ. eigenvalues --   -0.58120  -0.57063  -0.56622  -0.56273  -0.56134
 Alpha  occ. eigenvalues --   -0.55383  -0.54845  -0.54315  -0.53869  -0.53767
 Alpha  occ. eigenvalues --   -0.53546  -0.53213  -0.53143  -0.52975  -0.52731
 Alpha  occ. eigenvalues --   -0.52620  -0.52258  -0.52138  -0.52022  -0.51988
 Alpha  occ. eigenvalues --   -0.51822  -0.51588  -0.51179  -0.50825  -0.50732
 Alpha  occ. eigenvalues --   -0.50679  -0.50215  -0.49952  -0.49734  -0.49637
 Alpha  occ. eigenvalues --   -0.49557  -0.49297  -0.49088  -0.49070  -0.48947
 Alpha  occ. eigenvalues --   -0.48687  -0.48524  -0.48427  -0.48043  -0.47685
 Alpha  occ. eigenvalues --   -0.47530  -0.47469  -0.47152  -0.47010  -0.46684
 Alpha  occ. eigenvalues --   -0.46495  -0.46226  -0.46218  -0.46092  -0.45806
 Alpha  occ. eigenvalues --   -0.45587  -0.45492  -0.45368  -0.45295  -0.44995
 Alpha  occ. eigenvalues --   -0.44772  -0.44634  -0.44566  -0.44292  -0.44015
 Alpha  occ. eigenvalues --   -0.43932  -0.43724  -0.43460  -0.43373  -0.42930
 Alpha  occ. eigenvalues --   -0.42910  -0.42494  -0.42425  -0.42255  -0.41891
 Alpha  occ. eigenvalues --   -0.41704  -0.41649  -0.41470  -0.41298  -0.41176
 Alpha  occ. eigenvalues --   -0.40984  -0.40757  -0.40708  -0.40351  -0.40180
 Alpha  occ. eigenvalues --   -0.40114  -0.39747  -0.39668  -0.39352  -0.39290
 Alpha  occ. eigenvalues --   -0.38404  -0.37966  -0.37889  -0.37842  -0.37351
 Alpha  occ. eigenvalues --   -0.37192  -0.37106  -0.37034  -0.36488  -0.36286
 Alpha  occ. eigenvalues --   -0.35632  -0.35597  -0.34804  -0.34796  -0.33960
 Alpha  occ. eigenvalues --   -0.33901  -0.33707  -0.33365  -0.31569  -0.30519
 Alpha  occ. eigenvalues --   -0.30492  -0.30441  -0.30173  -0.29653  -0.24238
 Alpha  occ. eigenvalues --   -0.21628
 Alpha virt. eigenvalues --   -0.08929  -0.02560   0.00539   0.01353   0.02277
 Alpha virt. eigenvalues --    0.04342   0.04607   0.05415   0.05563   0.06662
 Alpha virt. eigenvalues --    0.07535   0.08192   0.08769   0.09116   0.09203

 Mulliken charges:
               1
     1  Mg   0.828056
     2  C   -0.030726
     3  C   -0.074236
     4  C   -0.058340
     5  C   -0.068052
     6  N   -0.243527
     7  C   -0.013878
     8  C   -0.030054
     9  C   -0.051943
    10  C    0.011885
    11  C    0.083684
    12  C    0.006939
    13  C    0.103602
    14  C    0.173622
    15  O   -0.223804
    16  O   -0.386652
    17  N   -0.431836
    18  C    0.163015
    19  C   -0.169819
    20  C   -0.005596
    21  C    0.178366
    22  C    0.188820
    23  C   -0.031726
    24  O   -0.222636
    25  C    0.058731
    26  N   -0.274287
    27  C    0.024353
    28  C   -0.004310
    29  C   -0.047385
    30  C    0.043710
    31  C    0.061916
    32  C    0.015559
    33  C    0.001223
    34  N   -0.219676
    35  C    0.079506
    36  C   -0.150215
    37  C   -0.007159
    38  C    0.037345
    39  C    0.121193
    40  C    0.083797
    41  O   -0.188474
    42  C    0.008816
    43  C    0.176952
    44  O   -0.207199
    45  O   -0.378419
    46  C    0.166047
    47  C    0.275593
    48  C   -0.122103
    49  C   -0.143557
    50  C    0.056008
    51  C    0.086363
    52  C    0.018571
    53  C    0.043435
    54  C   -0.153604
    55  C    0.052255
    56  C    0.036156
    57  C    0.009698
    58  C    0.059699
    59  C   -0.124547
    60  C    0.050646
    61  C    0.056045
    62  C   -0.001825
    63  C    0.023745
    64  C   -0.169943
    65  C    0.033669
    66  C    0.060817
    67  H   -0.023359
    68  H   -0.053343
    69  H   -0.026637
    70  H    0.015794
    71  H    0.004118
    72  H    0.026835
    73  H    0.003139
    74  H    0.023847
    75  H    0.008256
    76  H    0.021672
    77  H    0.027234
    78  H    0.018141
    79  H   -0.020746
    80  H    0.037002
    81  H    0.054209
    82  H    0.037794
    83  H    0.013460
    84  H    0.038285
    85  H    0.015490
    86  H    0.015529
    87  H    0.005213
    88  H    0.006296
    89  H    0.016080
    90  H    0.010134
    91  H   -0.005865
    92  H    0.019445
    93  H    0.025975
    94  H    0.011733
    95  H    0.006046
    96  H    0.025901
    97  H    0.046380
    98  H    0.039124
    99  H    0.057344
   100  H    0.037801
   101  H    0.050317
   102  H    0.047187
   103  H    0.039475
   104  H    0.012128
   105  H    0.017813
   106  H    0.017123
   107  H    0.015086
   108  H    0.011302
   109  H   -0.001417
   110  H    0.003039
   111  H   -0.000272
   112  H   -0.006826
   113  H   -0.017528
   114  H   -0.004053
   115  H    0.018737
   116  H   -0.003316
   117  H    0.010727
   118  H   -0.006257
   119  H   -0.005808
   120  H    0.000426
   121  H   -0.004971
   122  H   -0.008780
   123  H   -0.010767
   124  H    0.001084
   125  H    0.004129
   126  H    0.004451
   127  H    0.008463
   128  H   -0.012572
   129  H   -0.005358
   130  H    0.006927
   131  H    0.007176
   132  H    0.004696
   133  H   -0.008751
   134  H   -0.002774
   135  H    0.006326
   136  H    0.004937
   137  H    0.007532
   138  H    0.007353
   139  H    0.001742
   140  H    0.008645
 Sum of Mulliken charges =  -0.00000

 Dipole moment (field-independent basis, Debye):
    X=             -1.7845    Y=              4.5798    Z=             -0.0015  Tot=              4.9152
 Quadrupole moment (field-independent basis, Debye-Ang):
   XX=           -407.5166   YY=           -424.6203   ZZ=           -388.3131
   XY=             60.9931   XZ=              0.0921   YZ=             34.1197

 Normal termination of Gaussian 16 at Wed May  4 11:35:47 2022.
