 Gaussian 16, Revision A.03,
 Gaussian 16:  ES64L-G16RevA.03 25-Dec-2016

 ---------------------------------
 #p PBE1PBE/Def2SVP td=(nstates=5)
 ---------------------------------

 ------------------------------------------------------
 step_1701_chromophore_17 TDDFT with PBE1PBE functional
 ------------------------------------------------------
 Symbolic Z-matrix:
 Charge =  0 Multiplicity = 1

                         Standard orientation:
 ---------------------------------------------------------------------
 Center     Atomic      Atomic             Coordinates (Angstroms)
 Number     Number       Type             X           Y           Z
 ---------------------------------------------------------------------
      1         12           0        4.496938    1.484704   -0.700818
      2          6           0        4.785359   -1.959027   -0.559792
      3          6           0        1.685871    0.998156   -2.741885
      4          6           0        3.676021    4.552330    0.001924
      5          6           0        7.047784    1.568640    1.852087
      6          7           0        3.414457   -0.271509   -1.574430
      7          6           0        3.636171   -1.546820   -1.293053
      8          6           0        2.694949   -2.482470   -1.917314
      9          6           0        1.927958   -1.531223   -2.892381
     10          6           0        2.327009   -0.170599   -2.379394
     11          6           0        2.412799   -1.703920   -4.356723
     12          6           0        1.742349   -3.190611   -0.795822
     13          6           0        0.939336   -4.400069   -1.203722
     14          6           0        0.072500   -5.029614   -0.062702
     15          8           0        0.410326   -6.060002    0.512144
     16          8           0       -1.093958   -4.309303    0.219381
     17          7           0        3.023683    2.698937   -1.451755
     18          6           0        1.943772    2.352999   -2.288366
     19          6           0        1.181404    3.502825   -2.605086
     20          6           0        1.603793    4.491049   -1.704976
     21          6           0        2.842315    3.953975   -0.924626
     22          6           0        0.083602    3.581500   -3.624181
     23          6           0        0.976182    5.810657   -1.491029
     24          8           0        0.023436    6.153296   -2.195191
     25          6           0        1.295694    6.722870   -0.384335
     26          7           0        5.228002    2.869213    0.851623
     27          6           0        4.803608    4.143631    0.778395
     28          6           0        5.613528    5.004250    1.733321
     29          6           0        6.765661    4.115700    2.227442
     30          6           0        6.278836    2.708805    1.707774
     31          6           0        6.052707    6.378564    1.297981
     32          6           0        7.032406    4.244185    3.802679
     33          6           0        8.465331    4.667729    4.276921
     34          7           0        5.824865    0.082466    0.379195
     35          6           0        6.816256    0.284380    1.312362
     36          6           0        7.427264   -0.969400    1.641446
     37          6           0        6.641720   -1.883385    0.978253
     38          6           0        5.728651   -1.150352    0.204695
     39          6           0        8.658204   -1.191096    2.440884
     40          6           0        6.529646   -3.285174    0.608780
     41          8           0        7.102116   -4.285622    1.063849
     42          6           0        5.241624   -3.377939   -0.355660
     43          6           0        5.702704   -4.057761   -1.558329
     44          8           0        6.678907   -3.776175   -2.208627
     45          8           0        5.058699   -5.281255   -1.802658
     46          6           0        5.573281   -6.055962   -3.017256
     47          6           0       -2.141810   -4.821929    1.131143
     48          6           0       -2.669529   -3.729368    1.941624
     49          6           0       -3.646341   -3.851985    2.889494
     50          6           0       -4.556778   -5.080321    3.000844
     51          6           0       -4.180793   -2.705576    3.789553
     52          6           0       -4.805481   -1.518252    3.048149
     53          6           0       -6.321293   -1.657917    2.649483
     54          6           0       -6.545915   -1.543223    1.107403
     55          6           0       -6.219751   -2.857781    0.404771
     56          6           0       -7.950174   -0.900953    0.708930
     57          6           0       -7.914947    0.167019   -0.452995
     58          6           0       -8.765917    1.450684   -0.223278
     59          6           0       -9.916920    1.659603   -1.271257
     60          6           0       -9.381295    2.453879   -2.476412
     61          6           0      -11.263814    2.294962   -0.639684
     62          6           0      -12.461123    1.437426   -0.988723
     63          6           0      -13.263579    0.920822    0.297666
     64          6           0      -14.804511    1.270452    0.272149
     65          6           0      -15.104591    2.626632    0.937578
     66          6           0      -15.659934    0.215126    0.991399
     67          1           0        0.843094    0.786056   -3.402619
     68          1           0        3.371566    5.571812    0.247815
     69          1           0        7.950244    1.704891    2.452794
     70          1           0        3.195276   -3.284895   -2.459630
     71          1           0        0.851768   -1.698759   -2.867075
     72          1           0        3.445802   -2.035393   -4.249750
     73          1           0        2.390321   -0.720926   -4.826711
     74          1           0        1.776844   -2.270186   -5.037359
     75          1           0        0.980783   -2.453516   -0.541234
     76          1           0        2.319106   -3.385635    0.108469
     77          1           0        1.711433   -5.130032   -1.445340
     78          1           0        0.332291   -4.185149   -2.082719
     79          1           0        0.137556    2.599668   -4.095159
     80          1           0        0.478338    4.270875   -4.370305
     81          1           0       -0.915831    3.745532   -3.220636
     82          1           0        1.172102    6.223994    0.577352
     83          1           0        0.696373    7.624213   -0.252487
     84          1           0        2.275510    7.188049   -0.497675
     85          1           0        4.948056    5.274646    2.552616
     86          1           0        7.682945    4.447266    1.740902
     87          1           0        5.513240    6.746240    0.425298
     88          1           0        7.069235    6.452802    0.912911
     89          1           0        5.878472    7.085368    2.110055
     90          1           0        6.736163    3.357391    4.362667
     91          1           0        6.301831    4.964314    4.170111
     92          1           0        8.868468    3.877667    4.911536
     93          1           0        8.462900    5.606619    4.828982
     94          1           0        9.098565    4.717562    3.390909
     95          1           0        8.806877   -0.513133    3.281034
     96          1           0        9.557536   -0.951744    1.873293
     97          1           0        8.620908   -2.242873    2.722447
     98          1           0        4.445055   -3.936290    0.135673
     99          1           0        6.105443   -5.435550   -3.739046
    100          1           0        4.717253   -6.548212   -3.478878
    101          1           0        6.232324   -6.792837   -2.559449
    102          1           0       -1.572770   -5.469456    1.798934
    103          1           0       -2.820406   -5.350299    0.462979
    104          1           0       -2.021270   -2.857506    1.860369
    105          1           0       -5.465782   -4.871301    2.436409
    106          1           0       -4.938570   -5.379482    3.976928
    107          1           0       -4.026758   -5.955670    2.624860
    108          1           0       -3.321210   -2.357089    4.362263
    109          1           0       -4.971624   -2.996290    4.481094
    110          1           0       -4.289739   -1.332686    2.105875
    111          1           0       -4.776436   -0.616272    3.660251
    112          1           0       -6.976748   -0.945152    3.150020
    113          1           0       -6.618353   -2.637878    3.022900
    114          1           0       -5.847415   -0.839809    0.652860
    115          1           0       -5.155599   -3.028524    0.239098
    116          1           0       -6.700324   -2.811476   -0.573014
    117          1           0       -6.648689   -3.673589    0.985974
    118          1           0       -8.345710   -0.417853    1.601647
    119          1           0       -8.576908   -1.722905    0.361624
    120          1           0       -8.231121   -0.382436   -1.339522
    121          1           0       -6.858123    0.400618   -0.582631
    122          1           0       -8.083856    2.299658   -0.178765
    123          1           0       -9.193635    1.510398    0.778030
    124          1           0      -10.182225    0.691480   -1.696951
    125          1           0       -8.849054    3.306403   -2.052696
    126          1           0      -10.187948    2.827368   -3.108220
    127          1           0       -8.715752    1.854080   -3.095750
    128          1           0      -11.479280    3.284774   -1.042616
    129          1           0      -11.232883    2.469849    0.435450
    130          1           0      -12.200760    0.463688   -1.401911
    131          1           0      -13.065825    2.037603   -1.669525
    132          1           0      -12.798969    1.167575    1.252401
    133          1           0      -13.250483   -0.158704    0.146571
    134          1           0      -15.046110    1.392559   -0.783833
    135          1           0      -15.155369    3.402703    0.173831
    136          1           0      -14.345393    2.754788    1.708243
    137          1           0      -16.049220    2.769004    1.462965
    138          1           0      -16.304826   -0.240032    0.239116
    139          1           0      -16.175103    0.852645    1.710687
    140          1           0      -15.204916   -0.655083    1.464590
 ---------------------------------------------------------------------

 SCF Done:  E(RPBE1PBE) =  -3005.34080550     A.U. after   15 cycles

 Excitation energies and oscillator strengths:

 Excited State   1:      Singlet-A      1.9021 eV  651.83 nm  f=0.3718  <S**2>=0.000
     245 -> 248        0.18353
     246 -> 247        0.68520
 This state for optimization and/or second-order correction.
 Total Energy, E(TD-HF/TD-DFT) =  -3005.27090468
 Copying the excited state density for this state as the 1-particle RhoCI density.

 Excited State   2:      Singlet-A      2.2198 eV  558.55 nm  f=0.1014  <S**2>=0.000
     245 -> 247        0.64675
     246 -> 248       -0.26395

 Excited State   3:      Singlet-A      2.7608 eV  449.09 nm  f=0.0001  <S**2>=0.000
     243 -> 247        0.11456
     244 -> 247        0.65938
     244 -> 248        0.12056
     244 -> 249       -0.13029
     244 -> 250       -0.12013

 Excited State   4:      Singlet-A      2.9464 eV  420.79 nm  f=0.0003  <S**2>=0.000
     242 -> 247        0.67549
     242 -> 249        0.16145

 Excited State   5:      Singlet-A      3.1152 eV  398.00 nm  f=0.0222  <S**2>=0.000
     241 -> 247        0.68652
     246 -> 248       -0.10346

 The electronic state is 1-A.
 Alpha  occ. eigenvalues --  -46.94224 -19.25051 -19.24335 -19.20319 -19.19220
 Alpha  occ. eigenvalues --  -19.19195 -19.17937 -14.42031 -14.42027 -14.40069
 Alpha  occ. eigenvalues --  -14.38730 -10.37104 -10.35425 -10.32378 -10.31220
 Alpha  occ. eigenvalues --  -10.29754 -10.29484 -10.29289 -10.28831 -10.28736
 Alpha  occ. eigenvalues --  -10.28667 -10.28643 -10.28567 -10.27060 -10.26418
 Alpha  occ. eigenvalues --  -10.26410 -10.26182 -10.26049 -10.25948 -10.25912
 Alpha  occ. eigenvalues --  -10.25763 -10.25682 -10.25594 -10.25431 -10.25349
 Alpha  occ. eigenvalues --  -10.25303 -10.25264 -10.25248 -10.25186 -10.24790
 Alpha  occ. eigenvalues --  -10.24695 -10.24041 -10.23877 -10.23772 -10.23642
 Alpha  occ. eigenvalues --  -10.23608 -10.23564 -10.23503 -10.23446 -10.23389
 Alpha  occ. eigenvalues --  -10.23277 -10.23154 -10.23132 -10.22784 -10.22622
 Alpha  occ. eigenvalues --  -10.22611 -10.22470 -10.22439 -10.22426 -10.22416
 Alpha  occ. eigenvalues --  -10.22140 -10.22122 -10.21752 -10.21539 -10.21464
 Alpha  occ. eigenvalues --  -10.21265  -3.16077  -1.88917  -1.88471  -1.88268
 Alpha  occ. eigenvalues --   -1.09630  -1.09582  -1.03739  -1.03401  -1.02233
 Alpha  occ. eigenvalues --   -1.01391  -1.00668  -1.00354  -0.98904  -0.96987
 Alpha  occ. eigenvalues --   -0.86749  -0.84472  -0.83948  -0.83675  -0.83576
 Alpha  occ. eigenvalues --   -0.82990  -0.82473  -0.82293  -0.82256  -0.81179
 Alpha  occ. eigenvalues --   -0.81086  -0.80147  -0.78796  -0.78221  -0.78144
 Alpha  occ. eigenvalues --   -0.77002  -0.76621  -0.75556  -0.75057  -0.74604
 Alpha  occ. eigenvalues --   -0.73932  -0.72762  -0.72189  -0.71775  -0.70492
 Alpha  occ. eigenvalues --   -0.70241  -0.69635  -0.68946  -0.68443  -0.68335
 Alpha  occ. eigenvalues --   -0.68126  -0.67407  -0.66722  -0.64780  -0.64015
 Alpha  occ. eigenvalues --   -0.63356  -0.62505  -0.62336  -0.60697  -0.60595
 Alpha  occ. eigenvalues --   -0.60375  -0.59998  -0.59204  -0.58892  -0.57725
 Alpha  occ. eigenvalues --   -0.57548  -0.57143  -0.56925  -0.55760  -0.55270
 Alpha  occ. eigenvalues --   -0.54798  -0.54719  -0.54261  -0.53860  -0.52741
 Alpha  occ. eigenvalues --   -0.52558  -0.51601  -0.51178  -0.50772  -0.50621
 Alpha  occ. eigenvalues --   -0.50016  -0.49415  -0.48838  -0.48462  -0.48257
 Alpha  occ. eigenvalues --   -0.48079  -0.47636  -0.47570  -0.47483  -0.47134
 Alpha  occ. eigenvalues --   -0.47035  -0.46808  -0.46689  -0.46575  -0.46519
 Alpha  occ. eigenvalues --   -0.46387  -0.46072  -0.45687  -0.45394  -0.45303
 Alpha  occ. eigenvalues --   -0.45160  -0.44696  -0.44605  -0.44309  -0.44248
 Alpha  occ. eigenvalues --   -0.44140  -0.43860  -0.43744  -0.43662  -0.43588
 Alpha  occ. eigenvalues --   -0.43323  -0.43154  -0.43042  -0.42636  -0.42356
 Alpha  occ. eigenvalues --   -0.42098  -0.42030  -0.41914  -0.41718  -0.41393
 Alpha  occ. eigenvalues --   -0.41128  -0.40866  -0.40814  -0.40774  -0.40571
 Alpha  occ. eigenvalues --   -0.40369  -0.40157  -0.40056  -0.39948  -0.39750
 Alpha  occ. eigenvalues --   -0.39464  -0.39399  -0.39256  -0.39150  -0.38875
 Alpha  occ. eigenvalues --   -0.38693  -0.38583  -0.38257  -0.38084  -0.37795
 Alpha  occ. eigenvalues --   -0.37611  -0.37308  -0.37217  -0.36982  -0.36758
 Alpha  occ. eigenvalues --   -0.36551  -0.36435  -0.36333  -0.36144  -0.36044
 Alpha  occ. eigenvalues --   -0.35820  -0.35626  -0.35494  -0.35219  -0.35015
 Alpha  occ. eigenvalues --   -0.34950  -0.34624  -0.34507  -0.34111  -0.34012
 Alpha  occ. eigenvalues --   -0.33156  -0.32817  -0.32751  -0.32728  -0.32405
 Alpha  occ. eigenvalues --   -0.32115  -0.31976  -0.31930  -0.31471  -0.31101
 Alpha  occ. eigenvalues --   -0.30561  -0.30486  -0.29991  -0.29744  -0.29198
 Alpha  occ. eigenvalues --   -0.28822  -0.28706  -0.28551  -0.27173  -0.26233
 Alpha  occ. eigenvalues --   -0.25726  -0.25559  -0.24946  -0.24933  -0.21171
 Alpha  occ. eigenvalues --   -0.19256
 Alpha virt. eigenvalues --   -0.11420  -0.06018  -0.03671  -0.02176  -0.01417
 Alpha virt. eigenvalues --   -0.00143   0.00155   0.00796   0.01272   0.02935
 Alpha virt. eigenvalues --    0.03626   0.04077   0.05238   0.05827   0.05923

 Mulliken charges:
               1
     1  Mg   0.964498
     2  C   -0.029911
     3  C   -0.062095
     4  C   -0.068856
     5  C   -0.064805
     6  N   -0.348674
     7  C    0.058903
     8  C   -0.102506
     9  C   -0.130109
    10  C    0.042108
    11  C    0.028889
    12  C   -0.037984
    13  C    0.021839
    14  C    0.240652
    15  O   -0.256122
    16  O   -0.417632
    17  N   -0.541867
    18  C    0.180227
    19  C   -0.187487
    20  C   -0.062582
    21  C    0.213191
    22  C    0.126073
    23  C    0.019734
    24  O   -0.258294
    25  C   -0.017015
    26  N   -0.381835
    27  C    0.072348
    28  C   -0.086876
    29  C   -0.130517
    30  C    0.094174
    31  C    0.009282
    32  C   -0.036876
    33  C   -0.072219
    34  N   -0.354473
    35  C    0.099743
    36  C   -0.171367
    37  C   -0.054873
    38  C    0.104658
    39  C    0.069509
    40  C    0.181405
    41  O   -0.230203
    42  C   -0.111311
    43  C    0.271456
    44  O   -0.242364
    45  O   -0.409253
    46  C    0.110309
    47  C    0.241780
    48  C   -0.139840
    49  C   -0.185616
    50  C   -0.009470
    51  C    0.022289
    52  C   -0.045355
    53  C   -0.008840
    54  C   -0.238449
    55  C   -0.009995
    56  C   -0.017110
    57  C   -0.053413
    58  C    0.008280
    59  C   -0.212626
    60  C   -0.009705
    61  C    0.004629
    62  C   -0.060813
    63  C   -0.031780
    64  C   -0.259781
    65  C   -0.026234
    66  C   -0.001160
    67  H    0.007105
    68  H   -0.016601
    69  H    0.005925
    70  H    0.056366
    71  H    0.039340
    72  H    0.054122
    73  H    0.032398
    74  H    0.050925
    75  H    0.042570
    76  H    0.054273
    77  H    0.060790
    78  H    0.050047
    79  H    0.008844
    80  H    0.065145
    81  H    0.079418
    82  H    0.064213
    83  H    0.041347
    84  H    0.062712
    85  H    0.053375
    86  H    0.053146
    87  H    0.033182
    88  H    0.032811
    89  H    0.042692
    90  H    0.041654
    91  H    0.027480
    92  H    0.046653
    93  H    0.053259
    94  H    0.039010
    95  H    0.033653
    96  H    0.054769
    97  H    0.073679
    98  H    0.078197
    99  H    0.077838
   100  H    0.059369
   101  H    0.072524
   102  H    0.073231
   103  H    0.064583
   104  H    0.041507
   105  H    0.049108
   106  H    0.044222
   107  H    0.042180
   108  H    0.044572
   109  H    0.030152
   110  H    0.036834
   111  H    0.032849
   112  H    0.024965
   113  H    0.015578
   114  H    0.034774
   115  H    0.048150
   116  H    0.026611
   117  H    0.037982
   118  H    0.025889
   119  H    0.027538
   120  H    0.031585
   121  H    0.027302
   122  H    0.023339
   123  H    0.020624
   124  H    0.039147
   125  H    0.032006
   126  H    0.032781
   127  H    0.036503
   128  H    0.020064
   129  H    0.025429
   130  H    0.038100
   131  H    0.037640
   132  H    0.034232
   133  H    0.025994
   134  H    0.034673
   135  H    0.033862
   136  H    0.032378
   137  H    0.034286
   138  H    0.035221
   139  H    0.029232
   140  H    0.034971
 Sum of Mulliken charges =  -0.00000

 Dipole moment (field-independent basis, Debye):
    X=             -1.4839    Y=              4.3192    Z=              0.1829  Tot=              4.5706
 Quadrupole moment (field-independent basis, Debye-Ang):
   XX=           -400.8047   YY=           -422.0310   ZZ=           -385.0419
   XY=             61.0599   XZ=              1.7782   YZ=             35.2730

 Normal termination of Gaussian 16 at Wed May  4 11:55:46 2022.
