 Gaussian 16, Revision A.03,
 Gaussian 16:  ES64L-G16RevA.03 25-Dec-2016

 --------------------------------
 #p wB97XD/Def2SVP td=(nstates=5)
 --------------------------------

 -----------------------------------------------------
 step_1701_chromophore_17 TDDFT with wB97XD functional
 -----------------------------------------------------
 Symbolic Z-matrix:
 Charge =  0 Multiplicity = 1

                         Standard orientation:
 ---------------------------------------------------------------------
 Center     Atomic      Atomic             Coordinates (Angstroms)
 Number     Number       Type             X           Y           Z
 ---------------------------------------------------------------------
      1         12           0        4.496938    1.484704   -0.700818
      2          6           0        4.785359   -1.959027   -0.559792
      3          6           0        1.685871    0.998156   -2.741885
      4          6           0        3.676021    4.552330    0.001924
      5          6           0        7.047784    1.568640    1.852087
      6          7           0        3.414457   -0.271509   -1.574430
      7          6           0        3.636171   -1.546820   -1.293053
      8          6           0        2.694949   -2.482470   -1.917314
      9          6           0        1.927958   -1.531223   -2.892381
     10          6           0        2.327009   -0.170599   -2.379394
     11          6           0        2.412799   -1.703920   -4.356723
     12          6           0        1.742349   -3.190611   -0.795822
     13          6           0        0.939336   -4.400069   -1.203722
     14          6           0        0.072500   -5.029614   -0.062702
     15          8           0        0.410326   -6.060002    0.512144
     16          8           0       -1.093958   -4.309303    0.219381
     17          7           0        3.023683    2.698937   -1.451755
     18          6           0        1.943772    2.352999   -2.288366
     19          6           0        1.181404    3.502825   -2.605086
     20          6           0        1.603793    4.491049   -1.704976
     21          6           0        2.842315    3.953975   -0.924626
     22          6           0        0.083602    3.581500   -3.624181
     23          6           0        0.976182    5.810657   -1.491029
     24          8           0        0.023436    6.153296   -2.195191
     25          6           0        1.295694    6.722870   -0.384335
     26          7           0        5.228002    2.869213    0.851623
     27          6           0        4.803608    4.143631    0.778395
     28          6           0        5.613528    5.004250    1.733321
     29          6           0        6.765661    4.115700    2.227442
     30          6           0        6.278836    2.708805    1.707774
     31          6           0        6.052707    6.378564    1.297981
     32          6           0        7.032406    4.244185    3.802679
     33          6           0        8.465331    4.667729    4.276921
     34          7           0        5.824865    0.082466    0.379195
     35          6           0        6.816256    0.284380    1.312362
     36          6           0        7.427264   -0.969400    1.641446
     37          6           0        6.641720   -1.883385    0.978253
     38          6           0        5.728651   -1.150352    0.204695
     39          6           0        8.658204   -1.191096    2.440884
     40          6           0        6.529646   -3.285174    0.608780
     41          8           0        7.102116   -4.285622    1.063849
     42          6           0        5.241624   -3.377939   -0.355660
     43          6           0        5.702704   -4.057761   -1.558329
     44          8           0        6.678907   -3.776175   -2.208627
     45          8           0        5.058699   -5.281255   -1.802658
     46          6           0        5.573281   -6.055962   -3.017256
     47          6           0       -2.141810   -4.821929    1.131143
     48          6           0       -2.669529   -3.729368    1.941624
     49          6           0       -3.646341   -3.851985    2.889494
     50          6           0       -4.556778   -5.080321    3.000844
     51          6           0       -4.180793   -2.705576    3.789553
     52          6           0       -4.805481   -1.518252    3.048149
     53          6           0       -6.321293   -1.657917    2.649483
     54          6           0       -6.545915   -1.543223    1.107403
     55          6           0       -6.219751   -2.857781    0.404771
     56          6           0       -7.950174   -0.900953    0.708930
     57          6           0       -7.914947    0.167019   -0.452995
     58          6           0       -8.765917    1.450684   -0.223278
     59          6           0       -9.916920    1.659603   -1.271257
     60          6           0       -9.381295    2.453879   -2.476412
     61          6           0      -11.263814    2.294962   -0.639684
     62          6           0      -12.461123    1.437426   -0.988723
     63          6           0      -13.263579    0.920822    0.297666
     64          6           0      -14.804511    1.270452    0.272149
     65          6           0      -15.104591    2.626632    0.937578
     66          6           0      -15.659934    0.215126    0.991399
     67          1           0        0.843094    0.786056   -3.402619
     68          1           0        3.371566    5.571812    0.247815
     69          1           0        7.950244    1.704891    2.452794
     70          1           0        3.195276   -3.284895   -2.459630
     71          1           0        0.851768   -1.698759   -2.867075
     72          1           0        3.445802   -2.035393   -4.249750
     73          1           0        2.390321   -0.720926   -4.826711
     74          1           0        1.776844   -2.270186   -5.037359
     75          1           0        0.980783   -2.453516   -0.541234
     76          1           0        2.319106   -3.385635    0.108469
     77          1           0        1.711433   -5.130032   -1.445340
     78          1           0        0.332291   -4.185149   -2.082719
     79          1           0        0.137556    2.599668   -4.095159
     80          1           0        0.478338    4.270875   -4.370305
     81          1           0       -0.915831    3.745532   -3.220636
     82          1           0        1.172102    6.223994    0.577352
     83          1           0        0.696373    7.624213   -0.252487
     84          1           0        2.275510    7.188049   -0.497675
     85          1           0        4.948056    5.274646    2.552616
     86          1           0        7.682945    4.447266    1.740902
     87          1           0        5.513240    6.746240    0.425298
     88          1           0        7.069235    6.452802    0.912911
     89          1           0        5.878472    7.085368    2.110055
     90          1           0        6.736163    3.357391    4.362667
     91          1           0        6.301831    4.964314    4.170111
     92          1           0        8.868468    3.877667    4.911536
     93          1           0        8.462900    5.606619    4.828982
     94          1           0        9.098565    4.717562    3.390909
     95          1           0        8.806877   -0.513133    3.281034
     96          1           0        9.557536   -0.951744    1.873293
     97          1           0        8.620908   -2.242873    2.722447
     98          1           0        4.445055   -3.936290    0.135673
     99          1           0        6.105443   -5.435550   -3.739046
    100          1           0        4.717253   -6.548212   -3.478878
    101          1           0        6.232324   -6.792837   -2.559449
    102          1           0       -1.572770   -5.469456    1.798934
    103          1           0       -2.820406   -5.350299    0.462979
    104          1           0       -2.021270   -2.857506    1.860369
    105          1           0       -5.465782   -4.871301    2.436409
    106          1           0       -4.938570   -5.379482    3.976928
    107          1           0       -4.026758   -5.955670    2.624860
    108          1           0       -3.321210   -2.357089    4.362263
    109          1           0       -4.971624   -2.996290    4.481094
    110          1           0       -4.289739   -1.332686    2.105875
    111          1           0       -4.776436   -0.616272    3.660251
    112          1           0       -6.976748   -0.945152    3.150020
    113          1           0       -6.618353   -2.637878    3.022900
    114          1           0       -5.847415   -0.839809    0.652860
    115          1           0       -5.155599   -3.028524    0.239098
    116          1           0       -6.700324   -2.811476   -0.573014
    117          1           0       -6.648689   -3.673589    0.985974
    118          1           0       -8.345710   -0.417853    1.601647
    119          1           0       -8.576908   -1.722905    0.361624
    120          1           0       -8.231121   -0.382436   -1.339522
    121          1           0       -6.858123    0.400618   -0.582631
    122          1           0       -8.083856    2.299658   -0.178765
    123          1           0       -9.193635    1.510398    0.778030
    124          1           0      -10.182225    0.691480   -1.696951
    125          1           0       -8.849054    3.306403   -2.052696
    126          1           0      -10.187948    2.827368   -3.108220
    127          1           0       -8.715752    1.854080   -3.095750
    128          1           0      -11.479280    3.284774   -1.042616
    129          1           0      -11.232883    2.469849    0.435450
    130          1           0      -12.200760    0.463688   -1.401911
    131          1           0      -13.065825    2.037603   -1.669525
    132          1           0      -12.798969    1.167575    1.252401
    133          1           0      -13.250483   -0.158704    0.146571
    134          1           0      -15.046110    1.392559   -0.783833
    135          1           0      -15.155369    3.402703    0.173831
    136          1           0      -14.345393    2.754788    1.708243
    137          1           0      -16.049220    2.769004    1.462965
    138          1           0      -16.304826   -0.240032    0.239116
    139          1           0      -16.175103    0.852645    1.710687
    140          1           0      -15.204916   -0.655083    1.464590
 ---------------------------------------------------------------------

 SCF Done:  E(RwB97XD) =  -3007.84850764     A.U. after   19 cycles

 Excitation energies and oscillator strengths:

 Excited State   1:      Singlet-A      1.7133 eV  723.67 nm  f=0.3834  <S**2>=0.000
     245 -> 248        0.18756
     246 -> 247        0.67769
     245 <- 248        0.11207
 This state for optimization and/or second-order correction.
 Total Energy, E(TD-HF/TD-DFT) =  -3007.78554584
 Copying the excited state density for this state as the 1-particle RhoCI density.

 Excited State   2:      Singlet-A      2.1610 eV  573.75 nm  f=0.0990  <S**2>=0.000
     245 -> 247        0.63070
     246 -> 248       -0.29717

 Excited State   3:      Singlet-A      3.2905 eV  376.79 nm  f=0.0001  <S**2>=0.000
     242 -> 247        0.51567
     242 -> 248        0.17148
     242 -> 249        0.26847
     242 -> 250        0.21434
     243 -> 247        0.18892
     243 -> 249        0.10579

 Excited State   4:      Singlet-A      3.4532 eV  359.04 nm  f=0.2474  <S**2>=0.000
     240 -> 247        0.37035
     241 -> 247       -0.19574
     243 -> 247       -0.28710
     245 -> 247        0.16132
     246 -> 248        0.43222

 Excited State   5:      Singlet-A      3.5002 eV  354.22 nm  f=0.1891  <S**2>=0.000
     240 -> 247       -0.11032
     241 -> 247       -0.14326
     241 -> 249        0.15462
     241 -> 250       -0.10498
     242 -> 247       -0.19179
     243 -> 247        0.48699
     245 -> 247        0.17246
     246 -> 248        0.32097

 The electronic state is 1-A.
 Alpha  occ. eigenvalues --  -46.97179 -19.29553 -19.28824 -19.24929 -19.23865
 Alpha  occ. eigenvalues --  -19.23770 -19.22985 -14.47193 -14.47076 -14.45150
 Alpha  occ. eigenvalues --  -14.43582 -10.43827 -10.42179 -10.39037 -10.38276
 Alpha  occ. eigenvalues --  -10.36220 -10.35956 -10.35908 -10.35428 -10.35156
 Alpha  occ. eigenvalues --  -10.35027 -10.35012 -10.34707 -10.33002 -10.32727
 Alpha  occ. eigenvalues --  -10.32631 -10.32575 -10.32468 -10.32161 -10.32068
 Alpha  occ. eigenvalues --  -10.32032 -10.32025 -10.31899 -10.31877 -10.31764
 Alpha  occ. eigenvalues --  -10.31708 -10.31689 -10.31655 -10.31636 -10.31182
 Alpha  occ. eigenvalues --  -10.30942 -10.30467 -10.30318 -10.30188 -10.30164
 Alpha  occ. eigenvalues --  -10.29987 -10.29986 -10.29856 -10.29854 -10.29850
 Alpha  occ. eigenvalues --  -10.29724 -10.29562 -10.29428 -10.29156 -10.29006
 Alpha  occ. eigenvalues --  -10.28978 -10.28808 -10.28804 -10.28757 -10.28509
 Alpha  occ. eigenvalues --  -10.28501 -10.28487 -10.28236 -10.28010 -10.27885
 Alpha  occ. eigenvalues --  -10.27685  -3.22933  -1.96516  -1.96067  -1.95863
 Alpha  occ. eigenvalues --   -1.16965  -1.16915  -1.11454  -1.10674  -1.09522
 Alpha  occ. eigenvalues --   -1.08529  -1.07969  -1.07684  -1.06315  -1.04597
 Alpha  occ. eigenvalues --   -0.94252  -0.92149  -0.91567  -0.91292  -0.91241
 Alpha  occ. eigenvalues --   -0.90676  -0.90061  -0.89933  -0.89765  -0.88877
 Alpha  occ. eigenvalues --   -0.88801  -0.87830  -0.86486  -0.85866  -0.85755
 Alpha  occ. eigenvalues --   -0.84671  -0.84423  -0.83217  -0.82686  -0.82214
 Alpha  occ. eigenvalues --   -0.81617  -0.80287  -0.79867  -0.79510  -0.78124
 Alpha  occ. eigenvalues --   -0.77812  -0.77331  -0.76647  -0.76140  -0.76008
 Alpha  occ. eigenvalues --   -0.75632  -0.75000  -0.74283  -0.72419  -0.71548
 Alpha  occ. eigenvalues --   -0.70865  -0.70131  -0.69922  -0.68176  -0.68114
 Alpha  occ. eigenvalues --   -0.68008  -0.67504  -0.66612  -0.66530  -0.65407
 Alpha  occ. eigenvalues --   -0.65042  -0.64797  -0.64588  -0.63171  -0.62736
 Alpha  occ. eigenvalues --   -0.62189  -0.62152  -0.61586  -0.61276  -0.60137
 Alpha  occ. eigenvalues --   -0.60034  -0.59062  -0.58573  -0.58203  -0.58060
 Alpha  occ. eigenvalues --   -0.57327  -0.56791  -0.56220  -0.55744  -0.55689
 Alpha  occ. eigenvalues --   -0.55456  -0.55057  -0.54999  -0.54926  -0.54654
 Alpha  occ. eigenvalues --   -0.54523  -0.54142  -0.54052  -0.53911  -0.53877
 Alpha  occ. eigenvalues --   -0.53727  -0.53479  -0.53121  -0.52762  -0.52654
 Alpha  occ. eigenvalues --   -0.52580  -0.52084  -0.51855  -0.51632  -0.51553
 Alpha  occ. eigenvalues --   -0.51466  -0.51275  -0.51008  -0.50958  -0.50876
 Alpha  occ. eigenvalues --   -0.50614  -0.50415  -0.50324  -0.49921  -0.49591
 Alpha  occ. eigenvalues --   -0.49473  -0.49361  -0.49071  -0.48914  -0.48585
 Alpha  occ. eigenvalues --   -0.48420  -0.48187  -0.48088  -0.48000  -0.47731
 Alpha  occ. eigenvalues --   -0.47527  -0.47323  -0.47303  -0.47161  -0.46916
 Alpha  occ. eigenvalues --   -0.46637  -0.46560  -0.46442  -0.46201  -0.45893
 Alpha  occ. eigenvalues --   -0.45822  -0.45620  -0.45421  -0.45251  -0.44868
 Alpha  occ. eigenvalues --   -0.44775  -0.44388  -0.44378  -0.44236  -0.43810
 Alpha  occ. eigenvalues --   -0.43680  -0.43620  -0.43369  -0.43239  -0.43067
 Alpha  occ. eigenvalues --   -0.42878  -0.42644  -0.42599  -0.42241  -0.42062
 Alpha  occ. eigenvalues --   -0.42012  -0.41623  -0.41563  -0.41208  -0.41123
 Alpha  occ. eigenvalues --   -0.40237  -0.39808  -0.39803  -0.39755  -0.39309
 Alpha  occ. eigenvalues --   -0.39151  -0.39026  -0.38982  -0.38471  -0.38143
 Alpha  occ. eigenvalues --   -0.37597  -0.37470  -0.36769  -0.36648  -0.35981
 Alpha  occ. eigenvalues --   -0.35838  -0.35544  -0.35495  -0.33781  -0.32690
 Alpha  occ. eigenvalues --   -0.32451  -0.32395  -0.32350  -0.31679  -0.26165
 Alpha  occ. eigenvalues --   -0.23437
 Alpha virt. eigenvalues --   -0.07276  -0.00632   0.02597   0.04317   0.04648
 Alpha virt. eigenvalues --    0.06609   0.06869   0.07644   0.08015   0.09368
 Alpha virt. eigenvalues --    0.10165   0.10867   0.11960   0.12556   0.12602

 Mulliken charges:
               1
     1  Mg   0.960264
     2  C   -0.039035
     3  C   -0.087347
     4  C   -0.073243
     5  C   -0.074782
     6  N   -0.313724
     7  C    0.024600
     8  C   -0.072064
     9  C   -0.106682
    10  C    0.035735
    11  C    0.038487
    12  C   -0.028296
    13  C    0.039753
    14  C    0.230428
    15  O   -0.254548
    16  O   -0.416706
    17  N   -0.514090
    18  C    0.178359
    19  C   -0.180615
    20  C   -0.052312
    21  C    0.205245
    22  C    0.138422
    23  C    0.015630
    24  O   -0.251971
    25  C   -0.005216
    26  N   -0.345912
    27  C    0.056485
    28  C   -0.058878
    29  C   -0.097552
    30  C    0.070182
    31  C    0.017133
    32  C   -0.027526
    33  C   -0.053976
    34  N   -0.310917
    35  C    0.087739
    36  C   -0.164835
    37  C   -0.051786
    38  C    0.080397
    39  C    0.078357
    40  C    0.159343
    41  O   -0.222998
    42  C   -0.064970
    43  C    0.245743
    44  O   -0.237729
    45  O   -0.408375
    46  C    0.126627
    47  C    0.250269
    48  C   -0.145671
    49  C   -0.174663
    50  C    0.009683
    51  C    0.040103
    52  C   -0.026768
    53  C    0.005328
    54  C   -0.204139
    55  C    0.005320
    56  C   -0.001806
    57  C   -0.035841
    58  C    0.021983
    59  C   -0.180182
    60  C    0.003336
    61  C    0.016081
    62  C   -0.045078
    63  C   -0.016998
    64  C   -0.230536
    65  C   -0.013722
    66  C    0.011038
    67  H    0.001815
    68  H   -0.032135
    69  H    0.000324
    70  H    0.039608
    71  H    0.031276
    72  H    0.047756
    73  H    0.024539
    74  H    0.047165
    75  H    0.033158
    76  H    0.045004
    77  H    0.055500
    78  H    0.044234
    79  H    0.002473
    80  H    0.061929
    81  H    0.078221
    82  H    0.059536
    83  H    0.041118
    84  H    0.058550
    85  H    0.041787
    86  H    0.038299
    87  H    0.025858
    88  H    0.027919
    89  H    0.038400
    90  H    0.034698
    91  H    0.017839
    92  H    0.040900
    93  H    0.047921
    94  H    0.031566
    95  H    0.027495
    96  H    0.049115
    97  H    0.069880
    98  H    0.069554
    99  H    0.073860
   100  H    0.055467
   101  H    0.068626
   102  H    0.068795
   103  H    0.060862
   104  H    0.039522
   105  H    0.035852
   106  H    0.039974
   107  H    0.036894
   108  H    0.038378
   109  H    0.022086
   110  H    0.023194
   111  H    0.027038
   112  H    0.017934
   113  H    0.002185
   114  H    0.018228
   115  H    0.038681
   116  H    0.020262
   117  H    0.029162
   118  H    0.014690
   119  H    0.019046
   120  H    0.022634
   121  H    0.018549
   122  H    0.015335
   123  H    0.010903
   124  H    0.023169
   125  H    0.024019
   126  H    0.026562
   127  H    0.030880
   128  H    0.012756
   129  H    0.015731
   130  H    0.029421
   131  H    0.029900
   132  H    0.025262
   133  H    0.016400
   134  H    0.023273
   135  H    0.028339
   136  H    0.024680
   137  H    0.027881
   138  H    0.029751
   139  H    0.021850
   140  H    0.030080
 Sum of Mulliken charges =  -0.00000

 Dipole moment (field-independent basis, Debye):
    X=             -1.8716    Y=              4.7552    Z=             -0.1101  Tot=              5.1115
 Quadrupole moment (field-independent basis, Debye-Ang):
   XX=           -403.7572   YY=           -420.2690   ZZ=           -384.4804
   XY=             61.7249   XZ=              0.5233   YZ=             34.6830

 Normal termination of Gaussian 16 at Wed May  4 12:24:39 2022.
