 Gaussian 16, Revision A.03,
 Gaussian 16:  ES64L-G16RevA.03 25-Dec-2016

 --------------------
 #p ZINDO=(nstates=5)
 --------------------

 ------------------------------
 step_1701_chromophore_17 ZINDO
 ------------------------------
 Symbolic Z-matrix:
 Charge =  0 Multiplicity = 1

                         Standard orientation:
 ---------------------------------------------------------------------
 Center     Atomic      Atomic             Coordinates (Angstroms)
 Number     Number       Type             X           Y           Z
 ---------------------------------------------------------------------
      1         12           0        4.496938    1.484704   -0.700818
      2          6           0        4.785359   -1.959027   -0.559792
      3          6           0        1.685871    0.998156   -2.741885
      4          6           0        3.676021    4.552330    0.001924
      5          6           0        7.047784    1.568640    1.852087
      6          7           0        3.414457   -0.271509   -1.574430
      7          6           0        3.636171   -1.546820   -1.293053
      8          6           0        2.694949   -2.482470   -1.917314
      9          6           0        1.927958   -1.531223   -2.892381
     10          6           0        2.327009   -0.170599   -2.379394
     11          6           0        2.412799   -1.703920   -4.356723
     12          6           0        1.742349   -3.190611   -0.795822
     13          6           0        0.939336   -4.400069   -1.203722
     14          6           0        0.072500   -5.029614   -0.062702
     15          8           0        0.410326   -6.060002    0.512144
     16          8           0       -1.093958   -4.309303    0.219381
     17          7           0        3.023683    2.698937   -1.451755
     18          6           0        1.943772    2.352999   -2.288366
     19          6           0        1.181404    3.502825   -2.605086
     20          6           0        1.603793    4.491049   -1.704976
     21          6           0        2.842315    3.953975   -0.924626
     22          6           0        0.083602    3.581500   -3.624181
     23          6           0        0.976182    5.810657   -1.491029
     24          8           0        0.023436    6.153296   -2.195191
     25          6           0        1.295694    6.722870   -0.384335
     26          7           0        5.228002    2.869213    0.851623
     27          6           0        4.803608    4.143631    0.778395
     28          6           0        5.613528    5.004250    1.733321
     29          6           0        6.765661    4.115700    2.227442
     30          6           0        6.278836    2.708805    1.707774
     31          6           0        6.052707    6.378564    1.297981
     32          6           0        7.032406    4.244185    3.802679
     33          6           0        8.465331    4.667729    4.276921
     34          7           0        5.824865    0.082466    0.379195
     35          6           0        6.816256    0.284380    1.312362
     36          6           0        7.427264   -0.969400    1.641446
     37          6           0        6.641720   -1.883385    0.978253
     38          6           0        5.728651   -1.150352    0.204695
     39          6           0        8.658204   -1.191096    2.440884
     40          6           0        6.529646   -3.285174    0.608780
     41          8           0        7.102116   -4.285622    1.063849
     42          6           0        5.241624   -3.377939   -0.355660
     43          6           0        5.702704   -4.057761   -1.558329
     44          8           0        6.678907   -3.776175   -2.208627
     45          8           0        5.058699   -5.281255   -1.802658
     46          6           0        5.573281   -6.055962   -3.017256
     47          6           0       -2.141810   -4.821929    1.131143
     48          6           0       -2.669529   -3.729368    1.941624
     49          6           0       -3.646341   -3.851985    2.889494
     50          6           0       -4.556778   -5.080321    3.000844
     51          6           0       -4.180793   -2.705576    3.789553
     52          6           0       -4.805481   -1.518252    3.048149
     53          6           0       -6.321293   -1.657917    2.649483
     54          6           0       -6.545915   -1.543223    1.107403
     55          6           0       -6.219751   -2.857781    0.404771
     56          6           0       -7.950174   -0.900953    0.708930
     57          6           0       -7.914947    0.167019   -0.452995
     58          6           0       -8.765917    1.450684   -0.223278
     59          6           0       -9.916920    1.659603   -1.271257
     60          6           0       -9.381295    2.453879   -2.476412
     61          6           0      -11.263814    2.294962   -0.639684
     62          6           0      -12.461123    1.437426   -0.988723
     63          6           0      -13.263579    0.920822    0.297666
     64          6           0      -14.804511    1.270452    0.272149
     65          6           0      -15.104591    2.626632    0.937578
     66          6           0      -15.659934    0.215126    0.991399
     67          1           0        0.843094    0.786056   -3.402619
     68          1           0        3.371566    5.571812    0.247815
     69          1           0        7.950244    1.704891    2.452794
     70          1           0        3.195276   -3.284895   -2.459630
     71          1           0        0.851768   -1.698759   -2.867075
     72          1           0        3.445802   -2.035393   -4.249750
     73          1           0        2.390321   -0.720926   -4.826711
     74          1           0        1.776844   -2.270186   -5.037359
     75          1           0        0.980783   -2.453516   -0.541234
     76          1           0        2.319106   -3.385635    0.108469
     77          1           0        1.711433   -5.130032   -1.445340
     78          1           0        0.332291   -4.185149   -2.082719
     79          1           0        0.137556    2.599668   -4.095159
     80          1           0        0.478338    4.270875   -4.370305
     81          1           0       -0.915831    3.745532   -3.220636
     82          1           0        1.172102    6.223994    0.577352
     83          1           0        0.696373    7.624213   -0.252487
     84          1           0        2.275510    7.188049   -0.497675
     85          1           0        4.948056    5.274646    2.552616
     86          1           0        7.682945    4.447266    1.740902
     87          1           0        5.513240    6.746240    0.425298
     88          1           0        7.069235    6.452802    0.912911
     89          1           0        5.878472    7.085368    2.110055
     90          1           0        6.736163    3.357391    4.362667
     91          1           0        6.301831    4.964314    4.170111
     92          1           0        8.868468    3.877667    4.911536
     93          1           0        8.462900    5.606619    4.828982
     94          1           0        9.098565    4.717562    3.390909
     95          1           0        8.806877   -0.513133    3.281034
     96          1           0        9.557536   -0.951744    1.873293
     97          1           0        8.620908   -2.242873    2.722447
     98          1           0        4.445055   -3.936290    0.135673
     99          1           0        6.105443   -5.435550   -3.739046
    100          1           0        4.717253   -6.548212   -3.478878
    101          1           0        6.232324   -6.792837   -2.559449
    102          1           0       -1.572770   -5.469456    1.798934
    103          1           0       -2.820406   -5.350299    0.462979
    104          1           0       -2.021270   -2.857506    1.860369
    105          1           0       -5.465782   -4.871301    2.436409
    106          1           0       -4.938570   -5.379482    3.976928
    107          1           0       -4.026758   -5.955670    2.624860
    108          1           0       -3.321210   -2.357089    4.362263
    109          1           0       -4.971624   -2.996290    4.481094
    110          1           0       -4.289739   -1.332686    2.105875
    111          1           0       -4.776436   -0.616272    3.660251
    112          1           0       -6.976748   -0.945152    3.150020
    113          1           0       -6.618353   -2.637878    3.022900
    114          1           0       -5.847415   -0.839809    0.652860
    115          1           0       -5.155599   -3.028524    0.239098
    116          1           0       -6.700324   -2.811476   -0.573014
    117          1           0       -6.648689   -3.673589    0.985974
    118          1           0       -8.345710   -0.417853    1.601647
    119          1           0       -8.576908   -1.722905    0.361624
    120          1           0       -8.231121   -0.382436   -1.339522
    121          1           0       -6.858123    0.400618   -0.582631
    122          1           0       -8.083856    2.299658   -0.178765
    123          1           0       -9.193635    1.510398    0.778030
    124          1           0      -10.182225    0.691480   -1.696951
    125          1           0       -8.849054    3.306403   -2.052696
    126          1           0      -10.187948    2.827368   -3.108220
    127          1           0       -8.715752    1.854080   -3.095750
    128          1           0      -11.479280    3.284774   -1.042616
    129          1           0      -11.232883    2.469849    0.435450
    130          1           0      -12.200760    0.463688   -1.401911
    131          1           0      -13.065825    2.037603   -1.669525
    132          1           0      -12.798969    1.167575    1.252401
    133          1           0      -13.250483   -0.158704    0.146571
    134          1           0      -15.046110    1.392559   -0.783833
    135          1           0      -15.155369    3.402703    0.173831
    136          1           0      -14.345393    2.754788    1.708243
    137          1           0      -16.049220    2.769004    1.462965
    138          1           0      -16.304826   -0.240032    0.239116
    139          1           0      -16.175103    0.852645    1.710687
    140          1           0      -15.204916   -0.655083    1.464590
 ---------------------------------------------------------------------

 SCF Done:  E(RZINDO/S) =  -474.233020355     A.U. after   19 cycles

 Excitation energies and oscillator strengths:

 Excited State   1:      Singlet-A      1.3295 eV  932.58 nm  f=0.5915  <S**2>=0.000
     175 ->178        -0.16777
     176 ->177         0.66398
 This state for optimization and/or second-order correction.
 Total Energy, E(CIS/TDA) =  -474.184163240
 Copying the excited state density for this state as the 1-particle RhoCI density.

 Excited State   2:      Singlet-A      1.8897 eV  656.11 nm  f=0.0424  <S**2>=0.000
     175 ->177         0.54062
     176 ->178         0.41698

 Excited State   3:      Singlet-A      2.7699 eV  447.61 nm  f=0.0004  <S**2>=0.000
     168 ->177         0.37412
     168 ->178        -0.20340
     168 ->179        -0.36093
     168 ->181         0.27255
     168 ->186         0.21963

 Excited State   4:      Singlet-A      2.9188 eV  424.78 nm  f=0.9279  <S**2>=0.000
     175 ->177        -0.37324
     176 ->178         0.52114
     176 ->179         0.17103
     176 ->180         0.13221

 Excited State   5:      Singlet-A      3.0029 eV  412.89 nm  f=0.0322  <S**2>=0.000
     170 ->177         0.23369
     170 ->179         0.24387
     170 ->181         0.30075
     170 ->186        -0.15692
     170 ->187        -0.11173
     171 ->177         0.18846
     171 ->179         0.19869
     171 ->181         0.24015
     171 ->186        -0.12588
     176 ->179         0.10085

 The electronic state is 1-A.
 Alpha  occ. eigenvalues --   -1.87462  -1.83146  -1.80228  -1.73021  -1.71115
 Alpha  occ. eigenvalues --   -1.69963  -1.62908  -1.60661  -1.60149  -1.56464
 Alpha  occ. eigenvalues --   -1.54453  -1.51070  -1.47744  -1.47045  -1.46323
 Alpha  occ. eigenvalues --   -1.44385  -1.42576  -1.41345  -1.39009  -1.38445
 Alpha  occ. eigenvalues --   -1.36289  -1.34303  -1.33695  -1.32298  -1.29370
 Alpha  occ. eigenvalues --   -1.27697  -1.27269  -1.23464  -1.20857  -1.18482
 Alpha  occ. eigenvalues --   -1.16973  -1.14404  -1.14067  -1.13844  -1.12395
 Alpha  occ. eigenvalues --   -1.11706  -1.11373  -1.10678  -1.05685  -1.03812
 Alpha  occ. eigenvalues --   -1.02346  -1.01869  -0.98957  -0.98027  -0.96926
 Alpha  occ. eigenvalues --   -0.96339  -0.94322  -0.93487  -0.93324  -0.91793
 Alpha  occ. eigenvalues --   -0.91418  -0.89987  -0.89259  -0.89189  -0.88522
 Alpha  occ. eigenvalues --   -0.86434  -0.84425  -0.84227  -0.83174  -0.80808
 Alpha  occ. eigenvalues --   -0.79680  -0.78903  -0.77330  -0.76989  -0.75656
 Alpha  occ. eigenvalues --   -0.75356  -0.75097  -0.74984  -0.74504  -0.73786
 Alpha  occ. eigenvalues --   -0.73570  -0.72887  -0.72814  -0.71745  -0.71211
 Alpha  occ. eigenvalues --   -0.70874  -0.70604  -0.69275  -0.68562  -0.67759
 Alpha  occ. eigenvalues --   -0.67502  -0.66829  -0.66743  -0.66613  -0.66166
 Alpha  occ. eigenvalues --   -0.65085  -0.64690  -0.64440  -0.64346  -0.63482
 Alpha  occ. eigenvalues --   -0.62902  -0.62848  -0.62378  -0.62102  -0.61894
 Alpha  occ. eigenvalues --   -0.61559  -0.60965  -0.60527  -0.60432  -0.59955
 Alpha  occ. eigenvalues --   -0.59483  -0.59265  -0.58858  -0.58602  -0.58286
 Alpha  occ. eigenvalues --   -0.58118  -0.57458  -0.57275  -0.57008  -0.56766
 Alpha  occ. eigenvalues --   -0.56028  -0.55809  -0.55413  -0.55111  -0.55050
 Alpha  occ. eigenvalues --   -0.54761  -0.54246  -0.53888  -0.53537  -0.53170
 Alpha  occ. eigenvalues --   -0.52674  -0.52295  -0.52047  -0.51786  -0.51726
 Alpha  occ. eigenvalues --   -0.51415  -0.50907  -0.50695  -0.50318  -0.49987
 Alpha  occ. eigenvalues --   -0.49843  -0.49706  -0.49629  -0.49359  -0.48990
 Alpha  occ. eigenvalues --   -0.48599  -0.48385  -0.48130  -0.47897  -0.47799
 Alpha  occ. eigenvalues --   -0.47521  -0.47376  -0.47264  -0.46996  -0.46933
 Alpha  occ. eigenvalues --   -0.46746  -0.46512  -0.46167  -0.45861  -0.45683
 Alpha  occ. eigenvalues --   -0.45423  -0.45297  -0.45050  -0.44931  -0.44323
 Alpha  occ. eigenvalues --   -0.44302  -0.43423  -0.42852  -0.42811  -0.42210
 Alpha  occ. eigenvalues --   -0.42174  -0.42058  -0.41057  -0.39352  -0.39021
 Alpha  occ. eigenvalues --   -0.37680  -0.37351  -0.35670  -0.35093  -0.34169
 Alpha  occ. eigenvalues --   -0.33990  -0.32846  -0.32326  -0.32091  -0.26844
 Alpha  occ. eigenvalues --   -0.22295
 Alpha virt. eigenvalues --   -0.08685  -0.02747  -0.00585   0.00545   0.01241
 Alpha virt. eigenvalues --    0.01622   0.02774   0.03182   0.03967   0.04421
 Alpha virt. eigenvalues --    0.05978   0.06294   0.06864   0.07520   0.07823

 Mulliken charges:
               1
     1  Mg   0.440042
     2  C   -0.072766
     3  C   -0.096515
     4  C   -0.077631
     5  C   -0.032613
     6  N   -0.284937
     7  C    0.123247
     8  C    0.001597
     9  C    0.006812
    10  C    0.164484
    11  C   -0.054187
    12  C   -0.025554
    13  C    0.012260
    14  C    0.462027
    15  O   -0.505228
    16  O   -0.301267
    17  N   -0.336333
    18  C    0.137828
    19  C    0.065792
    20  C   -0.038083
    21  C    0.124595
    22  C   -0.034070
    23  C    0.331411
    24  O   -0.534231
    25  C   -0.023284
    26  N   -0.255057
    27  C    0.156552
    28  C    0.015982
    29  C   -0.003297
    30  C    0.057909
    31  C   -0.051763
    32  C   -0.041230
    33  C   -0.057698
    34  N   -0.292170
    35  C    0.044525
    36  C    0.038792
    37  C   -0.066774
    38  C    0.134762
    39  C   -0.038839
    40  C    0.327103
    41  O   -0.525796
    42  C    0.059060
    43  C    0.489975
    44  O   -0.517373
    45  O   -0.297124
    46  C    0.072302
    47  C    0.113577
    48  C   -0.071274
    49  C   -0.013339
    50  C   -0.048509
    51  C   -0.017541
    52  C   -0.033806
    53  C   -0.038234
    54  C   -0.018646
    55  C   -0.054504
    56  C   -0.044507
    57  C   -0.038645
    58  C   -0.032697
    59  C   -0.014652
    60  C   -0.054886
    61  C   -0.036923
    62  C   -0.042752
    63  C   -0.047287
    64  C   -0.012804
    65  C   -0.060105
    66  C   -0.065715
    67  H    0.027942
    68  H    0.019223
    69  H    0.025433
    70  H    0.037406
    71  H    0.027274
    72  H    0.034423
    73  H    0.014983
    74  H    0.028937
    75  H    0.015705
    76  H    0.035043
    77  H    0.037540
    78  H    0.038567
    79  H    0.012580
    80  H    0.047424
    81  H    0.056507
    82  H    0.033483
    83  H    0.031892
    84  H    0.034795
    85  H    0.031977
    86  H    0.034847
    87  H    0.012051
    88  H    0.021809
    89  H    0.020511
    90  H    0.022637
    91  H    0.011873
    92  H    0.020614
    93  H    0.026144
    94  H    0.020978
    95  H    0.022561
    96  H    0.032989
    97  H    0.038652
    98  H    0.051890
    99  H    0.056333
   100  H    0.031540
   101  H    0.046330
   102  H    0.061293
   103  H    0.052485
   104  H    0.038420
   105  H    0.031799
   106  H    0.025856
   107  H    0.017186
   108  H    0.020702
   109  H    0.024378
   110  H    0.021427
   111  H    0.015360
   112  H    0.018954
   113  H    0.016970
   114  H    0.015899
   115  H    0.021601
   116  H    0.011945
   117  H    0.019441
   118  H    0.021787
   119  H    0.019199
   120  H    0.019670
   121  H    0.019695
   122  H    0.016671
   123  H    0.016324
   124  H    0.021638
   125  H    0.018038
   126  H    0.015210
   127  H    0.019218
   128  H    0.015016
   129  H    0.023423
   130  H    0.023814
   131  H    0.025287
   132  H    0.031221
   133  H    0.009219
   134  H    0.022328
   135  H    0.013369
   136  H    0.019654
   137  H    0.016831
   138  H    0.014184
   139  H    0.028118
   140  H    0.023489
 Sum of Mulliken charges =  -0.00000

 Dipole moment (field-independent basis, Debye):
    X=             -4.5657    Y=              7.0163    Z=             -0.8106  Tot=              8.4102
 N-N= 4.338180793938D+03 E-N= 0.000000000000D+00  KE=-9.350106248184D+03
 Leave Link  601 at Wed May  4 12:37:03 2022, MaxMem=  6710886400 cpu:               0.8 elap:               0.0
 (Enter /sw/apps/gaussian-16.0/g16/l9999.exe)
 1\1\GINC-BP1-COMPUTE065\SP\RZINDO CIS\STO-3G\C55H74Mg1N4O6\OF15641\04-
 May-2022\0\\#p ZINDO=(nstates=5)\\step_1701_chromophore_17 ZINDO\\0,1\
 Mg,0,29.219,58.717,41.571\C,0,26.262,57.076,40.846\C,0,30.882,56.077,3
 9.968\C,0,31.79,60.698,41.362\C,0,27.153,61.487,42.615\N,0,28.63,56.79
 6,40.58\C,0,27.395,56.403,40.306\C,0,27.307,55.156,39.539\C,0,28.794,5
 4.675,39.576\C,0,29.512,55.916,40.043\C,0,28.998,53.531,40.605\C,0,26.
 737,55.433,38.034\C,0,26.283,54.251,37.215\C,0,25.73,54.608,35.795\O,0

 Normal termination of Gaussian 16 at Wed May  4 12:37:03 2022.
