 Gaussian 16, Revision A.03,
 Gaussian 16:  ES64L-G16RevA.03 25-Dec-2016

 ------------------------------
 #p blyp/Def2SVP td=(nstates=5)
 ------------------------------

 --------------------------------------------------
 step_101_chromophore_11 TDDFT with blyp functional
 --------------------------------------------------
 Symbolic Z-matrix:
 Charge =  0 Multiplicity = 1

                         Standard orientation:
 ---------------------------------------------------------------------
 Center     Atomic      Atomic             Coordinates (Angstroms)
 Number     Number       Type             X           Y           Z
 ---------------------------------------------------------------------
      1         12           0       -4.938782    1.338086    0.885610
      2          6           0       -5.664651   -2.063521    0.395939
      3          6           0       -2.193689    0.648402    2.493941
      4          6           0       -4.004833    4.655152    0.404596
      5          6           0       -7.650552    1.941870   -1.330079
      6          7           0       -4.059045   -0.505344    1.311006
      7          6           0       -4.432625   -1.764250    1.052791
      8          6           0       -3.766537   -2.799053    1.937349
      9          6           0       -2.716850   -1.849929    2.727877
     10          6           0       -3.037635   -0.467607    2.140111
     11          6           0       -2.789362   -1.872645    4.315896
     12          6           0       -3.125382   -3.966423    1.260901
     13          6           0       -2.211551   -3.636569    0.055314
     14          6           0       -0.871557   -4.233829   -0.034655
     15          8           0       -0.712867   -5.205852   -0.721141
     16          8           0       -0.081475   -3.807254    1.021673
     17          7           0       -3.307260    2.514327    1.416725
     18          6           0       -2.313242    2.043061    2.162454
     19          6           0       -1.398171    3.139694    2.472790
     20          6           0       -1.870926    4.326245    1.840121
     21          6           0       -3.116897    3.908265    1.205805
     22          6           0       -0.054689    2.900967    3.261707
     23          6           0       -1.227491    5.684796    1.847522
     24          8           0       -0.154754    5.835674    2.400466
     25          6           0       -1.851151    6.831537    1.111509
     26          7           0       -5.640049    3.003448   -0.399236
     27          6           0       -5.049656    4.177722   -0.377105
     28          6           0       -5.795996    5.195011   -1.331734
     29          6           0       -6.968003    4.340955   -1.833489
     30          6           0       -6.729338    2.957754   -1.167776
     31          6           0       -6.204389    6.628918   -0.772307
     32          6           0       -7.049922    4.027614   -3.355887
     33          6           0       -6.788982    5.225793   -4.297164
     34          7           0       -6.489594    0.221840   -0.100275
     35          6           0       -7.536698    0.613797   -0.850124
     36          6           0       -8.521929   -0.448345   -1.117727
     37          6           0       -7.791564   -1.565219   -0.729099
     38          6           0       -6.544498   -1.087796   -0.128162
     39          6           0       -9.886100   -0.274158   -1.754972
     40          6           0       -7.778007   -3.023922   -0.632246
     41          8           0       -8.636518   -3.899037   -0.934558
     42          6           0       -6.380576   -3.377076    0.040408
     43          6           0       -5.705619   -4.139025   -1.002730
     44          8           0       -5.273746   -3.616405   -2.054812
     45          8           0       -5.553430   -5.459555   -0.626480
     46          6           0       -4.833288   -6.499793   -1.446077
     47          6           0        1.243517   -4.449885    1.044271
     48          6           0        2.349759   -3.999453   -0.001450
     49          6           0        3.666021   -4.212897   -0.137779
     50          6           0        4.406471   -5.129941    0.792659
     51          6           0        4.561699   -3.441563   -1.166303
     52          6           0        4.814596   -1.904577   -0.848023
     53          6           0        6.280749   -1.646666   -0.631140
     54          6           0        6.685742   -0.234335   -1.185638
     55          6           0        6.827166   -0.120870   -2.698286
     56          6           0        7.958681    0.338219   -0.384995
     57          6           0        9.194225   -0.581809   -0.190960
     58          6           0       10.542248    0.167266   -0.747913
     59          6           0       11.798838    0.270198    0.104647
     60          6           0       11.589444    1.225819    1.322063
     61          6           0       12.969948    0.652575   -0.843813
     62          6           0       14.382147    0.422953   -0.237444
     63          6           0       15.379500    1.653598   -0.309186
     64          6           0       16.833156    1.159765   -0.719418
     65          6           0       17.844305    1.739383    0.258195
     66          6           0       16.984112    1.589110   -2.225518
     67          1           0       -1.498238    0.345178    3.279639
     68          1           0       -3.755045    5.716927    0.352095
     69          1           0       -8.454601    2.014335   -2.065960
     70          1           0       -4.582564   -3.022228    2.625337
     71          1           0       -1.703757   -2.075455    2.392143
     72          1           0       -3.631797   -2.506676    4.591370
     73          1           0       -2.851532   -0.899048    4.801493
     74          1           0       -1.846054   -2.337784    4.605117
     75          1           0       -3.872160   -4.699034    0.956084
     76          1           0       -2.649643   -4.584719    2.022972
     77          1           0       -2.083690   -2.554383    0.071980
     78          1           0       -2.714520   -3.854965   -0.887491
     79          1           0        0.810401    3.185878    2.662592
     80          1           0        0.021503    1.856292    3.559488
     81          1           0        0.055212    3.492352    4.170348
     82          1           0       -1.843690    6.566162    0.054871
     83          1           0       -1.155649    7.651942    1.288217
     84          1           0       -2.815075    6.977965    1.600866
     85          1           0       -5.093662    5.401933   -2.138763
     86          1           0       -7.883223    4.727309   -1.383872
     87          1           0       -5.393125    7.341644   -0.915851
     88          1           0       -6.448728    6.718645    0.286862
     89          1           0       -7.050340    7.067576   -1.300878
     90          1           0       -8.024848    3.631609   -3.643021
     91          1           0       -6.226669    3.336095   -3.535759
     92          1           0       -6.731885    6.180475   -3.774265
     93          1           0       -7.551333    5.425741   -5.051028
     94          1           0       -5.805924    5.018812   -4.717934
     95          1           0      -10.440335   -1.211555   -1.698901
     96          1           0       -9.810326    0.062506   -2.788864
     97          1           0      -10.490093    0.442754   -1.199532
     98          1           0       -6.496328   -4.028036    0.906783
     99          1           0       -5.420011   -7.339628   -1.816640
    100          1           0       -3.986734   -6.914584   -0.897332
    101          1           0       -4.498015   -6.021035   -2.365956
    102          1           0        1.039603   -5.495848    0.813436
    103          1           0        1.702379   -4.384376    2.030922
    104          1           0        1.897994   -3.227306   -0.624554
    105          1           0        5.084974   -4.435076    1.287275
    106          1           0        5.054597   -5.873973    0.327517
    107          1           0        3.760111   -5.562489    1.557124
    108          1           0        3.986282   -3.398397   -2.091167
    109          1           0        5.432937   -4.073847   -1.330696
    110          1           0        4.236234   -1.683433    0.048900
    111          1           0        4.524451   -1.276818   -1.690928
    112          1           0        6.952272   -2.428456   -0.988667
    113          1           0        6.415688   -1.721940    0.448520
    114          1           0        5.879137    0.388803   -0.798865
    115          1           0        6.070757    0.523566   -3.146621
    116          1           0        7.011854   -1.046371   -3.243702
    117          1           0        7.738573    0.453394   -2.868284
    118          1           0        7.697519    0.460562    0.665978
    119          1           0        8.227981    1.329833   -0.748499
    120          1           0        9.057432   -1.512022   -0.741714
    121          1           0        9.255704   -0.759397    0.882666
    122          1           0       10.386565    1.218978   -0.988494
    123          1           0       10.754461   -0.427822   -1.636224
    124          1           0       11.936195   -0.725886    0.526766
    125          1           0       11.999794    0.688969    2.177300
    126          1           0       10.545157    1.388408    1.587506
    127          1           0       12.033963    2.205017    1.143484
    128          1           0       12.923492    1.735479   -0.959448
    129          1           0       12.909858    0.258268   -1.857378
    130          1           0       14.794521   -0.446043   -0.749693
    131          1           0       14.322692    0.136925    0.812441
    132          1           0       15.359865    2.160749    0.655296
    133          1           0       14.969123    2.321747   -1.066313
    134          1           0       16.891239    0.076033   -0.617279
    135          1           0       18.002095    1.041119    1.080459
    136          1           0       17.467908    2.663531    0.697430
    137          1           0       18.794000    1.942425   -0.235438
    138          1           0       17.995118    1.928338   -2.448675
    139          1           0       16.229906    2.260495   -2.637744
    140          1           0       16.919570    0.654669   -2.782898
 ---------------------------------------------------------------------

 SCF Done:  E(RB-LYP) =  -3007.36313801     A.U. after   22 cycles

 Excitation energies and oscillator strengths:

 Excited State   1:      Singlet-A      1.8045 eV  687.10 nm  f=0.3144  <S**2>=0.000
     245 -> 248        0.20227
     246 -> 247        0.68771
     246 <- 247       -0.15095
 This state for optimization and/or second-order correction.
 Total Energy, E(TD-HF/TD-DFT) =  -3007.29682537
 Copying the excited state density for this state as the 1-particle RhoCI density.

 Excited State   2:      Singlet-A      1.9999 eV  619.95 nm  f=0.0048  <S**2>=0.000
     244 -> 247        0.67796
     245 -> 247       -0.17824

 Excited State   3:      Singlet-A      2.0064 eV  617.95 nm  f=0.0497  <S**2>=0.000
     243 -> 247       -0.15870
     244 -> 247        0.19950
     245 -> 247        0.60122
     246 -> 248       -0.25100

 Excited State   4:      Singlet-A      2.0891 eV  593.47 nm  f=0.0059  <S**2>=0.000
     243 -> 247        0.68541
     245 -> 247        0.14235

 Excited State   5:      Singlet-A      2.2933 eV  540.63 nm  f=0.0000  <S**2>=0.000
     242 -> 247        0.70710

 The electronic state is 1-A.
 Alpha  occ. eigenvalues --  -46.28068 -18.83071 -18.82159 -18.77321 -18.76206
 Alpha  occ. eigenvalues --  -18.76063 -18.75470 -14.03760 -14.03210 -14.01134
 Alpha  occ. eigenvalues --  -14.01065 -10.03961 -10.03931 -10.00273  -9.99660
 Alpha  occ. eigenvalues --   -9.98503  -9.97934  -9.96859  -9.96758  -9.96487
 Alpha  occ. eigenvalues --   -9.96063  -9.96011  -9.95737  -9.95419  -9.94692
 Alpha  occ. eigenvalues --   -9.94408  -9.94136  -9.94092  -9.94071  -9.94029
 Alpha  occ. eigenvalues --   -9.93953  -9.93772  -9.93325  -9.93256  -9.93238
 Alpha  occ. eigenvalues --   -9.93073  -9.93034  -9.92936  -9.92890  -9.92810
 Alpha  occ. eigenvalues --   -9.92649  -9.92602  -9.92555  -9.92286  -9.92264
 Alpha  occ. eigenvalues --   -9.92218  -9.92214  -9.92148  -9.92004  -9.91982
 Alpha  occ. eigenvalues --   -9.91886  -9.91800  -9.91670  -9.91630  -9.91558
 Alpha  occ. eigenvalues --   -9.91343  -9.91011  -9.90926  -9.90916  -9.90907
 Alpha  occ. eigenvalues --   -9.90883  -9.90751  -9.90713  -9.90696  -9.90635
 Alpha  occ. eigenvalues --   -9.90434  -2.92676  -1.73078  -1.72557  -1.72400
 Alpha  occ. eigenvalues --   -0.98377  -0.95885  -0.91962  -0.91297  -0.89490
 Alpha  occ. eigenvalues --   -0.88367  -0.88224  -0.87628  -0.87042  -0.85114
 Alpha  occ. eigenvalues --   -0.75238  -0.73390  -0.72928  -0.72485  -0.72167
 Alpha  occ. eigenvalues --   -0.71738  -0.71307  -0.70879  -0.70440  -0.70426
 Alpha  occ. eigenvalues --   -0.69215  -0.68570  -0.68020  -0.67324  -0.67058
 Alpha  occ. eigenvalues --   -0.66122  -0.65755  -0.65434  -0.64905  -0.64530
 Alpha  occ. eigenvalues --   -0.63676  -0.62829  -0.62213  -0.61782  -0.60946
 Alpha  occ. eigenvalues --   -0.60506  -0.60226  -0.59961  -0.59598  -0.58723
 Alpha  occ. eigenvalues --   -0.58000  -0.57573  -0.57190  -0.56574  -0.55103
 Alpha  occ. eigenvalues --   -0.54243  -0.54032  -0.52967  -0.52262  -0.52046
 Alpha  occ. eigenvalues --   -0.51360  -0.50798  -0.50761  -0.50191  -0.49570
 Alpha  occ. eigenvalues --   -0.49288  -0.48398  -0.48390  -0.47882  -0.46363
 Alpha  occ. eigenvalues --   -0.46165  -0.46030  -0.45737  -0.45215  -0.44798
 Alpha  occ. eigenvalues --   -0.44175  -0.43829  -0.43297  -0.42725  -0.42407
 Alpha  occ. eigenvalues --   -0.42152  -0.41641  -0.41494  -0.41196  -0.40868
 Alpha  occ. eigenvalues --   -0.40792  -0.40622  -0.40528  -0.40423  -0.40028
 Alpha  occ. eigenvalues --   -0.39821  -0.39493  -0.39347  -0.39063  -0.39000
 Alpha  occ. eigenvalues --   -0.38747  -0.38587  -0.38568  -0.38335  -0.38126
 Alpha  occ. eigenvalues --   -0.37970  -0.37700  -0.37623  -0.37195  -0.36970
 Alpha  occ. eigenvalues --   -0.36786  -0.36591  -0.36443  -0.36377  -0.36170
 Alpha  occ. eigenvalues --   -0.35941  -0.35898  -0.35643  -0.35572  -0.35451
 Alpha  occ. eigenvalues --   -0.35359  -0.34935  -0.34817  -0.34794  -0.34592
 Alpha  occ. eigenvalues --   -0.34304  -0.34214  -0.34086  -0.33974  -0.33843
 Alpha  occ. eigenvalues --   -0.33760  -0.33736  -0.33503  -0.33259  -0.33049
 Alpha  occ. eigenvalues --   -0.32920  -0.32752  -0.32710  -0.32540  -0.32476
 Alpha  occ. eigenvalues --   -0.32268  -0.32216  -0.31880  -0.31765  -0.31697
 Alpha  occ. eigenvalues --   -0.31576  -0.31300  -0.31254  -0.31042  -0.30866
 Alpha  occ. eigenvalues --   -0.30753  -0.30521  -0.30222  -0.30203  -0.29748
 Alpha  occ. eigenvalues --   -0.29371  -0.29268  -0.29058  -0.28989  -0.28677
 Alpha  occ. eigenvalues --   -0.28661  -0.28280  -0.28245  -0.27933  -0.27647
 Alpha  occ. eigenvalues --   -0.27555  -0.27123  -0.26753  -0.26681  -0.26541
 Alpha  occ. eigenvalues --   -0.26240  -0.26065  -0.25609  -0.25460  -0.25222
 Alpha  occ. eigenvalues --   -0.24902  -0.24616  -0.24468  -0.23871  -0.23421
 Alpha  occ. eigenvalues --   -0.22768  -0.22259  -0.22044  -0.21349  -0.21248
 Alpha  occ. eigenvalues --   -0.20494  -0.19886  -0.18972  -0.18740  -0.17405
 Alpha  occ. eigenvalues --   -0.15702
 Alpha virt. eigenvalues --   -0.11458  -0.07149  -0.06706  -0.04564  -0.03933
 Alpha virt. eigenvalues --   -0.03689  -0.02780  -0.01230  -0.00944   0.00397
 Alpha virt. eigenvalues --    0.01503   0.01984   0.02426   0.02501   0.03205

 Mulliken charges:
               1
     1  Mg   0.707095
     2  C    0.027343
     3  C   -0.044291
     4  C   -0.063034
     5  C   -0.073518
     6  N   -0.197822
     7  C   -0.092243
     8  C    0.016718
     9  C   -0.038117
    10  C   -0.020818
    11  C    0.125152
    12  C    0.152776
    13  C    0.133062
    14  C    0.066200
    15  O   -0.163661
    16  O   -0.272998
    17  N   -0.304889
    18  C    0.147874
    19  C   -0.133357
    20  C    0.059563
    21  C    0.095160
    22  C    0.170671
    23  C   -0.139009
    24  O   -0.152183
    25  C    0.169654
    26  N   -0.136952
    27  C    0.012869
    28  C    0.036744
    29  C    0.030356
    30  C    0.012997
    31  C    0.104252
    32  C    0.070658
    33  C    0.067196
    34  N   -0.174077
    35  C    0.055552
    36  C   -0.194893
    37  C    0.127569
    38  C    0.009496
    39  C    0.180807
    40  C   -0.025799
    41  O   -0.167685
    42  C    0.069009
    43  C    0.137683
    44  O   -0.208983
    45  O   -0.286231
    46  C    0.201141
    47  C    0.290301
    48  C   -0.088151
    49  C   -0.173915
    50  C    0.137242
    51  C    0.129562
    52  C    0.109005
    53  C    0.062135
    54  C   -0.059510
    55  C    0.145303
    56  C    0.054735
    57  C    0.084167
    58  C    0.046646
    59  C   -0.050488
    60  C    0.101110
    61  C    0.090173
    62  C    0.063302
    63  C    0.077115
    64  C   -0.093685
    65  C    0.111340
    66  C    0.100998
    67  H   -0.052680
    68  H   -0.094086
    69  H   -0.063275
    70  H   -0.019025
    71  H   -0.007039
    72  H   -0.010105
    73  H    0.008679
    74  H   -0.003291
    75  H   -0.019603
    76  H   -0.029078
    77  H   -0.006129
    78  H    0.007693
    79  H    0.006295
    80  H   -0.028810
    81  H   -0.001733
    82  H    0.022600
    83  H   -0.012771
    84  H    0.026328
    85  H   -0.025067
    86  H   -0.029176
    87  H   -0.011180
    88  H   -0.010336
    89  H   -0.005703
    90  H   -0.005266
    91  H   -0.011739
    92  H   -0.018246
    93  H   -0.009542
    94  H   -0.005953
    95  H    0.007692
    96  H    0.015237
    97  H   -0.005862
    98  H   -0.019123
    99  H    0.023817
   100  H    0.029296
   101  H    0.023667
   102  H    0.002350
   103  H    0.006656
   104  H   -0.039951
   105  H   -0.010388
   106  H    0.001029
   107  H   -0.016893
   108  H   -0.021909
   109  H   -0.029116
   110  H   -0.016652
   111  H   -0.021976
   112  H   -0.029027
   113  H   -0.046896
   114  H   -0.038748
   115  H   -0.009634
   116  H   -0.011828
   117  H   -0.030275
   118  H   -0.043336
   119  H   -0.025690
   120  H   -0.021217
   121  H   -0.030246
   122  H   -0.030122
   123  H   -0.033963
   124  H   -0.045313
   125  H   -0.011783
   126  H   -0.017004
   127  H   -0.010586
   128  H   -0.040097
   129  H   -0.032259
   130  H   -0.031127
   131  H   -0.034424
   132  H   -0.026019
   133  H   -0.025570
   134  H   -0.023437
   135  H   -0.017070
   136  H   -0.016885
   137  H   -0.022738
   138  H   -0.023977
   139  H   -0.001396
   140  H   -0.023395
 Sum of Mulliken charges =  -0.00000

 Dipole moment (field-independent basis, Debye):
    X=              0.4945    Y=              2.0148    Z=              2.0595  Tot=              2.9232
 Quadrupole moment (field-independent basis, Debye-Ang):
   XX=           -401.7407   YY=           -403.9808   ZZ=           -401.6605
   XY=            -53.7198   XZ=            -11.0876   YZ=            -27.3504

 Normal termination of Gaussian 16 at Wed Apr 27 00:12:21 2022.
