 Gaussian 16, Revision A.03,
 Gaussian 16:  ES64L-G16RevA.03 25-Dec-2016

 -----------------------------------
 #p cam-b3lyp/Def2SVP td=(nstates=5)
 -----------------------------------

 -------------------------------------------------------
 step_101_chromophore_11 TDDFT with cam-b3lyp functional
 -------------------------------------------------------
 Symbolic Z-matrix:
 Charge =  0 Multiplicity = 1

                         Standard orientation:
 ---------------------------------------------------------------------
 Center     Atomic      Atomic             Coordinates (Angstroms)
 Number     Number       Type             X           Y           Z
 ---------------------------------------------------------------------
      1         12           0       -4.938782    1.338086    0.885610
      2          6           0       -5.664651   -2.063521    0.395939
      3          6           0       -2.193689    0.648402    2.493941
      4          6           0       -4.004833    4.655152    0.404596
      5          6           0       -7.650552    1.941870   -1.330079
      6          7           0       -4.059045   -0.505344    1.311006
      7          6           0       -4.432625   -1.764250    1.052791
      8          6           0       -3.766537   -2.799053    1.937349
      9          6           0       -2.716850   -1.849929    2.727877
     10          6           0       -3.037635   -0.467607    2.140111
     11          6           0       -2.789362   -1.872645    4.315896
     12          6           0       -3.125382   -3.966423    1.260901
     13          6           0       -2.211551   -3.636569    0.055314
     14          6           0       -0.871557   -4.233829   -0.034655
     15          8           0       -0.712867   -5.205852   -0.721141
     16          8           0       -0.081475   -3.807254    1.021673
     17          7           0       -3.307260    2.514327    1.416725
     18          6           0       -2.313242    2.043061    2.162454
     19          6           0       -1.398171    3.139694    2.472790
     20          6           0       -1.870926    4.326245    1.840121
     21          6           0       -3.116897    3.908265    1.205805
     22          6           0       -0.054689    2.900967    3.261707
     23          6           0       -1.227491    5.684796    1.847522
     24          8           0       -0.154754    5.835674    2.400466
     25          6           0       -1.851151    6.831537    1.111509
     26          7           0       -5.640049    3.003448   -0.399236
     27          6           0       -5.049656    4.177722   -0.377105
     28          6           0       -5.795996    5.195011   -1.331734
     29          6           0       -6.968003    4.340955   -1.833489
     30          6           0       -6.729338    2.957754   -1.167776
     31          6           0       -6.204389    6.628918   -0.772307
     32          6           0       -7.049922    4.027614   -3.355887
     33          6           0       -6.788982    5.225793   -4.297164
     34          7           0       -6.489594    0.221840   -0.100275
     35          6           0       -7.536698    0.613797   -0.850124
     36          6           0       -8.521929   -0.448345   -1.117727
     37          6           0       -7.791564   -1.565219   -0.729099
     38          6           0       -6.544498   -1.087796   -0.128162
     39          6           0       -9.886100   -0.274158   -1.754972
     40          6           0       -7.778007   -3.023922   -0.632246
     41          8           0       -8.636518   -3.899037   -0.934558
     42          6           0       -6.380576   -3.377076    0.040408
     43          6           0       -5.705619   -4.139025   -1.002730
     44          8           0       -5.273746   -3.616405   -2.054812
     45          8           0       -5.553430   -5.459555   -0.626480
     46          6           0       -4.833288   -6.499793   -1.446077
     47          6           0        1.243517   -4.449885    1.044271
     48          6           0        2.349759   -3.999453   -0.001450
     49          6           0        3.666021   -4.212897   -0.137779
     50          6           0        4.406471   -5.129941    0.792659
     51          6           0        4.561699   -3.441563   -1.166303
     52          6           0        4.814596   -1.904577   -0.848023
     53          6           0        6.280749   -1.646666   -0.631140
     54          6           0        6.685742   -0.234335   -1.185638
     55          6           0        6.827166   -0.120870   -2.698286
     56          6           0        7.958681    0.338219   -0.384995
     57          6           0        9.194225   -0.581809   -0.190960
     58          6           0       10.542248    0.167266   -0.747913
     59          6           0       11.798838    0.270198    0.104647
     60          6           0       11.589444    1.225819    1.322063
     61          6           0       12.969948    0.652575   -0.843813
     62          6           0       14.382147    0.422953   -0.237444
     63          6           0       15.379500    1.653598   -0.309186
     64          6           0       16.833156    1.159765   -0.719418
     65          6           0       17.844305    1.739383    0.258195
     66          6           0       16.984112    1.589110   -2.225518
     67          1           0       -1.498238    0.345178    3.279639
     68          1           0       -3.755045    5.716927    0.352095
     69          1           0       -8.454601    2.014335   -2.065960
     70          1           0       -4.582564   -3.022228    2.625337
     71          1           0       -1.703757   -2.075455    2.392143
     72          1           0       -3.631797   -2.506676    4.591370
     73          1           0       -2.851532   -0.899048    4.801493
     74          1           0       -1.846054   -2.337784    4.605117
     75          1           0       -3.872160   -4.699034    0.956084
     76          1           0       -2.649643   -4.584719    2.022972
     77          1           0       -2.083690   -2.554383    0.071980
     78          1           0       -2.714520   -3.854965   -0.887491
     79          1           0        0.810401    3.185878    2.662592
     80          1           0        0.021503    1.856292    3.559488
     81          1           0        0.055212    3.492352    4.170348
     82          1           0       -1.843690    6.566162    0.054871
     83          1           0       -1.155649    7.651942    1.288217
     84          1           0       -2.815075    6.977965    1.600866
     85          1           0       -5.093662    5.401933   -2.138763
     86          1           0       -7.883223    4.727309   -1.383872
     87          1           0       -5.393125    7.341644   -0.915851
     88          1           0       -6.448728    6.718645    0.286862
     89          1           0       -7.050340    7.067576   -1.300878
     90          1           0       -8.024848    3.631609   -3.643021
     91          1           0       -6.226669    3.336095   -3.535759
     92          1           0       -6.731885    6.180475   -3.774265
     93          1           0       -7.551333    5.425741   -5.051028
     94          1           0       -5.805924    5.018812   -4.717934
     95          1           0      -10.440335   -1.211555   -1.698901
     96          1           0       -9.810326    0.062506   -2.788864
     97          1           0      -10.490093    0.442754   -1.199532
     98          1           0       -6.496328   -4.028036    0.906783
     99          1           0       -5.420011   -7.339628   -1.816640
    100          1           0       -3.986734   -6.914584   -0.897332
    101          1           0       -4.498015   -6.021035   -2.365956
    102          1           0        1.039603   -5.495848    0.813436
    103          1           0        1.702379   -4.384376    2.030922
    104          1           0        1.897994   -3.227306   -0.624554
    105          1           0        5.084974   -4.435076    1.287275
    106          1           0        5.054597   -5.873973    0.327517
    107          1           0        3.760111   -5.562489    1.557124
    108          1           0        3.986282   -3.398397   -2.091167
    109          1           0        5.432937   -4.073847   -1.330696
    110          1           0        4.236234   -1.683433    0.048900
    111          1           0        4.524451   -1.276818   -1.690928
    112          1           0        6.952272   -2.428456   -0.988667
    113          1           0        6.415688   -1.721940    0.448520
    114          1           0        5.879137    0.388803   -0.798865
    115          1           0        6.070757    0.523566   -3.146621
    116          1           0        7.011854   -1.046371   -3.243702
    117          1           0        7.738573    0.453394   -2.868284
    118          1           0        7.697519    0.460562    0.665978
    119          1           0        8.227981    1.329833   -0.748499
    120          1           0        9.057432   -1.512022   -0.741714
    121          1           0        9.255704   -0.759397    0.882666
    122          1           0       10.386565    1.218978   -0.988494
    123          1           0       10.754461   -0.427822   -1.636224
    124          1           0       11.936195   -0.725886    0.526766
    125          1           0       11.999794    0.688969    2.177300
    126          1           0       10.545157    1.388408    1.587506
    127          1           0       12.033963    2.205017    1.143484
    128          1           0       12.923492    1.735479   -0.959448
    129          1           0       12.909858    0.258268   -1.857378
    130          1           0       14.794521   -0.446043   -0.749693
    131          1           0       14.322692    0.136925    0.812441
    132          1           0       15.359865    2.160749    0.655296
    133          1           0       14.969123    2.321747   -1.066313
    134          1           0       16.891239    0.076033   -0.617279
    135          1           0       18.002095    1.041119    1.080459
    136          1           0       17.467908    2.663531    0.697430
    137          1           0       18.794000    1.942425   -0.235438
    138          1           0       17.995118    1.928338   -2.448675
    139          1           0       16.229906    2.260495   -2.637744
    140          1           0       16.919570    0.654669   -2.782898
 ---------------------------------------------------------------------

 SCF Done:  E(RCAM-B3LYP) =  -3007.15087163     A.U. after   18 cycles

 Excitation energies and oscillator strengths:

 Excited State   1:      Singlet-A      1.7104 eV  724.86 nm  f=0.3972  <S**2>=0.000
     245 -> 248        0.18870
     246 -> 247        0.68382
     245 <- 248        0.10903
 This state for optimization and/or second-order correction.
 Total Energy, E(TD-HF/TD-DFT) =  -3007.08801386
 Copying the excited state density for this state as the 1-particle RhoCI density.

 Excited State   2:      Singlet-A      2.2571 eV  549.30 nm  f=0.0631  <S**2>=0.000
     245 -> 247        0.61405
     246 -> 248       -0.34199

 Excited State   3:      Singlet-A      3.3822 eV  366.58 nm  f=0.5013  <S**2>=0.000
     242 -> 247        0.16483
     243 -> 247        0.18352
     245 -> 247        0.29410
     246 -> 248        0.56476
     245 <- 247       -0.10171

 Excited State   4:      Singlet-A      3.4639 eV  357.93 nm  f=0.0274  <S**2>=0.000
     240 -> 247        0.16186
     240 -> 249       -0.11590
     241 -> 247        0.44586
     241 -> 249       -0.31193
     241 -> 251        0.14156
     242 -> 247       -0.12570
     243 -> 247        0.23063
     246 -> 248        0.10815

 Excited State   5:      Singlet-A      3.5435 eV  349.89 nm  f=0.1015  <S**2>=0.000
     241 -> 247       -0.16260
     243 -> 247        0.62054
     245 -> 247       -0.12044
     246 -> 248       -0.17011

 The electronic state is 1-A.
 Alpha  occ. eigenvalues --  -46.89654 -19.26011 -19.25165 -19.20357 -19.19316
 Alpha  occ. eigenvalues --  -19.19290 -19.18707 -14.42562 -14.41977 -14.39608
 Alpha  occ. eigenvalues --  -14.39470 -10.39518 -10.39160 -10.35804 -10.34786
 Alpha  occ. eigenvalues --  -10.32664 -10.32087 -10.31309 -10.31219 -10.30906
 Alpha  occ. eigenvalues --  -10.30565 -10.30249 -10.30067 -10.29580 -10.28942
 Alpha  occ. eigenvalues --  -10.28656 -10.28586 -10.28482 -10.28418 -10.28047
 Alpha  occ. eigenvalues --  -10.28045 -10.28043 -10.27333 -10.27208 -10.27137
 Alpha  occ. eigenvalues --  -10.27110 -10.26927 -10.26832 -10.26738 -10.26723
 Alpha  occ. eigenvalues --  -10.26654 -10.26514 -10.26495 -10.26345 -10.26299
 Alpha  occ. eigenvalues --  -10.26145 -10.26000 -10.25925 -10.25886 -10.25871
 Alpha  occ. eigenvalues --  -10.25736 -10.25731 -10.25361 -10.25278 -10.25224
 Alpha  occ. eigenvalues --  -10.25119 -10.24648 -10.24600 -10.24569 -10.24559
 Alpha  occ. eigenvalues --  -10.24519 -10.24436 -10.24407 -10.24386 -10.24353
 Alpha  occ. eigenvalues --  -10.24005  -3.18159  -1.93039  -1.92613  -1.92468
 Alpha  occ. eigenvalues --   -1.16899  -1.14393  -1.10406  -1.09207  -1.07827
 Alpha  occ. eigenvalues --   -1.06227  -1.06077  -1.05295  -1.04639  -1.02665
 Alpha  occ. eigenvalues --   -0.92378  -0.90209  -0.89773  -0.89174  -0.88954
 Alpha  occ. eigenvalues --   -0.88379  -0.87996  -0.87493  -0.87019  -0.86944
 Alpha  occ. eigenvalues --   -0.85720  -0.84963  -0.84289  -0.83542  -0.83206
 Alpha  occ. eigenvalues --   -0.82285  -0.81737  -0.81392  -0.80704  -0.80320
 Alpha  occ. eigenvalues --   -0.79452  -0.78473  -0.77741  -0.77339  -0.76398
 Alpha  occ. eigenvalues --   -0.75886  -0.75603  -0.75264  -0.74921  -0.73831
 Alpha  occ. eigenvalues --   -0.73172  -0.72581  -0.72107  -0.71462  -0.69709
 Alpha  occ. eigenvalues --   -0.68877  -0.68679  -0.67486  -0.66543  -0.66209
 Alpha  occ. eigenvalues --   -0.65313  -0.65011  -0.64860  -0.64155  -0.63378
 Alpha  occ. eigenvalues --   -0.63303  -0.62299  -0.62000  -0.61683  -0.59952
 Alpha  occ. eigenvalues --   -0.59808  -0.59570  -0.59244  -0.58673  -0.58177
 Alpha  occ. eigenvalues --   -0.57725  -0.57320  -0.56430  -0.55990  -0.55513
 Alpha  occ. eigenvalues --   -0.55350  -0.54551  -0.54444  -0.54029  -0.53941
 Alpha  occ. eigenvalues --   -0.53690  -0.53573  -0.53465  -0.53279  -0.52849
 Alpha  occ. eigenvalues --   -0.52598  -0.52232  -0.51925  -0.51539  -0.51479
 Alpha  occ. eigenvalues --   -0.51286  -0.51123  -0.50934  -0.50764  -0.50613
 Alpha  occ. eigenvalues --   -0.50327  -0.50068  -0.49892  -0.49534  -0.49406
 Alpha  occ. eigenvalues --   -0.49208  -0.48961  -0.48821  -0.48719  -0.48629
 Alpha  occ. eigenvalues --   -0.48448  -0.48031  -0.47971  -0.47724  -0.47583
 Alpha  occ. eigenvalues --   -0.47394  -0.46892  -0.46783  -0.46678  -0.46627
 Alpha  occ. eigenvalues --   -0.46090  -0.45982  -0.45882  -0.45766  -0.45649
 Alpha  occ. eigenvalues --   -0.45571  -0.45459  -0.45226  -0.44912  -0.44825
 Alpha  occ. eigenvalues --   -0.44691  -0.44538  -0.44341  -0.44278  -0.44084
 Alpha  occ. eigenvalues --   -0.43925  -0.43848  -0.43586  -0.43338  -0.43157
 Alpha  occ. eigenvalues --   -0.43066  -0.42854  -0.42711  -0.42664  -0.42338
 Alpha  occ. eigenvalues --   -0.42332  -0.41814  -0.41771  -0.41483  -0.41148
 Alpha  occ. eigenvalues --   -0.40786  -0.40365  -0.40297  -0.40033  -0.40024
 Alpha  occ. eigenvalues --   -0.39874  -0.39651  -0.39214  -0.38877  -0.38643
 Alpha  occ. eigenvalues --   -0.38485  -0.38095  -0.37995  -0.37652  -0.37339
 Alpha  occ. eigenvalues --   -0.36825  -0.36738  -0.36483  -0.36392  -0.36059
 Alpha  occ. eigenvalues --   -0.35768  -0.35571  -0.35135  -0.34234  -0.34185
 Alpha  occ. eigenvalues --   -0.33869  -0.33287  -0.33039  -0.31371  -0.31109
 Alpha  occ. eigenvalues --   -0.31064  -0.30617  -0.29844  -0.29588  -0.24197
 Alpha  occ. eigenvalues --   -0.20846
 Alpha virt. eigenvalues --   -0.08425  -0.02093  -0.00238   0.01079   0.02500
 Alpha virt. eigenvalues --    0.04228   0.04912   0.06176   0.06346   0.06992
 Alpha virt. eigenvalues --    0.07972   0.08593   0.08691   0.09184   0.09467

 Mulliken charges:
               1
     1  Mg   0.839764
     2  C    0.006836
     3  C   -0.054618
     4  C   -0.085158
     5  C   -0.074493
     6  N   -0.273468
     7  C   -0.044252
     8  C   -0.040293
     9  C   -0.091449
    10  C    0.000285
    11  C    0.067814
    12  C    0.098164
    13  C    0.059562
    14  C    0.149581
    15  O   -0.201846
    16  O   -0.337260
    17  N   -0.392937
    18  C    0.151919
    19  C   -0.138188
    20  C   -0.013277
    21  C    0.124198
    22  C    0.124633
    23  C   -0.054724
    24  O   -0.192377
    25  C    0.077582
    26  N   -0.212010
    27  C    0.041871
    28  C   -0.022016
    29  C   -0.026432
    30  C    0.030845
    31  C    0.046131
    32  C    0.013542
    33  C    0.006229
    34  N   -0.261622
    35  C    0.055967
    36  C   -0.181624
    37  C    0.048595
    38  C    0.040257
    39  C    0.126136
    40  C    0.068613
    41  O   -0.206094
    42  C   -0.008276
    43  C    0.226116
    44  O   -0.246217
    45  O   -0.353996
    46  C    0.169906
    47  C    0.260086
    48  C   -0.114183
    49  C   -0.194656
    50  C    0.076113
    51  C    0.073835
    52  C    0.052268
    53  C    0.013186
    54  C   -0.118153
    55  C    0.078165
    56  C    0.008349
    57  C    0.029165
    58  C    0.000182
    59  C   -0.106245
    60  C    0.042472
    61  C    0.035839
    62  C    0.012859
    63  C    0.024238
    64  C   -0.154588
    65  C    0.053055
    66  C    0.042348
    67  H   -0.021100
    68  H   -0.055428
    69  H   -0.028183
    70  H    0.016859
    71  H    0.027994
    72  H    0.013849
    73  H    0.033075
    74  H    0.020727
    75  H    0.010148
    76  H    0.004900
    77  H    0.024325
    78  H    0.039475
    79  H    0.033233
    80  H   -0.003874
    81  H    0.025337
    82  H    0.050225
    83  H    0.025309
    84  H    0.051435
    85  H    0.009902
    86  H    0.005837
    87  H    0.011416
    88  H    0.015536
    89  H    0.018420
    90  H    0.021862
    91  H    0.018797
    92  H    0.002689
    93  H    0.015690
    94  H    0.016947
    95  H    0.036018
    96  H    0.039676
    97  H    0.021088
    98  H    0.027094
    99  H    0.045619
   100  H    0.049060
   101  H    0.049473
   102  H    0.035551
   103  H    0.033586
   104  H   -0.009332
   105  H    0.011579
   106  H    0.025948
   107  H    0.006894
   108  H    0.009968
   109  H    0.000013
   110  H    0.012675
   111  H    0.007057
   112  H   -0.003666
   113  H   -0.017506
   114  H   -0.004993
   115  H    0.015361
   116  H    0.012740
   117  H   -0.004586
   118  H   -0.014364
   119  H    0.002145
   120  H    0.005269
   121  H   -0.002593
   122  H   -0.005099
   123  H   -0.005548
   124  H   -0.014053
   125  H    0.011635
   126  H    0.006278
   127  H    0.012458
   128  H   -0.013445
   129  H   -0.001976
   130  H   -0.003431
   131  H   -0.006079
   132  H    0.001744
   133  H    0.001067
   134  H    0.007615
   135  H    0.007226
   136  H    0.006255
   137  H    0.001373
   138  H    0.000504
   139  H    0.021099
   140  H    0.000954
 Sum of Mulliken charges =  -0.00000

 Dipole moment (field-independent basis, Debye):
    X=              0.6130    Y=              2.1984    Z=              2.2048  Tot=              3.1734
 Quadrupole moment (field-independent basis, Debye-Ang):
   XX=           -401.5519   YY=           -399.4712   ZZ=           -401.0766
   XY=            -55.1090   XZ=            -10.9550   YZ=            -28.0531

 Normal termination of Gaussian 16 at Tue Apr 26 23:09:13 2022.
