 Gaussian 16, Revision A.03,
 Gaussian 16:  ES64L-G16RevA.03 25-Dec-2016

 ---------------------------------
 #p PBE1PBE/Def2SVP td=(nstates=5)
 ---------------------------------

 -----------------------------------------------------
 step_101_chromophore_11 TDDFT with PBE1PBE functional
 -----------------------------------------------------
 Symbolic Z-matrix:
 Charge =  0 Multiplicity = 1

                         Standard orientation:
 ---------------------------------------------------------------------
 Center     Atomic      Atomic             Coordinates (Angstroms)
 Number     Number       Type             X           Y           Z
 ---------------------------------------------------------------------
      1         12           0       -4.938782    1.338086    0.885610
      2          6           0       -5.664651   -2.063521    0.395939
      3          6           0       -2.193689    0.648402    2.493941
      4          6           0       -4.004833    4.655152    0.404596
      5          6           0       -7.650552    1.941870   -1.330079
      6          7           0       -4.059045   -0.505344    1.311006
      7          6           0       -4.432625   -1.764250    1.052791
      8          6           0       -3.766537   -2.799053    1.937349
      9          6           0       -2.716850   -1.849929    2.727877
     10          6           0       -3.037635   -0.467607    2.140111
     11          6           0       -2.789362   -1.872645    4.315896
     12          6           0       -3.125382   -3.966423    1.260901
     13          6           0       -2.211551   -3.636569    0.055314
     14          6           0       -0.871557   -4.233829   -0.034655
     15          8           0       -0.712867   -5.205852   -0.721141
     16          8           0       -0.081475   -3.807254    1.021673
     17          7           0       -3.307260    2.514327    1.416725
     18          6           0       -2.313242    2.043061    2.162454
     19          6           0       -1.398171    3.139694    2.472790
     20          6           0       -1.870926    4.326245    1.840121
     21          6           0       -3.116897    3.908265    1.205805
     22          6           0       -0.054689    2.900967    3.261707
     23          6           0       -1.227491    5.684796    1.847522
     24          8           0       -0.154754    5.835674    2.400466
     25          6           0       -1.851151    6.831537    1.111509
     26          7           0       -5.640049    3.003448   -0.399236
     27          6           0       -5.049656    4.177722   -0.377105
     28          6           0       -5.795996    5.195011   -1.331734
     29          6           0       -6.968003    4.340955   -1.833489
     30          6           0       -6.729338    2.957754   -1.167776
     31          6           0       -6.204389    6.628918   -0.772307
     32          6           0       -7.049922    4.027614   -3.355887
     33          6           0       -6.788982    5.225793   -4.297164
     34          7           0       -6.489594    0.221840   -0.100275
     35          6           0       -7.536698    0.613797   -0.850124
     36          6           0       -8.521929   -0.448345   -1.117727
     37          6           0       -7.791564   -1.565219   -0.729099
     38          6           0       -6.544498   -1.087796   -0.128162
     39          6           0       -9.886100   -0.274158   -1.754972
     40          6           0       -7.778007   -3.023922   -0.632246
     41          8           0       -8.636518   -3.899037   -0.934558
     42          6           0       -6.380576   -3.377076    0.040408
     43          6           0       -5.705619   -4.139025   -1.002730
     44          8           0       -5.273746   -3.616405   -2.054812
     45          8           0       -5.553430   -5.459555   -0.626480
     46          6           0       -4.833288   -6.499793   -1.446077
     47          6           0        1.243517   -4.449885    1.044271
     48          6           0        2.349759   -3.999453   -0.001450
     49          6           0        3.666021   -4.212897   -0.137779
     50          6           0        4.406471   -5.129941    0.792659
     51          6           0        4.561699   -3.441563   -1.166303
     52          6           0        4.814596   -1.904577   -0.848023
     53          6           0        6.280749   -1.646666   -0.631140
     54          6           0        6.685742   -0.234335   -1.185638
     55          6           0        6.827166   -0.120870   -2.698286
     56          6           0        7.958681    0.338219   -0.384995
     57          6           0        9.194225   -0.581809   -0.190960
     58          6           0       10.542248    0.167266   -0.747913
     59          6           0       11.798838    0.270198    0.104647
     60          6           0       11.589444    1.225819    1.322063
     61          6           0       12.969948    0.652575   -0.843813
     62          6           0       14.382147    0.422953   -0.237444
     63          6           0       15.379500    1.653598   -0.309186
     64          6           0       16.833156    1.159765   -0.719418
     65          6           0       17.844305    1.739383    0.258195
     66          6           0       16.984112    1.589110   -2.225518
     67          1           0       -1.498238    0.345178    3.279639
     68          1           0       -3.755045    5.716927    0.352095
     69          1           0       -8.454601    2.014335   -2.065960
     70          1           0       -4.582564   -3.022228    2.625337
     71          1           0       -1.703757   -2.075455    2.392143
     72          1           0       -3.631797   -2.506676    4.591370
     73          1           0       -2.851532   -0.899048    4.801493
     74          1           0       -1.846054   -2.337784    4.605117
     75          1           0       -3.872160   -4.699034    0.956084
     76          1           0       -2.649643   -4.584719    2.022972
     77          1           0       -2.083690   -2.554383    0.071980
     78          1           0       -2.714520   -3.854965   -0.887491
     79          1           0        0.810401    3.185878    2.662592
     80          1           0        0.021503    1.856292    3.559488
     81          1           0        0.055212    3.492352    4.170348
     82          1           0       -1.843690    6.566162    0.054871
     83          1           0       -1.155649    7.651942    1.288217
     84          1           0       -2.815075    6.977965    1.600866
     85          1           0       -5.093662    5.401933   -2.138763
     86          1           0       -7.883223    4.727309   -1.383872
     87          1           0       -5.393125    7.341644   -0.915851
     88          1           0       -6.448728    6.718645    0.286862
     89          1           0       -7.050340    7.067576   -1.300878
     90          1           0       -8.024848    3.631609   -3.643021
     91          1           0       -6.226669    3.336095   -3.535759
     92          1           0       -6.731885    6.180475   -3.774265
     93          1           0       -7.551333    5.425741   -5.051028
     94          1           0       -5.805924    5.018812   -4.717934
     95          1           0      -10.440335   -1.211555   -1.698901
     96          1           0       -9.810326    0.062506   -2.788864
     97          1           0      -10.490093    0.442754   -1.199532
     98          1           0       -6.496328   -4.028036    0.906783
     99          1           0       -5.420011   -7.339628   -1.816640
    100          1           0       -3.986734   -6.914584   -0.897332
    101          1           0       -4.498015   -6.021035   -2.365956
    102          1           0        1.039603   -5.495848    0.813436
    103          1           0        1.702379   -4.384376    2.030922
    104          1           0        1.897994   -3.227306   -0.624554
    105          1           0        5.084974   -4.435076    1.287275
    106          1           0        5.054597   -5.873973    0.327517
    107          1           0        3.760111   -5.562489    1.557124
    108          1           0        3.986282   -3.398397   -2.091167
    109          1           0        5.432937   -4.073847   -1.330696
    110          1           0        4.236234   -1.683433    0.048900
    111          1           0        4.524451   -1.276818   -1.690928
    112          1           0        6.952272   -2.428456   -0.988667
    113          1           0        6.415688   -1.721940    0.448520
    114          1           0        5.879137    0.388803   -0.798865
    115          1           0        6.070757    0.523566   -3.146621
    116          1           0        7.011854   -1.046371   -3.243702
    117          1           0        7.738573    0.453394   -2.868284
    118          1           0        7.697519    0.460562    0.665978
    119          1           0        8.227981    1.329833   -0.748499
    120          1           0        9.057432   -1.512022   -0.741714
    121          1           0        9.255704   -0.759397    0.882666
    122          1           0       10.386565    1.218978   -0.988494
    123          1           0       10.754461   -0.427822   -1.636224
    124          1           0       11.936195   -0.725886    0.526766
    125          1           0       11.999794    0.688969    2.177300
    126          1           0       10.545157    1.388408    1.587506
    127          1           0       12.033963    2.205017    1.143484
    128          1           0       12.923492    1.735479   -0.959448
    129          1           0       12.909858    0.258268   -1.857378
    130          1           0       14.794521   -0.446043   -0.749693
    131          1           0       14.322692    0.136925    0.812441
    132          1           0       15.359865    2.160749    0.655296
    133          1           0       14.969123    2.321747   -1.066313
    134          1           0       16.891239    0.076033   -0.617279
    135          1           0       18.002095    1.041119    1.080459
    136          1           0       17.467908    2.663531    0.697430
    137          1           0       18.794000    1.942425   -0.235438
    138          1           0       17.995118    1.928338   -2.448675
    139          1           0       16.229906    2.260495   -2.637744
    140          1           0       16.919570    0.654669   -2.782898
 ---------------------------------------------------------------------

 SCF Done:  E(RPBE1PBE) =  -3005.33908515     A.U. after   15 cycles

 Excitation energies and oscillator strengths:

 Excited State   1:      Singlet-A      1.8609 eV  666.27 nm  f=0.3866  <S**2>=0.000
     245 -> 248        0.18185
     246 -> 247        0.69147
     246 <- 247       -0.10794
 This state for optimization and/or second-order correction.
 Total Energy, E(TD-HF/TD-DFT) =  -3005.27069990
 Copying the excited state density for this state as the 1-particle RhoCI density.

 Excited State   2:      Singlet-A      2.2512 eV  550.75 nm  f=0.0698  <S**2>=0.000
     245 -> 247        0.63457
     246 -> 248       -0.30334

 Excited State   3:      Singlet-A      3.0535 eV  406.04 nm  f=0.0017  <S**2>=0.000
     241 -> 247        0.63713
     241 -> 249       -0.21939

 Excited State   4:      Singlet-A      3.1576 eV  392.65 nm  f=0.0354  <S**2>=0.000
     243 -> 247        0.63847
     246 -> 248        0.24716

 Excited State   5:      Singlet-A      3.1801 eV  389.87 nm  f=0.0005  <S**2>=0.000
     242 -> 247        0.66213
     242 -> 249        0.16755
     242 -> 250        0.13000

 The electronic state is 1-A.
 Alpha  occ. eigenvalues --  -46.93060 -19.26667 -19.25803 -19.20595 -19.19574
 Alpha  occ. eigenvalues --  -19.19511 -19.18896 -14.42079 -14.41465 -14.39264
 Alpha  occ. eigenvalues --  -14.39095 -10.36505 -10.36156 -10.32981 -10.31916
 Alpha  occ. eigenvalues --  -10.30070 -10.29278 -10.29104 -10.28948 -10.28611
 Alpha  occ. eigenvalues --  -10.28255 -10.28061 -10.27727 -10.27375 -10.26686
 Alpha  occ. eigenvalues --  -10.26349 -10.26283 -10.26260 -10.26112 -10.25922
 Alpha  occ. eigenvalues --  -10.25909 -10.25875 -10.25068 -10.24956 -10.24842
 Alpha  occ. eigenvalues --  -10.24761 -10.24619 -10.24357 -10.24274 -10.24268
 Alpha  occ. eigenvalues --  -10.24160 -10.24154 -10.24004 -10.23953 -10.23914
 Alpha  occ. eigenvalues --  -10.23666 -10.23638 -10.23568 -10.23426 -10.23411
 Alpha  occ. eigenvalues --  -10.23221 -10.23164 -10.22957 -10.22892 -10.22679
 Alpha  occ. eigenvalues --  -10.22675 -10.22252 -10.22171 -10.22108 -10.22025
 Alpha  occ. eigenvalues --  -10.21964 -10.21954 -10.21929 -10.21902 -10.21760
 Alpha  occ. eigenvalues --  -10.21379  -3.15145  -1.87965  -1.87518  -1.87375
 Alpha  occ. eigenvalues --   -1.11676  -1.09099  -1.05133  -1.04070  -1.02540
 Alpha  occ. eigenvalues --   -1.00973  -1.00781  -0.99999  -0.99360  -0.97338
 Alpha  occ. eigenvalues --   -0.86729  -0.84434  -0.83873  -0.83495  -0.83029
 Alpha  occ. eigenvalues --   -0.82682  -0.82088  -0.81848  -0.81296  -0.81119
 Alpha  occ. eigenvalues --   -0.79998  -0.79251  -0.78575  -0.77693  -0.77445
 Alpha  occ. eigenvalues --   -0.76476  -0.75933  -0.75603  -0.75058  -0.74594
 Alpha  occ. eigenvalues --   -0.73601  -0.72755  -0.72059  -0.71617  -0.70699
 Alpha  occ. eigenvalues --   -0.70017  -0.69690  -0.69612  -0.69021  -0.68138
 Alpha  occ. eigenvalues --   -0.67390  -0.66993  -0.66533  -0.65830  -0.64077
 Alpha  occ. eigenvalues --   -0.63374  -0.62894  -0.61974  -0.60882  -0.60589
 Alpha  occ. eigenvalues --   -0.59866  -0.59358  -0.59192  -0.58660  -0.57895
 Alpha  occ. eigenvalues --   -0.57474  -0.56603  -0.56494  -0.55902  -0.54553
 Alpha  occ. eigenvalues --   -0.54336  -0.53977  -0.53788  -0.53169  -0.52691
 Alpha  occ. eigenvalues --   -0.52221  -0.51846  -0.50995  -0.50503  -0.50034
 Alpha  occ. eigenvalues --   -0.49967  -0.49109  -0.48916  -0.48590  -0.48308
 Alpha  occ. eigenvalues --   -0.48197  -0.48027  -0.47852  -0.47667  -0.47446
 Alpha  occ. eigenvalues --   -0.47153  -0.46871  -0.46487  -0.46029  -0.45925
 Alpha  occ. eigenvalues --   -0.45785  -0.45638  -0.45422  -0.45366  -0.45262
 Alpha  occ. eigenvalues --   -0.44859  -0.44616  -0.44402  -0.44154  -0.43981
 Alpha  occ. eigenvalues --   -0.43755  -0.43537  -0.43419  -0.43334  -0.43228
 Alpha  occ. eigenvalues --   -0.42988  -0.42729  -0.42654  -0.42355  -0.42178
 Alpha  occ. eigenvalues --   -0.42128  -0.41567  -0.41519  -0.41331  -0.41228
 Alpha  occ. eigenvalues --   -0.40739  -0.40703  -0.40554  -0.40438  -0.40377
 Alpha  occ. eigenvalues --   -0.40253  -0.40074  -0.39938  -0.39559  -0.39532
 Alpha  occ. eigenvalues --   -0.39433  -0.39354  -0.39112  -0.38883  -0.38821
 Alpha  occ. eigenvalues --   -0.38719  -0.38699  -0.38376  -0.38141  -0.37924
 Alpha  occ. eigenvalues --   -0.37890  -0.37679  -0.37578  -0.37473  -0.37188
 Alpha  occ. eigenvalues --   -0.37052  -0.36680  -0.36509  -0.36241  -0.35963
 Alpha  occ. eigenvalues --   -0.35627  -0.35200  -0.35134  -0.34877  -0.34829
 Alpha  occ. eigenvalues --   -0.34730  -0.34613  -0.34026  -0.33876  -0.33641
 Alpha  occ. eigenvalues --   -0.33281  -0.33107  -0.32738  -0.32454  -0.32142
 Alpha  occ. eigenvalues --   -0.31849  -0.31615  -0.31514  -0.31249  -0.30913
 Alpha  occ. eigenvalues --   -0.30783  -0.30433  -0.30067  -0.29442  -0.29045
 Alpha  occ. eigenvalues --   -0.28948  -0.28524  -0.28080  -0.27030  -0.26320
 Alpha  occ. eigenvalues --   -0.25907  -0.25808  -0.25443  -0.24816  -0.21123
 Alpha  occ. eigenvalues --   -0.18565
 Alpha virt. eigenvalues --   -0.10982  -0.05557  -0.04461  -0.01989  -0.01605
 Alpha virt. eigenvalues --   -0.00446   0.00281   0.01766   0.01973   0.03437
 Alpha virt. eigenvalues --    0.04057   0.05045   0.05407   0.05457   0.06198

 Mulliken charges:
               1
     1  Mg   0.981066
     2  C    0.000869
     3  C   -0.043975
     4  C   -0.083180
     5  C   -0.052162
     6  N   -0.388569
     7  C    0.042835
     8  C   -0.128968
     9  C   -0.158944
    10  C    0.034212
    11  C    0.008698
    12  C    0.048752
    13  C   -0.027373
    14  C    0.220878
    15  O   -0.234074
    16  O   -0.368823
    17  N   -0.506630
    18  C    0.178141
    19  C   -0.160657
    20  C   -0.065137
    21  C    0.155750
    22  C    0.069359
    23  C    0.001669
    24  O   -0.228837
    25  C   -0.006835
    26  N   -0.327332
    27  C    0.085427
    28  C   -0.092005
    29  C   -0.107448
    30  C    0.068085
    31  C   -0.014896
    32  C   -0.050812
    33  C   -0.063675
    34  N   -0.386106
    35  C    0.066444
    36  C   -0.180231
    37  C    0.002465
    38  C    0.092090
    39  C    0.068257
    40  C    0.148661
    41  O   -0.249600
    42  C   -0.117002
    43  C    0.318920
    44  O   -0.279685
    45  O   -0.387980
    46  C    0.118344
    47  C    0.216170
    48  C   -0.121867
    49  C   -0.242334
    50  C    0.012124
    51  C    0.014701
    52  C   -0.015129
    53  C   -0.033552
    54  C   -0.209702
    55  C    0.018310
    56  C   -0.046150
    57  C   -0.032820
    58  C   -0.052735
    59  C   -0.194240
    60  C   -0.014950
    61  C   -0.020795
    62  C   -0.043373
    63  C   -0.032617
    64  C   -0.246991
    65  C   -0.008067
    66  C   -0.016664
    67  H    0.010372
    68  H   -0.019284
    69  H    0.003377
    70  H    0.055115
    71  H    0.066303
    72  H    0.041774
    73  H    0.059564
    74  H    0.048318
    75  H    0.048370
    76  H    0.038055
    77  H    0.059665
    78  H    0.074104
    79  H    0.060449
    80  H    0.023860
    81  H    0.052559
    82  H    0.077788
    83  H    0.054149
    84  H    0.077752
    85  H    0.048614
    86  H    0.043966
    87  H    0.038363
    88  H    0.043477
    89  H    0.045331
    90  H    0.053989
    91  H    0.053046
    92  H    0.032141
    93  H    0.043668
    94  H    0.044528
    95  H    0.064161
    96  H    0.065877
    97  H    0.048982
    98  H    0.062726
    99  H    0.066603
   100  H    0.068815
   101  H    0.068637
   102  H    0.063666
   103  H    0.059416
   104  H    0.021272
   105  H    0.041583
   106  H    0.052855
   107  H    0.034415
   108  H    0.043304
   109  H    0.030717
   110  H    0.045470
   111  H    0.040492
   112  H    0.026878
   113  H    0.016062
   114  H    0.034850
   115  H    0.042280
   116  H    0.039303
   117  H    0.024601
   118  H    0.018836
   119  H    0.033438
   120  H    0.038310
   121  H    0.029146
   122  H    0.026812
   123  H    0.027457
   124  H    0.024959
   125  H    0.038346
   126  H    0.034608
   127  H    0.039028
   128  H    0.020129
   129  H    0.029035
   130  H    0.029253
   131  H    0.027131
   132  H    0.033493
   133  H    0.033176
   134  H    0.043574
   135  H    0.035451
   136  H    0.033487
   137  H    0.029016
   138  H    0.027890
   139  H    0.046497
   140  H    0.029241
 Sum of Mulliken charges =  -0.00000

 Dipole moment (field-independent basis, Debye):
    X=              0.5783    Y=              2.3041    Z=              2.2307  Tot=              3.2587
 Quadrupole moment (field-independent basis, Debye-Ang):
   XX=           -397.3435   YY=           -396.3996   ZZ=           -397.7644
   XY=            -56.3047   XZ=             -9.9671   YZ=            -29.2420

 Normal termination of Gaussian 16 at Tue Apr 26 23:28:30 2022.
