 Gaussian 16, Revision A.03,
 Gaussian 16:  ES64L-G16RevA.03 25-Dec-2016

 --------------------------------
 #p wB97XD/Def2SVP td=(nstates=5)
 --------------------------------

 ----------------------------------------------------
 step_101_chromophore_11 TDDFT with wB97XD functional
 ----------------------------------------------------
 Symbolic Z-matrix:
 Charge =  0 Multiplicity = 1

                         Standard orientation:
 ---------------------------------------------------------------------
 Center     Atomic      Atomic             Coordinates (Angstroms)
 Number     Number       Type             X           Y           Z
 ---------------------------------------------------------------------
      1         12           0       -4.938782    1.338086    0.885610
      2          6           0       -5.664651   -2.063521    0.395939
      3          6           0       -2.193689    0.648402    2.493941
      4          6           0       -4.004833    4.655152    0.404596
      5          6           0       -7.650552    1.941870   -1.330079
      6          7           0       -4.059045   -0.505344    1.311006
      7          6           0       -4.432625   -1.764250    1.052791
      8          6           0       -3.766537   -2.799053    1.937349
      9          6           0       -2.716850   -1.849929    2.727877
     10          6           0       -3.037635   -0.467607    2.140111
     11          6           0       -2.789362   -1.872645    4.315896
     12          6           0       -3.125382   -3.966423    1.260901
     13          6           0       -2.211551   -3.636569    0.055314
     14          6           0       -0.871557   -4.233829   -0.034655
     15          8           0       -0.712867   -5.205852   -0.721141
     16          8           0       -0.081475   -3.807254    1.021673
     17          7           0       -3.307260    2.514327    1.416725
     18          6           0       -2.313242    2.043061    2.162454
     19          6           0       -1.398171    3.139694    2.472790
     20          6           0       -1.870926    4.326245    1.840121
     21          6           0       -3.116897    3.908265    1.205805
     22          6           0       -0.054689    2.900967    3.261707
     23          6           0       -1.227491    5.684796    1.847522
     24          8           0       -0.154754    5.835674    2.400466
     25          6           0       -1.851151    6.831537    1.111509
     26          7           0       -5.640049    3.003448   -0.399236
     27          6           0       -5.049656    4.177722   -0.377105
     28          6           0       -5.795996    5.195011   -1.331734
     29          6           0       -6.968003    4.340955   -1.833489
     30          6           0       -6.729338    2.957754   -1.167776
     31          6           0       -6.204389    6.628918   -0.772307
     32          6           0       -7.049922    4.027614   -3.355887
     33          6           0       -6.788982    5.225793   -4.297164
     34          7           0       -6.489594    0.221840   -0.100275
     35          6           0       -7.536698    0.613797   -0.850124
     36          6           0       -8.521929   -0.448345   -1.117727
     37          6           0       -7.791564   -1.565219   -0.729099
     38          6           0       -6.544498   -1.087796   -0.128162
     39          6           0       -9.886100   -0.274158   -1.754972
     40          6           0       -7.778007   -3.023922   -0.632246
     41          8           0       -8.636518   -3.899037   -0.934558
     42          6           0       -6.380576   -3.377076    0.040408
     43          6           0       -5.705619   -4.139025   -1.002730
     44          8           0       -5.273746   -3.616405   -2.054812
     45          8           0       -5.553430   -5.459555   -0.626480
     46          6           0       -4.833288   -6.499793   -1.446077
     47          6           0        1.243517   -4.449885    1.044271
     48          6           0        2.349759   -3.999453   -0.001450
     49          6           0        3.666021   -4.212897   -0.137779
     50          6           0        4.406471   -5.129941    0.792659
     51          6           0        4.561699   -3.441563   -1.166303
     52          6           0        4.814596   -1.904577   -0.848023
     53          6           0        6.280749   -1.646666   -0.631140
     54          6           0        6.685742   -0.234335   -1.185638
     55          6           0        6.827166   -0.120870   -2.698286
     56          6           0        7.958681    0.338219   -0.384995
     57          6           0        9.194225   -0.581809   -0.190960
     58          6           0       10.542248    0.167266   -0.747913
     59          6           0       11.798838    0.270198    0.104647
     60          6           0       11.589444    1.225819    1.322063
     61          6           0       12.969948    0.652575   -0.843813
     62          6           0       14.382147    0.422953   -0.237444
     63          6           0       15.379500    1.653598   -0.309186
     64          6           0       16.833156    1.159765   -0.719418
     65          6           0       17.844305    1.739383    0.258195
     66          6           0       16.984112    1.589110   -2.225518
     67          1           0       -1.498238    0.345178    3.279639
     68          1           0       -3.755045    5.716927    0.352095
     69          1           0       -8.454601    2.014335   -2.065960
     70          1           0       -4.582564   -3.022228    2.625337
     71          1           0       -1.703757   -2.075455    2.392143
     72          1           0       -3.631797   -2.506676    4.591370
     73          1           0       -2.851532   -0.899048    4.801493
     74          1           0       -1.846054   -2.337784    4.605117
     75          1           0       -3.872160   -4.699034    0.956084
     76          1           0       -2.649643   -4.584719    2.022972
     77          1           0       -2.083690   -2.554383    0.071980
     78          1           0       -2.714520   -3.854965   -0.887491
     79          1           0        0.810401    3.185878    2.662592
     80          1           0        0.021503    1.856292    3.559488
     81          1           0        0.055212    3.492352    4.170348
     82          1           0       -1.843690    6.566162    0.054871
     83          1           0       -1.155649    7.651942    1.288217
     84          1           0       -2.815075    6.977965    1.600866
     85          1           0       -5.093662    5.401933   -2.138763
     86          1           0       -7.883223    4.727309   -1.383872
     87          1           0       -5.393125    7.341644   -0.915851
     88          1           0       -6.448728    6.718645    0.286862
     89          1           0       -7.050340    7.067576   -1.300878
     90          1           0       -8.024848    3.631609   -3.643021
     91          1           0       -6.226669    3.336095   -3.535759
     92          1           0       -6.731885    6.180475   -3.774265
     93          1           0       -7.551333    5.425741   -5.051028
     94          1           0       -5.805924    5.018812   -4.717934
     95          1           0      -10.440335   -1.211555   -1.698901
     96          1           0       -9.810326    0.062506   -2.788864
     97          1           0      -10.490093    0.442754   -1.199532
     98          1           0       -6.496328   -4.028036    0.906783
     99          1           0       -5.420011   -7.339628   -1.816640
    100          1           0       -3.986734   -6.914584   -0.897332
    101          1           0       -4.498015   -6.021035   -2.365956
    102          1           0        1.039603   -5.495848    0.813436
    103          1           0        1.702379   -4.384376    2.030922
    104          1           0        1.897994   -3.227306   -0.624554
    105          1           0        5.084974   -4.435076    1.287275
    106          1           0        5.054597   -5.873973    0.327517
    107          1           0        3.760111   -5.562489    1.557124
    108          1           0        3.986282   -3.398397   -2.091167
    109          1           0        5.432937   -4.073847   -1.330696
    110          1           0        4.236234   -1.683433    0.048900
    111          1           0        4.524451   -1.276818   -1.690928
    112          1           0        6.952272   -2.428456   -0.988667
    113          1           0        6.415688   -1.721940    0.448520
    114          1           0        5.879137    0.388803   -0.798865
    115          1           0        6.070757    0.523566   -3.146621
    116          1           0        7.011854   -1.046371   -3.243702
    117          1           0        7.738573    0.453394   -2.868284
    118          1           0        7.697519    0.460562    0.665978
    119          1           0        8.227981    1.329833   -0.748499
    120          1           0        9.057432   -1.512022   -0.741714
    121          1           0        9.255704   -0.759397    0.882666
    122          1           0       10.386565    1.218978   -0.988494
    123          1           0       10.754461   -0.427822   -1.636224
    124          1           0       11.936195   -0.725886    0.526766
    125          1           0       11.999794    0.688969    2.177300
    126          1           0       10.545157    1.388408    1.587506
    127          1           0       12.033963    2.205017    1.143484
    128          1           0       12.923492    1.735479   -0.959448
    129          1           0       12.909858    0.258268   -1.857378
    130          1           0       14.794521   -0.446043   -0.749693
    131          1           0       14.322692    0.136925    0.812441
    132          1           0       15.359865    2.160749    0.655296
    133          1           0       14.969123    2.321747   -1.066313
    134          1           0       16.891239    0.076033   -0.617279
    135          1           0       18.002095    1.041119    1.080459
    136          1           0       17.467908    2.663531    0.697430
    137          1           0       18.794000    1.942425   -0.235438
    138          1           0       17.995118    1.928338   -2.448675
    139          1           0       16.229906    2.260495   -2.637744
    140          1           0       16.919570    0.654669   -2.782898
 ---------------------------------------------------------------------

 SCF Done:  E(RwB97XD) =  -3007.84980870     A.U. after   20 cycles

 Excitation energies and oscillator strengths:

 Excited State   1:      Singlet-A      1.6515 eV  750.75 nm  f=0.3947  <S**2>=0.000
     245 -> 248        0.19452
     246 -> 247        0.68148
     245 <- 248        0.11843
 This state for optimization and/or second-order correction.
 Total Energy, E(TD-HF/TD-DFT) =  -3007.78911863
 Copying the excited state density for this state as the 1-particle RhoCI density.

 Excited State   2:      Singlet-A      2.2013 eV  563.23 nm  f=0.0615  <S**2>=0.000
     245 -> 247        0.61277
     246 -> 248       -0.34338

 Excited State   3:      Singlet-A      3.3941 eV  365.29 nm  f=0.5272  <S**2>=0.000
     242 -> 247       -0.18118
     243 -> 247        0.18234
     245 -> 247        0.29679
     246 -> 248        0.57018
     245 <- 247       -0.10895

 Excited State   4:      Singlet-A      3.4900 eV  355.25 nm  f=0.0240  <S**2>=0.000
     240 -> 247        0.42447
     240 -> 249       -0.32413
     240 -> 251       -0.14124
     241 -> 247       -0.15936
     241 -> 249        0.11648
     242 -> 247        0.18139
     242 -> 249       -0.14443
     243 -> 247        0.21668

 Excited State   5:      Singlet-A      3.5714 eV  347.16 nm  f=0.0924  <S**2>=0.000
     240 -> 247       -0.17658
     240 -> 249        0.10880
     243 -> 247        0.61799
     245 -> 247       -0.11713
     246 -> 248       -0.15829

 The electronic state is 1-A.
 Alpha  occ. eigenvalues --  -46.96009 -19.31236 -19.30386 -19.25270 -19.24419
 Alpha  occ. eigenvalues --  -19.24244 -19.23720 -14.47126 -14.46552 -14.44220
 Alpha  occ. eigenvalues --  -14.44047 -10.43373 -10.42946 -10.39879 -10.38739
 Alpha  occ. eigenvalues --  -10.36561 -10.35824 -10.35335 -10.35257 -10.34918
 Alpha  occ. eigenvalues --  -10.34642 -10.34239 -10.34116 -10.33587 -10.32935
 Alpha  occ. eigenvalues --  -10.32804 -10.32778 -10.32530 -10.32479 -10.32183
 Alpha  occ. eigenvalues --  -10.32130 -10.32094 -10.31443 -10.31201 -10.31138
 Alpha  occ. eigenvalues --  -10.31121 -10.31035 -10.30790 -10.30726 -10.30637
 Alpha  occ. eigenvalues --  -10.30544 -10.30430 -10.30421 -10.30341 -10.30230
 Alpha  occ. eigenvalues --  -10.30216 -10.29945 -10.29921 -10.29825 -10.29693
 Alpha  occ. eigenvalues --  -10.29677 -10.29670 -10.29283 -10.29247 -10.29058
 Alpha  occ. eigenvalues --  -10.29045 -10.28585 -10.28534 -10.28488 -10.28383
 Alpha  occ. eigenvalues --  -10.28373 -10.28341 -10.28336 -10.28321 -10.28173
 Alpha  occ. eigenvalues --  -10.27809  -3.21960  -1.95527  -1.95081  -1.94935
 Alpha  occ. eigenvalues --   -1.19054  -1.16549  -1.12620  -1.11406  -1.10076
 Alpha  occ. eigenvalues --   -1.08386  -1.08119  -1.07314  -1.06673  -1.04726
 Alpha  occ. eigenvalues --   -0.94352  -0.92055  -0.91560  -0.91067  -0.90711
 Alpha  occ. eigenvalues --   -0.90272  -0.89773  -0.89444  -0.88887  -0.88788
 Alpha  occ. eigenvalues --   -0.87666  -0.86895  -0.86216  -0.85366  -0.85086
 Alpha  occ. eigenvalues --   -0.84193  -0.83593  -0.83264  -0.82662  -0.82232
 Alpha  occ. eigenvalues --   -0.81271  -0.80392  -0.79656  -0.79268  -0.78329
 Alpha  occ. eigenvalues --   -0.77708  -0.77387  -0.77207  -0.76723  -0.75742
 Alpha  occ. eigenvalues --   -0.75037  -0.74562  -0.74071  -0.73412  -0.71628
 Alpha  occ. eigenvalues --   -0.70886  -0.70546  -0.69511  -0.68424  -0.68149
 Alpha  occ. eigenvalues --   -0.67284  -0.66851  -0.66835  -0.66122  -0.65352
 Alpha  occ. eigenvalues --   -0.65132  -0.64134  -0.64000  -0.63531  -0.61971
 Alpha  occ. eigenvalues --   -0.61763  -0.61468  -0.61228  -0.60595  -0.60145
 Alpha  occ. eigenvalues --   -0.59681  -0.59318  -0.58388  -0.57938  -0.57445
 Alpha  occ. eigenvalues --   -0.57339  -0.56484  -0.56337  -0.55967  -0.55789
 Alpha  occ. eigenvalues --   -0.55618  -0.55465  -0.55327  -0.55191  -0.54808
 Alpha  occ. eigenvalues --   -0.54520  -0.54174  -0.53829  -0.53424  -0.53343
 Alpha  occ. eigenvalues --   -0.53215  -0.52995  -0.52783  -0.52681  -0.52554
 Alpha  occ. eigenvalues --   -0.52214  -0.51989  -0.51772  -0.51493  -0.51293
 Alpha  occ. eigenvalues --   -0.51106  -0.50902  -0.50743  -0.50670  -0.50567
 Alpha  occ. eigenvalues --   -0.50322  -0.49946  -0.49875  -0.49645  -0.49460
 Alpha  occ. eigenvalues --   -0.49339  -0.48821  -0.48717  -0.48597  -0.48486
 Alpha  occ. eigenvalues --   -0.47950  -0.47919  -0.47786  -0.47646  -0.47563
 Alpha  occ. eigenvalues --   -0.47468  -0.47319  -0.47149  -0.46786  -0.46738
 Alpha  occ. eigenvalues --   -0.46630  -0.46471  -0.46275  -0.46113  -0.45984
 Alpha  occ. eigenvalues --   -0.45840  -0.45780  -0.45490  -0.45250  -0.45050
 Alpha  occ. eigenvalues --   -0.44977  -0.44815  -0.44729  -0.44619  -0.44296
 Alpha  occ. eigenvalues --   -0.44190  -0.43782  -0.43641  -0.43339  -0.43020
 Alpha  occ. eigenvalues --   -0.42684  -0.42260  -0.42183  -0.41928  -0.41882
 Alpha  occ. eigenvalues --   -0.41775  -0.41547  -0.41069  -0.40779  -0.40558
 Alpha  occ. eigenvalues --   -0.40336  -0.40031  -0.39825  -0.39535  -0.39183
 Alpha  occ. eigenvalues --   -0.38914  -0.38659  -0.38429  -0.38277  -0.37923
 Alpha  occ. eigenvalues --   -0.37730  -0.37432  -0.37005  -0.36199  -0.36111
 Alpha  occ. eigenvalues --   -0.35805  -0.35536  -0.34875  -0.33592  -0.33090
 Alpha  occ. eigenvalues --   -0.33022  -0.32787  -0.32058  -0.31587  -0.26132
 Alpha  occ. eigenvalues --   -0.22656
 Alpha virt. eigenvalues --   -0.06789  -0.00192   0.01812   0.04275   0.04609
 Alpha virt. eigenvalues --    0.06428   0.07048   0.08462   0.08763   0.09925
 Alpha virt. eigenvalues --    0.10514   0.11717   0.12156   0.12309   0.12934

 Mulliken charges:
               1
     1  Mg   0.974669
     2  C   -0.003046
     3  C   -0.062539
     4  C   -0.090750
     5  C   -0.074401
     6  N   -0.349801
     7  C   -0.000607
     8  C   -0.089006
     9  C   -0.138580
    10  C    0.022584
    11  C    0.019676
    12  C    0.057904
    13  C   -0.001412
    14  C    0.208848
    15  O   -0.231931
    16  O   -0.368130
    17  N   -0.475166
    18  C    0.170012
    19  C   -0.156153
    20  C   -0.057375
    21  C    0.148795
    22  C    0.081011
    23  C   -0.004454
    24  O   -0.223739
    25  C    0.011284
    26  N   -0.287238
    27  C    0.068452
    28  C   -0.070772
    29  C   -0.082056
    30  C    0.057825
    31  C   -0.003547
    32  C   -0.034014
    33  C   -0.047852
    34  N   -0.347546
    35  C    0.061228
    36  C   -0.181517
    37  C    0.001761
    38  C    0.075150
    39  C    0.078398
    40  C    0.136397
    41  O   -0.240302
    42  C   -0.076341
    43  C    0.289491
    44  O   -0.272943
    45  O   -0.385553
    46  C    0.133949
    47  C    0.236145
    48  C   -0.136519
    49  C   -0.225550
    50  C    0.026394
    51  C    0.029941
    52  C    0.003849
    53  C   -0.022946
    54  C   -0.175871
    55  C    0.025844
    56  C   -0.028780
    57  C   -0.019607
    58  C   -0.032773
    59  C   -0.164960
    60  C   -0.005413
    61  C   -0.002578
    62  C   -0.031103
    63  C   -0.013899
    64  C   -0.219021
    65  C    0.004864
    66  C   -0.004686
    67  H    0.001838
    68  H   -0.034981
    69  H   -0.004363
    70  H    0.043564
    71  H    0.053098
    72  H    0.035959
    73  H    0.053538
    74  H    0.043065
    75  H    0.033584
    76  H    0.031484
    77  H    0.048388
    78  H    0.066458
    79  H    0.056653
    80  H    0.018478
    81  H    0.048998
    82  H    0.071812
    83  H    0.052850
    84  H    0.071468
    85  H    0.036767
    86  H    0.033866
    87  H    0.032403
    88  H    0.037878
    89  H    0.039812
    90  H    0.046152
    91  H    0.043691
    92  H    0.022411
    93  H    0.039086
    94  H    0.038764
    95  H    0.061063
    96  H    0.061635
    97  H    0.043995
    98  H    0.057772
    99  H    0.063058
   100  H    0.066026
   101  H    0.065004
   102  H    0.057432
   103  H    0.055238
   104  H    0.016437
   105  H    0.032885
   106  H    0.048453
   107  H    0.029101
   108  H    0.036447
   109  H    0.023144
   110  H    0.036727
   111  H    0.031173
   112  H    0.015401
   113  H    0.007056
   114  H    0.022756
   115  H    0.037873
   116  H    0.034545
   117  H    0.016857
   118  H    0.009835
   119  H    0.024132
   120  H    0.028717
   121  H    0.021258
   122  H    0.013975
   123  H    0.018258
   124  H    0.012935
   125  H    0.032909
   126  H    0.027434
   127  H    0.033169
   128  H    0.006258
   129  H    0.022550
   130  H    0.020160
   131  H    0.018172
   132  H    0.025077
   133  H    0.020510
   134  H    0.032939
   135  H    0.029879
   136  H    0.026375
   137  H    0.023021
   138  H    0.021844
   139  H    0.040981
   140  H    0.022816
 Sum of Mulliken charges =  -0.00000

 Dipole moment (field-independent basis, Debye):
    X=              0.6343    Y=              2.2924    Z=              2.3117  Tot=              3.3169
 Quadrupole moment (field-independent basis, Debye-Ang):
   XX=           -397.0419   YY=           -395.2770   ZZ=           -397.5158
   XY=            -55.5673   XZ=            -10.4402   YZ=            -28.6575

 Normal termination of Gaussian 16 at Tue Apr 26 23:58:55 2022.
