 Gaussian 16, Revision A.03,
 Gaussian 16:  ES64L-G16RevA.03 25-Dec-2016

 --------------------
 #p ZINDO=(nstates=5)
 --------------------

 -----------------------------
 step_101_chromophore_11 ZINDO
 -----------------------------
 Symbolic Z-matrix:
 Charge =  0 Multiplicity = 1

                         Standard orientation:
 ---------------------------------------------------------------------
 Center     Atomic      Atomic             Coordinates (Angstroms)
 Number     Number       Type             X           Y           Z
 ---------------------------------------------------------------------
      1         12           0       -4.938782    1.338086    0.885610
      2          6           0       -5.664651   -2.063521    0.395939
      3          6           0       -2.193689    0.648402    2.493941
      4          6           0       -4.004833    4.655152    0.404596
      5          6           0       -7.650552    1.941870   -1.330079
      6          7           0       -4.059045   -0.505344    1.311006
      7          6           0       -4.432625   -1.764250    1.052791
      8          6           0       -3.766537   -2.799053    1.937349
      9          6           0       -2.716850   -1.849929    2.727877
     10          6           0       -3.037635   -0.467607    2.140111
     11          6           0       -2.789362   -1.872645    4.315896
     12          6           0       -3.125382   -3.966423    1.260901
     13          6           0       -2.211551   -3.636569    0.055314
     14          6           0       -0.871557   -4.233829   -0.034655
     15          8           0       -0.712867   -5.205852   -0.721141
     16          8           0       -0.081475   -3.807254    1.021673
     17          7           0       -3.307260    2.514327    1.416725
     18          6           0       -2.313242    2.043061    2.162454
     19          6           0       -1.398171    3.139694    2.472790
     20          6           0       -1.870926    4.326245    1.840121
     21          6           0       -3.116897    3.908265    1.205805
     22          6           0       -0.054689    2.900967    3.261707
     23          6           0       -1.227491    5.684796    1.847522
     24          8           0       -0.154754    5.835674    2.400466
     25          6           0       -1.851151    6.831537    1.111509
     26          7           0       -5.640049    3.003448   -0.399236
     27          6           0       -5.049656    4.177722   -0.377105
     28          6           0       -5.795996    5.195011   -1.331734
     29          6           0       -6.968003    4.340955   -1.833489
     30          6           0       -6.729338    2.957754   -1.167776
     31          6           0       -6.204389    6.628918   -0.772307
     32          6           0       -7.049922    4.027614   -3.355887
     33          6           0       -6.788982    5.225793   -4.297164
     34          7           0       -6.489594    0.221840   -0.100275
     35          6           0       -7.536698    0.613797   -0.850124
     36          6           0       -8.521929   -0.448345   -1.117727
     37          6           0       -7.791564   -1.565219   -0.729099
     38          6           0       -6.544498   -1.087796   -0.128162
     39          6           0       -9.886100   -0.274158   -1.754972
     40          6           0       -7.778007   -3.023922   -0.632246
     41          8           0       -8.636518   -3.899037   -0.934558
     42          6           0       -6.380576   -3.377076    0.040408
     43          6           0       -5.705619   -4.139025   -1.002730
     44          8           0       -5.273746   -3.616405   -2.054812
     45          8           0       -5.553430   -5.459555   -0.626480
     46          6           0       -4.833288   -6.499793   -1.446077
     47          6           0        1.243517   -4.449885    1.044271
     48          6           0        2.349759   -3.999453   -0.001450
     49          6           0        3.666021   -4.212897   -0.137779
     50          6           0        4.406471   -5.129941    0.792659
     51          6           0        4.561699   -3.441563   -1.166303
     52          6           0        4.814596   -1.904577   -0.848023
     53          6           0        6.280749   -1.646666   -0.631140
     54          6           0        6.685742   -0.234335   -1.185638
     55          6           0        6.827166   -0.120870   -2.698286
     56          6           0        7.958681    0.338219   -0.384995
     57          6           0        9.194225   -0.581809   -0.190960
     58          6           0       10.542248    0.167266   -0.747913
     59          6           0       11.798838    0.270198    0.104647
     60          6           0       11.589444    1.225819    1.322063
     61          6           0       12.969948    0.652575   -0.843813
     62          6           0       14.382147    0.422953   -0.237444
     63          6           0       15.379500    1.653598   -0.309186
     64          6           0       16.833156    1.159765   -0.719418
     65          6           0       17.844305    1.739383    0.258195
     66          6           0       16.984112    1.589110   -2.225518
     67          1           0       -1.498238    0.345178    3.279639
     68          1           0       -3.755045    5.716927    0.352095
     69          1           0       -8.454601    2.014335   -2.065960
     70          1           0       -4.582564   -3.022228    2.625337
     71          1           0       -1.703757   -2.075455    2.392143
     72          1           0       -3.631797   -2.506676    4.591370
     73          1           0       -2.851532   -0.899048    4.801493
     74          1           0       -1.846054   -2.337784    4.605117
     75          1           0       -3.872160   -4.699034    0.956084
     76          1           0       -2.649643   -4.584719    2.022972
     77          1           0       -2.083690   -2.554383    0.071980
     78          1           0       -2.714520   -3.854965   -0.887491
     79          1           0        0.810401    3.185878    2.662592
     80          1           0        0.021503    1.856292    3.559488
     81          1           0        0.055212    3.492352    4.170348
     82          1           0       -1.843690    6.566162    0.054871
     83          1           0       -1.155649    7.651942    1.288217
     84          1           0       -2.815075    6.977965    1.600866
     85          1           0       -5.093662    5.401933   -2.138763
     86          1           0       -7.883223    4.727309   -1.383872
     87          1           0       -5.393125    7.341644   -0.915851
     88          1           0       -6.448728    6.718645    0.286862
     89          1           0       -7.050340    7.067576   -1.300878
     90          1           0       -8.024848    3.631609   -3.643021
     91          1           0       -6.226669    3.336095   -3.535759
     92          1           0       -6.731885    6.180475   -3.774265
     93          1           0       -7.551333    5.425741   -5.051028
     94          1           0       -5.805924    5.018812   -4.717934
     95          1           0      -10.440335   -1.211555   -1.698901
     96          1           0       -9.810326    0.062506   -2.788864
     97          1           0      -10.490093    0.442754   -1.199532
     98          1           0       -6.496328   -4.028036    0.906783
     99          1           0       -5.420011   -7.339628   -1.816640
    100          1           0       -3.986734   -6.914584   -0.897332
    101          1           0       -4.498015   -6.021035   -2.365956
    102          1           0        1.039603   -5.495848    0.813436
    103          1           0        1.702379   -4.384376    2.030922
    104          1           0        1.897994   -3.227306   -0.624554
    105          1           0        5.084974   -4.435076    1.287275
    106          1           0        5.054597   -5.873973    0.327517
    107          1           0        3.760111   -5.562489    1.557124
    108          1           0        3.986282   -3.398397   -2.091167
    109          1           0        5.432937   -4.073847   -1.330696
    110          1           0        4.236234   -1.683433    0.048900
    111          1           0        4.524451   -1.276818   -1.690928
    112          1           0        6.952272   -2.428456   -0.988667
    113          1           0        6.415688   -1.721940    0.448520
    114          1           0        5.879137    0.388803   -0.798865
    115          1           0        6.070757    0.523566   -3.146621
    116          1           0        7.011854   -1.046371   -3.243702
    117          1           0        7.738573    0.453394   -2.868284
    118          1           0        7.697519    0.460562    0.665978
    119          1           0        8.227981    1.329833   -0.748499
    120          1           0        9.057432   -1.512022   -0.741714
    121          1           0        9.255704   -0.759397    0.882666
    122          1           0       10.386565    1.218978   -0.988494
    123          1           0       10.754461   -0.427822   -1.636224
    124          1           0       11.936195   -0.725886    0.526766
    125          1           0       11.999794    0.688969    2.177300
    126          1           0       10.545157    1.388408    1.587506
    127          1           0       12.033963    2.205017    1.143484
    128          1           0       12.923492    1.735479   -0.959448
    129          1           0       12.909858    0.258268   -1.857378
    130          1           0       14.794521   -0.446043   -0.749693
    131          1           0       14.322692    0.136925    0.812441
    132          1           0       15.359865    2.160749    0.655296
    133          1           0       14.969123    2.321747   -1.066313
    134          1           0       16.891239    0.076033   -0.617279
    135          1           0       18.002095    1.041119    1.080459
    136          1           0       17.467908    2.663531    0.697430
    137          1           0       18.794000    1.942425   -0.235438
    138          1           0       17.995118    1.928338   -2.448675
    139          1           0       16.229906    2.260495   -2.637744
    140          1           0       16.919570    0.654669   -2.782898
 ---------------------------------------------------------------------

 SCF Done:  E(RZINDO/S) =  -474.101970641     A.U. after   20 cycles

 Excitation energies and oscillator strengths:

 Excited State   1:      Singlet-A      1.2642 eV  980.76 nm  f=0.6024  <S**2>=0.000
     175 ->178        -0.20515
     176 ->177         0.65792
 This state for optimization and/or second-order correction.
 Total Energy, E(CIS/TDA) =  -474.055513264
 Copying the excited state density for this state as the 1-particle RhoCI density.

 Excited State   2:      Singlet-A      1.8762 eV  660.82 nm  f=0.0021  <S**2>=0.000
     175 ->177         0.48664
     176 ->178         0.48646

 Excited State   3:      Singlet-A      2.7580 eV  449.54 nm  f=0.1908  <S**2>=0.000
     175 ->177        -0.24689
     176 ->178         0.33571
     176 ->179         0.50008

 Excited State   4:      Singlet-A      2.9128 eV  425.65 nm  f=0.0237  <S**2>=0.000
     176 ->179         0.13669
     176 ->180         0.67122
     176 ->181        -0.10783

 Excited State   5:      Singlet-A      2.9893 eV  414.77 nm  f=0.0865  <S**2>=0.000
     168 ->177         0.30799
     168 ->178        -0.19015
     168 ->179        -0.37884
     168 ->181         0.18694
     168 ->185        -0.16948
     170 ->177         0.12003
     170 ->179        -0.12552
     175 ->177         0.11392
     176 ->178        -0.13063

 The electronic state is 1-A.
 Alpha  occ. eigenvalues --   -1.86528  -1.82749  -1.80940  -1.73847  -1.71809
 Alpha  occ. eigenvalues --   -1.69754  -1.62894  -1.60428  -1.59705  -1.55684
 Alpha  occ. eigenvalues --   -1.53951  -1.50846  -1.48202  -1.47707  -1.46797
 Alpha  occ. eigenvalues --   -1.46034  -1.42465  -1.39850  -1.37757  -1.37637
 Alpha  occ. eigenvalues --   -1.34640  -1.33546  -1.31366  -1.30557  -1.27764
 Alpha  occ. eigenvalues --   -1.26966  -1.24808  -1.23390  -1.20643  -1.19189
 Alpha  occ. eigenvalues --   -1.17422  -1.16600  -1.15818  -1.14874  -1.14411
 Alpha  occ. eigenvalues --   -1.14053  -1.09858  -1.08613  -1.05281  -1.04507
 Alpha  occ. eigenvalues --   -1.03572  -1.01324  -1.00137  -0.98193  -0.97533
 Alpha  occ. eigenvalues --   -0.96187  -0.94531  -0.93451  -0.93090  -0.91028
 Alpha  occ. eigenvalues --   -0.90790  -0.88602  -0.87946  -0.87522  -0.86579
 Alpha  occ. eigenvalues --   -0.85436  -0.83955  -0.83366  -0.81578  -0.80502
 Alpha  occ. eigenvalues --   -0.79946  -0.78703  -0.78479  -0.77191  -0.76606
 Alpha  occ. eigenvalues --   -0.76055  -0.75856  -0.75002  -0.74217  -0.73751
 Alpha  occ. eigenvalues --   -0.73438  -0.72562  -0.71598  -0.71269  -0.70085
 Alpha  occ. eigenvalues --   -0.69623  -0.69457  -0.68961  -0.68679  -0.67951
 Alpha  occ. eigenvalues --   -0.67479  -0.67267  -0.66580  -0.66069  -0.66000
 Alpha  occ. eigenvalues --   -0.65191  -0.64529  -0.64230  -0.63790  -0.63203
 Alpha  occ. eigenvalues --   -0.62953  -0.62499  -0.61978  -0.61879  -0.60919
 Alpha  occ. eigenvalues --   -0.60500  -0.60061  -0.59931  -0.59771  -0.59243
 Alpha  occ. eigenvalues --   -0.59192  -0.58956  -0.58706  -0.58310  -0.57757
 Alpha  occ. eigenvalues --   -0.57692  -0.57668  -0.57238  -0.56954  -0.56810
 Alpha  occ. eigenvalues --   -0.56268  -0.56151  -0.55445  -0.55370  -0.55069
 Alpha  occ. eigenvalues --   -0.54695  -0.54248  -0.53924  -0.53771  -0.53394
 Alpha  occ. eigenvalues --   -0.53004  -0.52599  -0.52542  -0.52381  -0.51824
 Alpha  occ. eigenvalues --   -0.51608  -0.51208  -0.50982  -0.50438  -0.50197
 Alpha  occ. eigenvalues --   -0.50127  -0.49985  -0.49773  -0.49453  -0.49092
 Alpha  occ. eigenvalues --   -0.48748  -0.48540  -0.48466  -0.48097  -0.48026
 Alpha  occ. eigenvalues --   -0.47865  -0.47668  -0.47328  -0.46971  -0.46556
 Alpha  occ. eigenvalues --   -0.46494  -0.45858  -0.45556  -0.45492  -0.45484
 Alpha  occ. eigenvalues --   -0.44849  -0.44731  -0.44468  -0.44145  -0.44007
 Alpha  occ. eigenvalues --   -0.43431  -0.43367  -0.43097  -0.42922  -0.42124
 Alpha  occ. eigenvalues --   -0.41512  -0.41167  -0.40915  -0.38817  -0.38371
 Alpha  occ. eigenvalues --   -0.38235  -0.37324  -0.35773  -0.35346  -0.34928
 Alpha  occ. eigenvalues --   -0.33593  -0.32949  -0.32643  -0.32129  -0.26841
 Alpha  occ. eigenvalues --   -0.21620
 Alpha virt. eigenvalues --   -0.08230  -0.02858  -0.01146   0.00714   0.01107
 Alpha virt. eigenvalues --    0.01206   0.02578   0.02974   0.04584   0.05053
 Alpha virt. eigenvalues --    0.06199   0.06887   0.07334   0.07916   0.08088

 Mulliken charges:
               1
     1  Mg   0.432380
     2  C   -0.053508
     3  C   -0.099845
     4  C   -0.084858
     5  C   -0.084194
     6  N   -0.248941
     7  C    0.112260
     8  C    0.006449
     9  C   -0.014114
    10  C    0.134756
    11  C   -0.051961
    12  C   -0.006984
    13  C    0.008006
    14  C    0.473162
    15  O   -0.494474
    16  O   -0.273254
    17  N   -0.327234
    18  C    0.124184
    19  C    0.025283
    20  C   -0.043262
    21  C    0.099049
    22  C   -0.042648
    23  C    0.330436
    24  O   -0.522381
    25  C   -0.031776
    26  N   -0.252042
    27  C    0.134288
    28  C   -0.004307
    29  C   -0.000782
    30  C    0.121470
    31  C   -0.055240
    32  C   -0.025507
    33  C   -0.067020
    34  N   -0.302666
    35  C    0.105303
    36  C    0.036025
    37  C   -0.044430
    38  C    0.112587
    39  C   -0.030011
    40  C    0.335995
    41  O   -0.527891
    42  C    0.066644
    43  C    0.502079
    44  O   -0.542393
    45  O   -0.282158
    46  C    0.072866
    47  C    0.098049
    48  C   -0.087784
    49  C   -0.000932
    50  C   -0.044203
    51  C   -0.029793
    52  C   -0.026846
    53  C   -0.032682
    54  C   -0.010000
    55  C   -0.051924
    56  C   -0.047561
    57  C   -0.043014
    58  C   -0.047619
    59  C   -0.004762
    60  C   -0.057216
    61  C   -0.034966
    62  C   -0.047284
    63  C   -0.043495
    64  C   -0.011607
    65  C   -0.053685
    66  C   -0.060734
    67  H    0.027166
    68  H    0.031765
    69  H    0.027701
    70  H    0.034234
    71  H    0.036890
    72  H    0.023793
    73  H    0.033104
    74  H    0.020217
    75  H    0.024713
    76  H    0.020313
    77  H    0.029138
    78  H    0.045500
    79  H    0.038167
    80  H    0.017874
    81  H    0.035142
    82  H    0.047075
    83  H    0.036898
    84  H    0.046036
    85  H    0.029995
    86  H    0.030858
    87  H    0.013516
    88  H    0.023801
    89  H    0.019785
    90  H    0.027151
    91  H    0.028970
    92  H    0.013599
    93  H    0.022118
    94  H    0.020297
    95  H    0.032412
    96  H    0.038072
    97  H    0.027203
    98  H    0.049311
    99  H    0.045572
   100  H    0.042217
   101  H    0.047103
   102  H    0.048999
   103  H    0.038108
   104  H    0.018017
   105  H    0.022277
   106  H    0.031503
   107  H    0.022053
   108  H    0.019428
   109  H    0.029344
   110  H    0.028229
   111  H    0.026427
   112  H    0.021191
   113  H    0.009816
   114  H    0.015923
   115  H    0.024148
   116  H    0.027448
   117  H    0.009354
   118  H    0.007716
   119  H    0.022116
   120  H    0.025002
   121  H    0.023293
   122  H    0.023059
   123  H    0.011314
   124  H    0.014102
   125  H    0.016890
   126  H    0.018712
   127  H    0.025184
   128  H    0.012483
   129  H    0.026047
   130  H    0.015184
   131  H    0.016269
   132  H    0.021433
   133  H    0.023395
   134  H    0.027586
   135  H    0.016296
   136  H    0.018740
   137  H    0.016470
   138  H    0.016473
   139  H    0.031645
   140  H    0.009341
 Sum of Mulliken charges =  -0.00000

 Dipole moment (field-independent basis, Debye):
    X=             -0.2432    Y=              3.7921    Z=              3.6213  Tot=              5.2491
 N-N= 4.298505792502D+03 E-N= 0.000000000000D+00  KE=-9.271055549765D+03
 Leave Link  601 at Wed Apr 27 00:12:32 2022, MaxMem=  6710886400 cpu:               0.9 elap:               0.1
 (Enter /sw/apps/gaussian-16.0/g16/l9999.exe)
 1\1\GINC-BP1-COMPUTE139\SP\RZINDO CIS\STO-3G\C55H74Mg1N4O6\OF15641\27-
 Apr-2022\0\\#p ZINDO=(nstates=5)\\step_101_chromophore_11 ZINDO\\0,1\M
 g,0,53.505,23.953,45.168\C,0,50.636,25.863,44.491\C,0,52.196,21.287,43
 .835\C,0,56.711,22.603,45.093\C,0,54.995,27.043,46.095\N,0,51.656,23.6
 86,44.239\C,0,50.627,24.514,44.023\C,0,49.314,23.808,43.75\C,0,49.836,
 22.275,43.679\C,0,51.337,22.44,43.96\C,0,49.139,21.237,44.661\C,0,48.5
 46,24.235,42.542\C,0,49.358,24.364,41.23\C,0,48.856,23.749,39.993\O,0,

 Normal termination of Gaussian 16 at Wed Apr 27 00:12:32 2022.
