 Gaussian 16, Revision A.03,
 Gaussian 16:  ES64L-G16RevA.03 25-Dec-2016

 ------------------------------
 #p blyp/Def2SVP td=(nstates=5)
 ------------------------------

 --------------------------------------------------
 step_201_chromophore_12 TDDFT with blyp functional
 --------------------------------------------------
 Symbolic Z-matrix:
 Charge =  0 Multiplicity = 1

                         Standard orientation:
 ---------------------------------------------------------------------
 Center     Atomic      Atomic             Coordinates (Angstroms)
 Number     Number       Type             X           Y           Z
 ---------------------------------------------------------------------
      1         12           0       -3.924582    0.445830   -0.535805
      2          6           0       -3.007014   -2.788198    0.653427
      3          6           0       -0.662567    1.279608   -0.587140
      4          6           0       -4.915642    3.601427   -1.406439
      5          6           0       -7.253481   -0.316885    0.496089
      6          7           0       -2.099735   -0.566011    0.100169
      7          6           0       -1.941771   -1.929655    0.408105
      8          6           0       -0.496918   -2.404304    0.375352
      9          6           0        0.230063   -0.979082    0.418197
     10          6           0       -0.872059   -0.060869   -0.218460
     11          6           0        0.769611   -0.478427    1.886037
     12          6           0       -0.331948   -3.248416   -0.883842
     13          6           0        0.817840   -4.321494   -0.743017
     14          6           0        1.891069   -4.401651   -1.889411
     15          8           0        1.680145   -4.884848   -3.011430
     16          8           0        3.124153   -3.880192   -1.515235
     17          7           0       -2.908892    2.217197   -0.995718
     18          6           0       -1.518027    2.293585   -0.990219
     19          6           0       -1.133748    3.541724   -1.526541
     20          6           0       -2.335881    4.276421   -1.632267
     21          6           0       -3.493329    3.346145   -1.371118
     22          6           0        0.251686    3.992330   -1.619542
     23          6           0       -2.471073    5.709726   -2.098499
     24          8           0       -3.601231    6.187852   -2.084627
     25          6           0       -1.312291    6.683697   -2.427677
     26          7           0       -5.794723    1.516957   -0.432393
     27          6           0       -5.956219    2.754991   -0.977905
     28          6           0       -7.456546    3.256750   -0.773187
     29          6           0       -8.184295    1.959992   -0.289582
     30          6           0       -6.984514    1.028071    0.037889
     31          6           0       -7.659688    4.335659    0.254510
     32          6           0       -9.067003    1.238684   -1.322181
     33          6           0      -10.403162    0.649390   -0.866899
     34          7           0       -5.036791   -1.178689    0.252610
     35          6           0       -6.340473   -1.377105    0.614911
     36          6           0       -6.536333   -2.814354    0.919542
     37          6           0       -5.302116   -3.346965    0.857867
     38          6           0       -4.376990   -2.355427    0.583328
     39          6           0       -7.785927   -3.562454    1.257307
     40          6           0       -4.543123   -4.561282    1.016825
     41          8           0       -4.947077   -5.628865    1.191849
     42          6           0       -3.007702   -4.286313    0.879896
     43          6           0       -2.369111   -4.617378    2.172051
     44          8           0       -2.645674   -4.169308    3.293265
     45          8           0       -1.503777   -5.658936    1.999600
     46          6           0       -0.784534   -6.037517    3.201227
     47          6           0        4.188111   -4.022657   -2.465153
     48          6           0        5.491465   -3.955166   -1.764784
     49          6           0        6.759600   -3.636611   -2.191954
     50          6           0        6.979324   -3.599818   -3.711611
     51          6           0        7.976905   -3.427579   -1.262437
     52          6           0        8.794182   -2.126651   -1.601155
     53          6           0        9.792613   -1.637199   -0.443545
     54          6           0       10.096249   -0.129642   -0.497596
     55          6           0       11.549974    0.169635   -1.030939
     56          6           0        9.900196    0.489144    0.860202
     57          6           0        9.692880    2.019458    0.966246
     58          6           0        8.657186    2.465844    2.038308
     59          6           0        7.513580    3.220999    1.395344
     60          6           0        8.002288    4.653451    1.275469
     61          6           0        6.214490    3.035787    2.264721
     62          6           0        4.936378    3.468125    1.558523
     63          6           0        4.230607    4.729239    2.174388
     64          6           0        2.920964    4.436642    2.691958
     65          6           0        1.757925    4.284733    1.613024
     66          6           0        2.550919    5.379229    3.777453
     67          1           0        0.406470    1.460151   -0.457107
     68          1           0       -5.288820    4.590718   -1.679216
     69          1           0       -8.219127   -0.600687    0.919537
     70          1           0       -0.188347   -2.983372    1.245920
     71          1           0        1.072677   -0.902081   -0.269903
     72          1           0        0.035424    0.237702    2.252748
     73          1           0        1.680174    0.098628    1.727888
     74          1           0        0.730605   -1.232286    2.673408
     75          1           0       -0.012229   -2.594507   -1.695114
     76          1           0       -1.310648   -3.479925   -1.303080
     77          1           0        0.252235   -5.253635   -0.719404
     78          1           0        1.351940   -4.066806    0.172522
     79          1           0        1.051081    3.256537   -1.710391
     80          1           0        0.539581    4.610281   -0.769425
     81          1           0        0.320838    4.618172   -2.510361
     82          1           0       -0.543329    6.771592   -1.659468
     83          1           0       -1.756375    7.661463   -2.615698
     84          1           0       -0.873594    6.193287   -3.297012
     85          1           0       -7.825270    3.623017   -1.731342
     86          1           0       -8.749890    2.073985    0.635471
     87          1           0       -6.664064    4.654094    0.561470
     88          1           0       -8.306726    4.127590    1.106904
     89          1           0       -8.139287    5.201915   -0.201258
     90          1           0       -8.456491    0.536316   -1.889829
     91          1           0       -9.372690    1.945603   -2.093171
     92          1           0      -10.710265    0.904030    0.147838
     93          1           0      -10.267371   -0.428983   -0.781113
     94          1           0      -11.269682    0.876901   -1.488105
     95          1           0       -8.600296   -2.920556    0.920037
     96          1           0       -7.638374   -3.676806    2.331051
     97          1           0       -7.632186   -4.546972    0.817143
     98          1           0       -2.502124   -4.779879    0.049753
     99          1           0       -0.094692   -5.228071    3.442787
    100          1           0       -0.102731   -6.878385    3.071645
    101          1           0       -1.513206   -6.234080    3.987104
    102          1           0        4.123096   -3.260137   -3.240960
    103          1           0        4.358048   -5.012509   -2.890111
    104          1           0        5.386288   -3.839879   -0.685514
    105          1           0        6.271550   -4.166939   -4.317214
    106          1           0        7.964398   -3.929996   -4.040743
    107          1           0        7.005582   -2.580734   -4.097967
    108          1           0        8.636687   -4.295731   -1.273842
    109          1           0        7.708030   -3.141529   -0.245240
    110          1           0        8.126256   -1.311987   -1.883461
    111          1           0        9.378179   -2.411361   -2.475551
    112          1           0       10.747429   -2.160751   -0.475801
    113          1           0        9.365411   -1.869693    0.532499
    114          1           0        9.438948    0.228442   -1.290429
    115          1           0       12.260298    0.104380   -0.207049
    116          1           0       11.585197    1.161364   -1.482535
    117          1           0       11.834385   -0.609371   -1.737826
    118          1           0       10.820647    0.293465    1.410083
    119          1           0        9.119505    0.013899    1.454188
    120          1           0        9.541176    2.519407    0.010480
    121          1           0       10.630410    2.378578    1.389395
    122          1           0        8.993354    3.038555    2.902884
    123          1           0        8.251493    1.531467    2.426506
    124          1           0        7.250908    2.818327    0.417182
    125          1           0        7.547857    4.979368    0.339991
    126          1           0        9.063889    4.898981    1.265308
    127          1           0        7.561055    5.155268    2.136118
    128          1           0        6.439709    3.511612    3.219326
    129          1           0        6.127162    2.006233    2.613476
    130          1           0        4.201814    2.665832    1.489285
    131          1           0        5.194615    3.763253    0.541813
    132          1           0        4.156847    5.456687    1.365212
    133          1           0        4.911111    5.002203    2.980265
    134          1           0        2.917538    3.470607    3.196561
    135          1           0        1.084666    5.142185    1.625363
    136          1           0        1.230809    3.345157    1.776112
    137          1           0        2.202473    4.214411    0.620395
    138          1           0        3.026076    4.994889    4.679899
    139          1           0        1.501912    5.652651    3.895541
    140          1           0        2.979908    6.342424    3.503180
 ---------------------------------------------------------------------

 SCF Done:  E(RB-LYP) =  -3007.33227100     A.U. after   21 cycles

 Excitation energies and oscillator strengths:

 Excited State   1:      Singlet-A      1.7624 eV  703.50 nm  f=0.0313  <S**2>=0.000
     244 -> 247        0.63750
     245 -> 247        0.19171
     246 -> 247        0.23359
 This state for optimization and/or second-order correction.
 Total Energy, E(TD-HF/TD-DFT) =  -3007.26750479
 Copying the excited state density for this state as the 1-particle RhoCI density.

 Excited State   2:      Singlet-A      1.8047 eV  687.00 nm  f=0.2629  <S**2>=0.000
     244 -> 247       -0.22595
     245 -> 248       -0.18329
     246 -> 247        0.65162
     246 <- 247       -0.14393

 Excited State   3:      Singlet-A      2.0545 eV  603.47 nm  f=0.0586  <S**2>=0.000
     243 -> 247        0.11207
     244 -> 247       -0.18918
     245 -> 247        0.59607
     246 -> 248        0.28972

 Excited State   4:      Singlet-A      2.2133 eV  560.17 nm  f=0.0023  <S**2>=0.000
     243 -> 247        0.69528

 Excited State   5:      Singlet-A      2.2901 eV  541.39 nm  f=0.0001  <S**2>=0.000
     242 -> 247        0.70710

 The electronic state is 1-A.
 Alpha  occ. eigenvalues --  -46.27296 -18.83246 -18.82579 -18.77305 -18.76617
 Alpha  occ. eigenvalues --  -18.76325 -18.74639 -14.03454 -14.03280 -14.01079
 Alpha  occ. eigenvalues --  -14.00650 -10.05082 -10.04057  -9.99727  -9.99201
 Alpha  occ. eigenvalues --   -9.98373  -9.97766  -9.96937  -9.96525  -9.96354
 Alpha  occ. eigenvalues --   -9.96250  -9.96216  -9.95523  -9.95067  -9.95012
 Alpha  occ. eigenvalues --   -9.94848  -9.94625  -9.94437  -9.94143  -9.93963
 Alpha  occ. eigenvalues --   -9.93749  -9.93627  -9.93617  -9.93457  -9.93334
 Alpha  occ. eigenvalues --   -9.93269  -9.93075  -9.92912  -9.92827  -9.92759
 Alpha  occ. eigenvalues --   -9.92550  -9.92529  -9.92498  -9.92448  -9.92412
 Alpha  occ. eigenvalues --   -9.92299  -9.92262  -9.92120  -9.92049  -9.91795
 Alpha  occ. eigenvalues --   -9.91779  -9.91725  -9.91601  -9.91457  -9.91379
 Alpha  occ. eigenvalues --   -9.91311  -9.91285  -9.91267  -9.91264  -9.91188
 Alpha  occ. eigenvalues --   -9.91132  -9.90905  -9.90815  -9.90746  -9.90428
 Alpha  occ. eigenvalues --   -9.90036  -2.91844  -1.72267  -1.71713  -1.71565
 Alpha  occ. eigenvalues --   -0.98371  -0.98187  -0.95794  -0.90758  -0.89897
 Alpha  occ. eigenvalues --   -0.89278  -0.86213  -0.85705  -0.85210  -0.84619
 Alpha  occ. eigenvalues --   -0.76088  -0.74135  -0.73406  -0.73138  -0.72654
 Alpha  occ. eigenvalues --   -0.72342  -0.71877  -0.71774  -0.71020  -0.70242
 Alpha  occ. eigenvalues --   -0.69674  -0.69017  -0.68039  -0.67734  -0.67273
 Alpha  occ. eigenvalues --   -0.66775  -0.65820  -0.65176  -0.65128  -0.64296
 Alpha  occ. eigenvalues --   -0.64055  -0.62562  -0.62161  -0.61778  -0.61125
 Alpha  occ. eigenvalues --   -0.60697  -0.60376  -0.60147  -0.59876  -0.59301
 Alpha  occ. eigenvalues --   -0.58424  -0.57720  -0.56757  -0.56121  -0.54442
 Alpha  occ. eigenvalues --   -0.54283  -0.53789  -0.52501  -0.52413  -0.51459
 Alpha  occ. eigenvalues --   -0.51193  -0.50936  -0.50807  -0.50737  -0.50465
 Alpha  occ. eigenvalues --   -0.49742  -0.49393  -0.49154  -0.48652  -0.46880
 Alpha  occ. eigenvalues --   -0.46461  -0.46140  -0.46055  -0.45248  -0.44968
 Alpha  occ. eigenvalues --   -0.43915  -0.43699  -0.43242  -0.42707  -0.42460
 Alpha  occ. eigenvalues --   -0.42224  -0.41956  -0.41875  -0.41702  -0.41381
 Alpha  occ. eigenvalues --   -0.41026  -0.40990  -0.40836  -0.40558  -0.40477
 Alpha  occ. eigenvalues --   -0.40123  -0.40043  -0.39517  -0.39415  -0.39230
 Alpha  occ. eigenvalues --   -0.39040  -0.38891  -0.38804  -0.38786  -0.38624
 Alpha  occ. eigenvalues --   -0.38082  -0.37996  -0.37886  -0.37732  -0.37364
 Alpha  occ. eigenvalues --   -0.37094  -0.36870  -0.36795  -0.36755  -0.36680
 Alpha  occ. eigenvalues --   -0.36536  -0.36358  -0.36184  -0.36081  -0.35834
 Alpha  occ. eigenvalues --   -0.35525  -0.35430  -0.35227  -0.35071  -0.34855
 Alpha  occ. eigenvalues --   -0.34667  -0.34608  -0.34524  -0.34502  -0.34213
 Alpha  occ. eigenvalues --   -0.33963  -0.33840  -0.33652  -0.33500  -0.33349
 Alpha  occ. eigenvalues --   -0.33296  -0.33079  -0.32984  -0.32652  -0.32555
 Alpha  occ. eigenvalues --   -0.32210  -0.32091  -0.31929  -0.31766  -0.31544
 Alpha  occ. eigenvalues --   -0.31495  -0.31230  -0.30993  -0.30888  -0.30825
 Alpha  occ. eigenvalues --   -0.30625  -0.30525  -0.30321  -0.30006  -0.29831
 Alpha  occ. eigenvalues --   -0.29815  -0.29738  -0.29384  -0.28770  -0.28683
 Alpha  occ. eigenvalues --   -0.28498  -0.28308  -0.28177  -0.28022  -0.27803
 Alpha  occ. eigenvalues --   -0.27686  -0.27146  -0.26914  -0.26825  -0.26642
 Alpha  occ. eigenvalues --   -0.26430  -0.26211  -0.26117  -0.25920  -0.25851
 Alpha  occ. eigenvalues --   -0.25347  -0.25322  -0.25321  -0.23898  -0.23401
 Alpha  occ. eigenvalues --   -0.23179  -0.22438  -0.21987  -0.21820  -0.20512
 Alpha  occ. eigenvalues --   -0.20248  -0.19811  -0.19414  -0.17837  -0.17402
 Alpha  occ. eigenvalues --   -0.15627
 Alpha virt. eigenvalues --   -0.11395  -0.07017  -0.05552  -0.04462  -0.04095
 Alpha virt. eigenvalues --   -0.03128  -0.02806  -0.02087  -0.02039   0.00142
 Alpha virt. eigenvalues --    0.00381   0.01341   0.02284   0.02554   0.02614

 Mulliken charges:
               1
     1  Mg   0.683473
     2  C   -0.067256
     3  C   -0.084535
     4  C   -0.016913
     5  C   -0.073152
     6  N   -0.242014
     7  C   -0.055330
     8  C   -0.025535
     9  C    0.015794
    10  C   -0.025594
    11  C    0.118385
    12  C    0.109522
    13  C    0.176306
    14  C    0.078521
    15  O   -0.203196
    16  O   -0.265076
    17  N   -0.273660
    18  C    0.202100
    19  C   -0.131216
    20  C    0.024006
    21  C    0.104498
    22  C    0.170865
    23  C   -0.092968
    24  O   -0.184009
    25  C    0.124952
    26  N   -0.207699
    27  C    0.001607
    28  C    0.028752
    29  C    0.010137
    30  C    0.030305
    31  C    0.129401
    32  C    0.104163
    33  C    0.060894
    34  N   -0.267584
    35  C    0.081214
    36  C   -0.243451
    37  C    0.147117
    38  C    0.092549
    39  C    0.193230
    40  C   -0.107447
    41  O   -0.051930
    42  C    0.160919
    43  C    0.089665
    44  O   -0.202353
    45  O   -0.259752
    46  C    0.228547
    47  C    0.337904
    48  C   -0.146208
    49  C   -0.126746
    50  C    0.107044
    51  C    0.153326
    52  C    0.001547
    53  C    0.111663
    54  C   -0.062469
    55  C    0.093558
    56  C    0.093062
    57  C    0.115584
    58  C    0.094927
    59  C   -0.114414
    60  C    0.122404
    61  C    0.080269
    62  C    0.102124
    63  C    0.128098
    64  C   -0.091327
    65  C    0.059309
    66  C    0.117147
    67  H   -0.059486
    68  H   -0.036411
    69  H   -0.057251
    70  H   -0.014760
    71  H   -0.038229
    72  H   -0.003941
    73  H    0.009503
    74  H    0.005383
    75  H   -0.032279
    76  H   -0.009310
    77  H    0.017152
    78  H   -0.009014
    79  H   -0.011868
    80  H    0.018467
    81  H   -0.028013
    82  H    0.008918
    83  H   -0.001149
    84  H    0.010347
    85  H   -0.021681
    86  H   -0.024383
    87  H   -0.001630
    88  H   -0.006686
    89  H   -0.016836
    90  H   -0.016168
    91  H   -0.032718
    92  H   -0.019455
    93  H   -0.011068
    94  H   -0.003205
    95  H    0.004084
    96  H    0.015780
    97  H    0.014139
    98  H   -0.006907
    99  H   -0.001771
   100  H    0.008064
   101  H    0.026949
   102  H    0.007703
   103  H    0.019079
   104  H   -0.034010
   105  H   -0.005610
   106  H   -0.019410
   107  H   -0.007518
   108  H   -0.007398
   109  H   -0.030351
   110  H   -0.011422
   111  H   -0.023351
   112  H   -0.039780
   113  H   -0.038451
   114  H   -0.040475
   115  H   -0.020208
   116  H   -0.005692
   117  H   -0.016765
   118  H   -0.037221
   119  H   -0.031651
   120  H   -0.022929
   121  H   -0.044120
   122  H   -0.033323
   123  H   -0.054348
   124  H   -0.037755
   125  H   -0.019140
   126  H   -0.002351
   127  H   -0.019154
   128  H   -0.042880
   129  H   -0.044630
   130  H   -0.033741
   131  H   -0.042004
   132  H   -0.035304
   133  H   -0.032830
   134  H   -0.048834
   135  H    0.001931
   136  H   -0.002511
   137  H   -0.016171
   138  H   -0.010292
   139  H   -0.023938
   140  H   -0.030767
 Sum of Mulliken charges =  -0.00000

 Dipole moment (field-independent basis, Debye):
    X=              3.6933    Y=              1.4517    Z=             -0.2466  Tot=              3.9760
 Quadrupole moment (field-independent basis, Debye-Ang):
   XX=           -367.9942   YY=           -439.7122   ZZ=           -412.8864
   XY=             -9.5078   XZ=              4.6786   YZ=             -0.7738

 Normal termination of Gaussian 16 at Fri Apr 29 08:07:43 2022.
