 Gaussian 16, Revision A.03,
 Gaussian 16:  ES64L-G16RevA.03 25-Dec-2016

 -----------------------------------
 #p cam-b3lyp/Def2SVP td=(nstates=5)
 -----------------------------------

 -------------------------------------------------------
 step_201_chromophore_12 TDDFT with cam-b3lyp functional
 -------------------------------------------------------
 Symbolic Z-matrix:
 Charge =  0 Multiplicity = 1

                         Standard orientation:
 ---------------------------------------------------------------------
 Center     Atomic      Atomic             Coordinates (Angstroms)
 Number     Number       Type             X           Y           Z
 ---------------------------------------------------------------------
      1         12           0       -3.924582    0.445830   -0.535805
      2          6           0       -3.007014   -2.788198    0.653427
      3          6           0       -0.662567    1.279608   -0.587140
      4          6           0       -4.915642    3.601427   -1.406439
      5          6           0       -7.253481   -0.316885    0.496089
      6          7           0       -2.099735   -0.566011    0.100169
      7          6           0       -1.941771   -1.929655    0.408105
      8          6           0       -0.496918   -2.404304    0.375352
      9          6           0        0.230063   -0.979082    0.418197
     10          6           0       -0.872059   -0.060869   -0.218460
     11          6           0        0.769611   -0.478427    1.886037
     12          6           0       -0.331948   -3.248416   -0.883842
     13          6           0        0.817840   -4.321494   -0.743017
     14          6           0        1.891069   -4.401651   -1.889411
     15          8           0        1.680145   -4.884848   -3.011430
     16          8           0        3.124153   -3.880192   -1.515235
     17          7           0       -2.908892    2.217197   -0.995718
     18          6           0       -1.518027    2.293585   -0.990219
     19          6           0       -1.133748    3.541724   -1.526541
     20          6           0       -2.335881    4.276421   -1.632267
     21          6           0       -3.493329    3.346145   -1.371118
     22          6           0        0.251686    3.992330   -1.619542
     23          6           0       -2.471073    5.709726   -2.098499
     24          8           0       -3.601231    6.187852   -2.084627
     25          6           0       -1.312291    6.683697   -2.427677
     26          7           0       -5.794723    1.516957   -0.432393
     27          6           0       -5.956219    2.754991   -0.977905
     28          6           0       -7.456546    3.256750   -0.773187
     29          6           0       -8.184295    1.959992   -0.289582
     30          6           0       -6.984514    1.028071    0.037889
     31          6           0       -7.659688    4.335659    0.254510
     32          6           0       -9.067003    1.238684   -1.322181
     33          6           0      -10.403162    0.649390   -0.866899
     34          7           0       -5.036791   -1.178689    0.252610
     35          6           0       -6.340473   -1.377105    0.614911
     36          6           0       -6.536333   -2.814354    0.919542
     37          6           0       -5.302116   -3.346965    0.857867
     38          6           0       -4.376990   -2.355427    0.583328
     39          6           0       -7.785927   -3.562454    1.257307
     40          6           0       -4.543123   -4.561282    1.016825
     41          8           0       -4.947077   -5.628865    1.191849
     42          6           0       -3.007702   -4.286313    0.879896
     43          6           0       -2.369111   -4.617378    2.172051
     44          8           0       -2.645674   -4.169308    3.293265
     45          8           0       -1.503777   -5.658936    1.999600
     46          6           0       -0.784534   -6.037517    3.201227
     47          6           0        4.188111   -4.022657   -2.465153
     48          6           0        5.491465   -3.955166   -1.764784
     49          6           0        6.759600   -3.636611   -2.191954
     50          6           0        6.979324   -3.599818   -3.711611
     51          6           0        7.976905   -3.427579   -1.262437
     52          6           0        8.794182   -2.126651   -1.601155
     53          6           0        9.792613   -1.637199   -0.443545
     54          6           0       10.096249   -0.129642   -0.497596
     55          6           0       11.549974    0.169635   -1.030939
     56          6           0        9.900196    0.489144    0.860202
     57          6           0        9.692880    2.019458    0.966246
     58          6           0        8.657186    2.465844    2.038308
     59          6           0        7.513580    3.220999    1.395344
     60          6           0        8.002288    4.653451    1.275469
     61          6           0        6.214490    3.035787    2.264721
     62          6           0        4.936378    3.468125    1.558523
     63          6           0        4.230607    4.729239    2.174388
     64          6           0        2.920964    4.436642    2.691958
     65          6           0        1.757925    4.284733    1.613024
     66          6           0        2.550919    5.379229    3.777453
     67          1           0        0.406470    1.460151   -0.457107
     68          1           0       -5.288820    4.590718   -1.679216
     69          1           0       -8.219127   -0.600687    0.919537
     70          1           0       -0.188347   -2.983372    1.245920
     71          1           0        1.072677   -0.902081   -0.269903
     72          1           0        0.035424    0.237702    2.252748
     73          1           0        1.680174    0.098628    1.727888
     74          1           0        0.730605   -1.232286    2.673408
     75          1           0       -0.012229   -2.594507   -1.695114
     76          1           0       -1.310648   -3.479925   -1.303080
     77          1           0        0.252235   -5.253635   -0.719404
     78          1           0        1.351940   -4.066806    0.172522
     79          1           0        1.051081    3.256537   -1.710391
     80          1           0        0.539581    4.610281   -0.769425
     81          1           0        0.320838    4.618172   -2.510361
     82          1           0       -0.543329    6.771592   -1.659468
     83          1           0       -1.756375    7.661463   -2.615698
     84          1           0       -0.873594    6.193287   -3.297012
     85          1           0       -7.825270    3.623017   -1.731342
     86          1           0       -8.749890    2.073985    0.635471
     87          1           0       -6.664064    4.654094    0.561470
     88          1           0       -8.306726    4.127590    1.106904
     89          1           0       -8.139287    5.201915   -0.201258
     90          1           0       -8.456491    0.536316   -1.889829
     91          1           0       -9.372690    1.945603   -2.093171
     92          1           0      -10.710265    0.904030    0.147838
     93          1           0      -10.267371   -0.428983   -0.781113
     94          1           0      -11.269682    0.876901   -1.488105
     95          1           0       -8.600296   -2.920556    0.920037
     96          1           0       -7.638374   -3.676806    2.331051
     97          1           0       -7.632186   -4.546972    0.817143
     98          1           0       -2.502124   -4.779879    0.049753
     99          1           0       -0.094692   -5.228071    3.442787
    100          1           0       -0.102731   -6.878385    3.071645
    101          1           0       -1.513206   -6.234080    3.987104
    102          1           0        4.123096   -3.260137   -3.240960
    103          1           0        4.358048   -5.012509   -2.890111
    104          1           0        5.386288   -3.839879   -0.685514
    105          1           0        6.271550   -4.166939   -4.317214
    106          1           0        7.964398   -3.929996   -4.040743
    107          1           0        7.005582   -2.580734   -4.097967
    108          1           0        8.636687   -4.295731   -1.273842
    109          1           0        7.708030   -3.141529   -0.245240
    110          1           0        8.126256   -1.311987   -1.883461
    111          1           0        9.378179   -2.411361   -2.475551
    112          1           0       10.747429   -2.160751   -0.475801
    113          1           0        9.365411   -1.869693    0.532499
    114          1           0        9.438948    0.228442   -1.290429
    115          1           0       12.260298    0.104380   -0.207049
    116          1           0       11.585197    1.161364   -1.482535
    117          1           0       11.834385   -0.609371   -1.737826
    118          1           0       10.820647    0.293465    1.410083
    119          1           0        9.119505    0.013899    1.454188
    120          1           0        9.541176    2.519407    0.010480
    121          1           0       10.630410    2.378578    1.389395
    122          1           0        8.993354    3.038555    2.902884
    123          1           0        8.251493    1.531467    2.426506
    124          1           0        7.250908    2.818327    0.417182
    125          1           0        7.547857    4.979368    0.339991
    126          1           0        9.063889    4.898981    1.265308
    127          1           0        7.561055    5.155268    2.136118
    128          1           0        6.439709    3.511612    3.219326
    129          1           0        6.127162    2.006233    2.613476
    130          1           0        4.201814    2.665832    1.489285
    131          1           0        5.194615    3.763253    0.541813
    132          1           0        4.156847    5.456687    1.365212
    133          1           0        4.911111    5.002203    2.980265
    134          1           0        2.917538    3.470607    3.196561
    135          1           0        1.084666    5.142185    1.625363
    136          1           0        1.230809    3.345157    1.776112
    137          1           0        2.202473    4.214411    0.620395
    138          1           0        3.026076    4.994889    4.679899
    139          1           0        1.501912    5.652651    3.895541
    140          1           0        2.979908    6.342424    3.503180
 ---------------------------------------------------------------------

 SCF Done:  E(RCAM-B3LYP) =  -3007.12848727     A.U. after   18 cycles

 Excitation energies and oscillator strengths:

 Excited State   1:      Singlet-A      1.6776 eV  739.06 nm  f=0.3670  <S**2>=0.000
     245 -> 248       -0.18025
     246 -> 247        0.68629
     245 <- 248       -0.10996
 This state for optimization and/or second-order correction.
 Total Energy, E(TD-HF/TD-DFT) =  -3007.06683679
 Copying the excited state density for this state as the 1-particle RhoCI density.

 Excited State   2:      Singlet-A      2.2522 eV  550.50 nm  f=0.0761  <S**2>=0.000
     245 -> 247        0.61572
     246 -> 248        0.33656

 Excited State   3:      Singlet-A      3.4013 eV  364.52 nm  f=0.1824  <S**2>=0.000
     241 -> 247        0.10205
     242 -> 247        0.52961
     243 -> 247       -0.23207
     245 -> 247        0.14849
     246 -> 248       -0.34080

 Excited State   4:      Singlet-A      3.4470 eV  359.68 nm  f=0.2319  <S**2>=0.000
     243 -> 247        0.53226
     245 -> 247        0.19643
     246 -> 248       -0.39638

 Excited State   5:      Singlet-A      3.5362 eV  350.62 nm  f=0.0012  <S**2>=0.000
     241 -> 247        0.53401
     241 -> 248       -0.13459
     241 -> 249        0.28747
     241 -> 251        0.21831
     242 -> 247       -0.16178
     243 -> 247       -0.10048

 The electronic state is 1-A.
 Alpha  occ. eigenvalues --  -46.88843 -19.26152 -19.25689 -19.20371 -19.19908
 Alpha  occ. eigenvalues --  -19.19688 -19.17710 -14.42401 -14.42095 -14.39442
 Alpha  occ. eigenvalues --  -14.39134 -10.40533 -10.39704 -10.35026 -10.34258
 Alpha  occ. eigenvalues --  -10.32308 -10.31845 -10.31536 -10.31150 -10.30719
 Alpha  occ. eigenvalues --  -10.30563 -10.30473 -10.29968 -10.29126 -10.29074
 Alpha  occ. eigenvalues --  -10.28972 -10.28937 -10.28758 -10.28624 -10.28091
 Alpha  occ. eigenvalues --  -10.27953 -10.27905 -10.27837 -10.27514 -10.27387
 Alpha  occ. eigenvalues --  -10.27240 -10.27194 -10.27014 -10.26846 -10.26607
 Alpha  occ. eigenvalues --  -10.26549 -10.26512 -10.26337 -10.26288 -10.26227
 Alpha  occ. eigenvalues --  -10.26173 -10.25980 -10.25930 -10.25809 -10.25770
 Alpha  occ. eigenvalues --  -10.25470 -10.25414 -10.25304 -10.25130 -10.24982
 Alpha  occ. eigenvalues --  -10.24968 -10.24943 -10.24931 -10.24903 -10.24864
 Alpha  occ. eigenvalues --  -10.24806 -10.24481 -10.24450 -10.24427 -10.24222
 Alpha  occ. eigenvalues --  -10.23977  -3.17289  -1.92191  -1.91730  -1.91597
 Alpha  occ. eigenvalues --   -1.17080  -1.16616  -1.14537  -1.09027  -1.07831
 Alpha  occ. eigenvalues --   -1.07393  -1.03952  -1.03263  -1.02836  -1.02126
 Alpha  occ. eigenvalues --   -0.93369  -0.91025  -0.90247  -0.89951  -0.89431
 Alpha  occ. eigenvalues --   -0.89028  -0.88535  -0.88376  -0.87749  -0.86756
 Alpha  occ. eigenvalues --   -0.86140  -0.85282  -0.84329  -0.83969  -0.83401
 Alpha  occ. eigenvalues --   -0.82852  -0.81841  -0.81045  -0.80976  -0.80318
 Alpha  occ. eigenvalues --   -0.79809  -0.78233  -0.77811  -0.77297  -0.76581
 Alpha  occ. eigenvalues --   -0.76091  -0.75742  -0.75494  -0.75120  -0.74563
 Alpha  occ. eigenvalues --   -0.73476  -0.72779  -0.71627  -0.70930  -0.69096
 Alpha  occ. eigenvalues --   -0.68855  -0.68427  -0.66822  -0.66752  -0.65581
 Alpha  occ. eigenvalues --   -0.65265  -0.65100  -0.64739  -0.64706  -0.64567
 Alpha  occ. eigenvalues --   -0.63757  -0.63363  -0.63091  -0.62462  -0.60566
 Alpha  occ. eigenvalues --   -0.60095  -0.59646  -0.59597  -0.59024  -0.58396
 Alpha  occ. eigenvalues --   -0.57338  -0.57006  -0.56619  -0.55918  -0.55644
 Alpha  occ. eigenvalues --   -0.55243  -0.55167  -0.54916  -0.54632  -0.54620
 Alpha  occ. eigenvalues --   -0.54087  -0.53804  -0.53526  -0.53495  -0.53184
 Alpha  occ. eigenvalues --   -0.52807  -0.52654  -0.52165  -0.52005  -0.51903
 Alpha  occ. eigenvalues --   -0.51678  -0.51418  -0.51355  -0.51298  -0.51067
 Alpha  occ. eigenvalues --   -0.50490  -0.50357  -0.50271  -0.50075  -0.49962
 Alpha  occ. eigenvalues --   -0.49744  -0.49606  -0.49092  -0.48892  -0.48808
 Alpha  occ. eigenvalues --   -0.48717  -0.48498  -0.48296  -0.48126  -0.48001
 Alpha  occ. eigenvalues --   -0.47618  -0.47524  -0.47310  -0.47111  -0.47057
 Alpha  occ. eigenvalues --   -0.46681  -0.46468  -0.46402  -0.46320  -0.46120
 Alpha  occ. eigenvalues --   -0.45949  -0.45528  -0.45465  -0.45287  -0.45144
 Alpha  occ. eigenvalues --   -0.45066  -0.44819  -0.44501  -0.44262  -0.44118
 Alpha  occ. eigenvalues --   -0.43987  -0.43707  -0.43417  -0.43358  -0.43252
 Alpha  occ. eigenvalues --   -0.43033  -0.42586  -0.42512  -0.42480  -0.42092
 Alpha  occ. eigenvalues --   -0.42018  -0.41885  -0.41843  -0.41570  -0.41402
 Alpha  occ. eigenvalues --   -0.41221  -0.41050  -0.40466  -0.39984  -0.39749
 Alpha  occ. eigenvalues --   -0.39441  -0.39336  -0.39074  -0.38984  -0.38790
 Alpha  occ. eigenvalues --   -0.38696  -0.37959  -0.37901  -0.37661  -0.37543
 Alpha  occ. eigenvalues --   -0.37319  -0.37271  -0.37219  -0.36862  -0.36755
 Alpha  occ. eigenvalues --   -0.36482  -0.36213  -0.35947  -0.34731  -0.34305
 Alpha  occ. eigenvalues --   -0.33914  -0.33798  -0.33318  -0.31530  -0.31330
 Alpha  occ. eigenvalues --   -0.29981  -0.29892  -0.29435  -0.29356  -0.24220
 Alpha  occ. eigenvalues --   -0.20822
 Alpha virt. eigenvalues --   -0.08413  -0.01929   0.01084   0.02101   0.02708
 Alpha virt. eigenvalues --    0.03533   0.04390   0.05215   0.05404   0.06102
 Alpha virt. eigenvalues --    0.07201   0.08348   0.08664   0.08817   0.08891

 Mulliken charges:
               1
     1  Mg   0.814043
     2  C   -0.094127
     3  C   -0.096499
     4  C   -0.036848
     5  C   -0.086265
     6  N   -0.305215
     7  C   -0.014132
     8  C   -0.077584
     9  C   -0.035080
    10  C   -0.008462
    11  C    0.065834
    12  C    0.053853
    13  C    0.108184
    14  C    0.160077
    15  O   -0.242949
    16  O   -0.330826
    17  N   -0.361936
    18  C    0.205118
    19  C   -0.134256
    20  C   -0.039987
    21  C    0.129170
    22  C    0.110646
    23  C   -0.022233
    24  O   -0.226748
    25  C    0.050540
    26  N   -0.279258
    27  C    0.022607
    28  C   -0.022593
    29  C   -0.048218
    30  C    0.059528
    31  C    0.068244
    32  C    0.044284
    33  C   -0.000586
    34  N   -0.352601
    35  C    0.090126
    36  C   -0.235233
    37  C    0.062838
    38  C    0.127635
    39  C    0.143149
    40  C   -0.007673
    41  O   -0.088873
    42  C    0.078484
    43  C    0.184344
    44  O   -0.238076
    45  O   -0.321921
    46  C    0.185142
    47  C    0.301668
    48  C   -0.160864
    49  C   -0.150214
    50  C    0.040929
    51  C    0.100292
    52  C   -0.049174
    53  C    0.059616
    54  C   -0.120401
    55  C    0.039769
    56  C    0.039977
    57  C    0.058517
    58  C    0.041102
    59  C   -0.166936
    60  C    0.061578
    61  C    0.028479
    62  C    0.046692
    63  C    0.067046
    64  C   -0.146314
    65  C    0.008273
    66  C    0.053472
    67  H   -0.027880
    68  H    0.003932
    69  H   -0.023033
    70  H    0.015965
    71  H   -0.003153
    72  H    0.021289
    73  H    0.029613
    74  H    0.028973
    75  H    0.001900
    76  H    0.023116
    77  H    0.048382
    78  H    0.024811
    79  H    0.016700
    80  H    0.040048
    81  H   -0.001514
    82  H    0.036052
    83  H    0.033679
    84  H    0.034278
    85  H    0.013671
    86  H    0.010126
    87  H    0.024655
    88  H    0.018032
    89  H    0.008481
    90  H    0.014896
    91  H   -0.002783
    92  H    0.004121
    93  H    0.010025
    94  H    0.021937
    95  H    0.025540
    96  H    0.043415
    97  H    0.041400
    98  H    0.037335
    99  H    0.019662
   100  H    0.033071
   101  H    0.052551
   102  H    0.034578
   103  H    0.046529
   104  H   -0.000705
   105  H    0.019401
   106  H    0.006642
   107  H    0.017156
   108  H    0.021085
   109  H   -0.001543
   110  H    0.015098
   111  H    0.001722
   112  H   -0.010238
   113  H   -0.010075
   114  H   -0.009038
   115  H    0.002538
   116  H    0.017670
   117  H    0.007085
   118  H   -0.008591
   119  H   -0.003802
   120  H    0.003429
   121  H   -0.013290
   122  H   -0.004191
   123  H   -0.025465
   124  H   -0.007089
   125  H    0.004407
   126  H    0.022481
   127  H    0.003829
   128  H   -0.015281
   129  H   -0.012897
   130  H   -0.006048
   131  H   -0.012709
   132  H   -0.005657
   133  H   -0.003427
   134  H   -0.015756
   135  H    0.023645
   136  H    0.017976
   137  H    0.001185
   138  H    0.013570
   139  H    0.003444
   140  H   -0.006133
 Sum of Mulliken charges =  -0.00000

 Dipole moment (field-independent basis, Debye):
    X=              3.9201    Y=              1.4681    Z=             -0.1873  Tot=              4.1902
 Quadrupole moment (field-independent basis, Debye-Ang):
   XX=           -365.6640   YY=           -437.2642   ZZ=           -412.7919
   XY=             -8.9723   XZ=              4.6872   YZ=             -2.5531

 Normal termination of Gaussian 16 at Fri Apr 29 06:57:15 2022.
