 Gaussian 16, Revision A.03,
 Gaussian 16:  ES64L-G16RevA.03 25-Dec-2016

 ---------------------------------
 #p PBE1PBE/Def2SVP td=(nstates=5)
 ---------------------------------

 -----------------------------------------------------
 step_201_chromophore_12 TDDFT with PBE1PBE functional
 -----------------------------------------------------
 Symbolic Z-matrix:
 Charge =  0 Multiplicity = 1

                         Standard orientation:
 ---------------------------------------------------------------------
 Center     Atomic      Atomic             Coordinates (Angstroms)
 Number     Number       Type             X           Y           Z
 ---------------------------------------------------------------------
      1         12           0       -3.924582    0.445830   -0.535805
      2          6           0       -3.007014   -2.788198    0.653427
      3          6           0       -0.662567    1.279608   -0.587140
      4          6           0       -4.915642    3.601427   -1.406439
      5          6           0       -7.253481   -0.316885    0.496089
      6          7           0       -2.099735   -0.566011    0.100169
      7          6           0       -1.941771   -1.929655    0.408105
      8          6           0       -0.496918   -2.404304    0.375352
      9          6           0        0.230063   -0.979082    0.418197
     10          6           0       -0.872059   -0.060869   -0.218460
     11          6           0        0.769611   -0.478427    1.886037
     12          6           0       -0.331948   -3.248416   -0.883842
     13          6           0        0.817840   -4.321494   -0.743017
     14          6           0        1.891069   -4.401651   -1.889411
     15          8           0        1.680145   -4.884848   -3.011430
     16          8           0        3.124153   -3.880192   -1.515235
     17          7           0       -2.908892    2.217197   -0.995718
     18          6           0       -1.518027    2.293585   -0.990219
     19          6           0       -1.133748    3.541724   -1.526541
     20          6           0       -2.335881    4.276421   -1.632267
     21          6           0       -3.493329    3.346145   -1.371118
     22          6           0        0.251686    3.992330   -1.619542
     23          6           0       -2.471073    5.709726   -2.098499
     24          8           0       -3.601231    6.187852   -2.084627
     25          6           0       -1.312291    6.683697   -2.427677
     26          7           0       -5.794723    1.516957   -0.432393
     27          6           0       -5.956219    2.754991   -0.977905
     28          6           0       -7.456546    3.256750   -0.773187
     29          6           0       -8.184295    1.959992   -0.289582
     30          6           0       -6.984514    1.028071    0.037889
     31          6           0       -7.659688    4.335659    0.254510
     32          6           0       -9.067003    1.238684   -1.322181
     33          6           0      -10.403162    0.649390   -0.866899
     34          7           0       -5.036791   -1.178689    0.252610
     35          6           0       -6.340473   -1.377105    0.614911
     36          6           0       -6.536333   -2.814354    0.919542
     37          6           0       -5.302116   -3.346965    0.857867
     38          6           0       -4.376990   -2.355427    0.583328
     39          6           0       -7.785927   -3.562454    1.257307
     40          6           0       -4.543123   -4.561282    1.016825
     41          8           0       -4.947077   -5.628865    1.191849
     42          6           0       -3.007702   -4.286313    0.879896
     43          6           0       -2.369111   -4.617378    2.172051
     44          8           0       -2.645674   -4.169308    3.293265
     45          8           0       -1.503777   -5.658936    1.999600
     46          6           0       -0.784534   -6.037517    3.201227
     47          6           0        4.188111   -4.022657   -2.465153
     48          6           0        5.491465   -3.955166   -1.764784
     49          6           0        6.759600   -3.636611   -2.191954
     50          6           0        6.979324   -3.599818   -3.711611
     51          6           0        7.976905   -3.427579   -1.262437
     52          6           0        8.794182   -2.126651   -1.601155
     53          6           0        9.792613   -1.637199   -0.443545
     54          6           0       10.096249   -0.129642   -0.497596
     55          6           0       11.549974    0.169635   -1.030939
     56          6           0        9.900196    0.489144    0.860202
     57          6           0        9.692880    2.019458    0.966246
     58          6           0        8.657186    2.465844    2.038308
     59          6           0        7.513580    3.220999    1.395344
     60          6           0        8.002288    4.653451    1.275469
     61          6           0        6.214490    3.035787    2.264721
     62          6           0        4.936378    3.468125    1.558523
     63          6           0        4.230607    4.729239    2.174388
     64          6           0        2.920964    4.436642    2.691958
     65          6           0        1.757925    4.284733    1.613024
     66          6           0        2.550919    5.379229    3.777453
     67          1           0        0.406470    1.460151   -0.457107
     68          1           0       -5.288820    4.590718   -1.679216
     69          1           0       -8.219127   -0.600687    0.919537
     70          1           0       -0.188347   -2.983372    1.245920
     71          1           0        1.072677   -0.902081   -0.269903
     72          1           0        0.035424    0.237702    2.252748
     73          1           0        1.680174    0.098628    1.727888
     74          1           0        0.730605   -1.232286    2.673408
     75          1           0       -0.012229   -2.594507   -1.695114
     76          1           0       -1.310648   -3.479925   -1.303080
     77          1           0        0.252235   -5.253635   -0.719404
     78          1           0        1.351940   -4.066806    0.172522
     79          1           0        1.051081    3.256537   -1.710391
     80          1           0        0.539581    4.610281   -0.769425
     81          1           0        0.320838    4.618172   -2.510361
     82          1           0       -0.543329    6.771592   -1.659468
     83          1           0       -1.756375    7.661463   -2.615698
     84          1           0       -0.873594    6.193287   -3.297012
     85          1           0       -7.825270    3.623017   -1.731342
     86          1           0       -8.749890    2.073985    0.635471
     87          1           0       -6.664064    4.654094    0.561470
     88          1           0       -8.306726    4.127590    1.106904
     89          1           0       -8.139287    5.201915   -0.201258
     90          1           0       -8.456491    0.536316   -1.889829
     91          1           0       -9.372690    1.945603   -2.093171
     92          1           0      -10.710265    0.904030    0.147838
     93          1           0      -10.267371   -0.428983   -0.781113
     94          1           0      -11.269682    0.876901   -1.488105
     95          1           0       -8.600296   -2.920556    0.920037
     96          1           0       -7.638374   -3.676806    2.331051
     97          1           0       -7.632186   -4.546972    0.817143
     98          1           0       -2.502124   -4.779879    0.049753
     99          1           0       -0.094692   -5.228071    3.442787
    100          1           0       -0.102731   -6.878385    3.071645
    101          1           0       -1.513206   -6.234080    3.987104
    102          1           0        4.123096   -3.260137   -3.240960
    103          1           0        4.358048   -5.012509   -2.890111
    104          1           0        5.386288   -3.839879   -0.685514
    105          1           0        6.271550   -4.166939   -4.317214
    106          1           0        7.964398   -3.929996   -4.040743
    107          1           0        7.005582   -2.580734   -4.097967
    108          1           0        8.636687   -4.295731   -1.273842
    109          1           0        7.708030   -3.141529   -0.245240
    110          1           0        8.126256   -1.311987   -1.883461
    111          1           0        9.378179   -2.411361   -2.475551
    112          1           0       10.747429   -2.160751   -0.475801
    113          1           0        9.365411   -1.869693    0.532499
    114          1           0        9.438948    0.228442   -1.290429
    115          1           0       12.260298    0.104380   -0.207049
    116          1           0       11.585197    1.161364   -1.482535
    117          1           0       11.834385   -0.609371   -1.737826
    118          1           0       10.820647    0.293465    1.410083
    119          1           0        9.119505    0.013899    1.454188
    120          1           0        9.541176    2.519407    0.010480
    121          1           0       10.630410    2.378578    1.389395
    122          1           0        8.993354    3.038555    2.902884
    123          1           0        8.251493    1.531467    2.426506
    124          1           0        7.250908    2.818327    0.417182
    125          1           0        7.547857    4.979368    0.339991
    126          1           0        9.063889    4.898981    1.265308
    127          1           0        7.561055    5.155268    2.136118
    128          1           0        6.439709    3.511612    3.219326
    129          1           0        6.127162    2.006233    2.613476
    130          1           0        4.201814    2.665832    1.489285
    131          1           0        5.194615    3.763253    0.541813
    132          1           0        4.156847    5.456687    1.365212
    133          1           0        4.911111    5.002203    2.980265
    134          1           0        2.917538    3.470607    3.196561
    135          1           0        1.084666    5.142185    1.625363
    136          1           0        1.230809    3.345157    1.776112
    137          1           0        2.202473    4.214411    0.620395
    138          1           0        3.026076    4.994889    4.679899
    139          1           0        1.501912    5.652651    3.895541
    140          1           0        2.979908    6.342424    3.503180
 ---------------------------------------------------------------------

 SCF Done:  E(RPBE1PBE) =  -3005.31794234     A.U. after   15 cycles

 Excitation energies and oscillator strengths:

 Excited State   1:      Singlet-A      1.8404 eV  673.67 nm  f=0.3566  <S**2>=0.000
     245 -> 248       -0.17381
     246 -> 247        0.69360
     246 <- 247       -0.10956
 This state for optimization and/or second-order correction.
 Total Energy, E(TD-HF/TD-DFT) =  -3005.25030770
 Copying the excited state density for this state as the 1-particle RhoCI density.

 Excited State   2:      Singlet-A      2.2677 eV  546.73 nm  f=0.0785  <S**2>=0.000
     245 -> 247        0.62895
     246 -> 248        0.31055

 Excited State   3:      Singlet-A      2.9301 eV  423.14 nm  f=0.0005  <S**2>=0.000
     243 -> 247        0.67716
     243 -> 249        0.14246

 Excited State   4:      Singlet-A      3.0772 eV  402.92 nm  f=0.0033  <S**2>=0.000
     241 -> 247       -0.36677
     242 -> 247        0.59405

 Excited State   5:      Singlet-A      3.1561 eV  392.84 nm  f=0.0078  <S**2>=0.000
     240 -> 247        0.13339
     241 -> 247        0.53455
     242 -> 247        0.36128
     246 -> 248       -0.22916

 The electronic state is 1-A.
 Alpha  occ. eigenvalues --  -46.92242 -19.26863 -19.26261 -19.20662 -19.20068
 Alpha  occ. eigenvalues --  -19.19761 -19.18015 -14.41921 -14.41633 -14.39137
 Alpha  occ. eigenvalues --  -14.38766 -10.37613 -10.36649 -10.32075 -10.31494
 Alpha  occ. eigenvalues --  -10.29722 -10.29240 -10.29019 -10.28853 -10.28532
 Alpha  occ. eigenvalues --  -10.28408 -10.28264 -10.27564 -10.26987 -10.26893
 Alpha  occ. eigenvalues --  -10.26557 -10.26553 -10.26471 -10.26183 -10.25891
 Alpha  occ. eigenvalues --  -10.25573 -10.25543 -10.25477 -10.25347 -10.25225
 Alpha  occ. eigenvalues --  -10.24960 -10.24837 -10.24529 -10.24483 -10.24419
 Alpha  occ. eigenvalues --  -10.24255 -10.24173 -10.23816 -10.23796 -10.23659
 Alpha  occ. eigenvalues --  -10.23556 -10.23502 -10.23480 -10.23384 -10.23363
 Alpha  occ. eigenvalues --  -10.23083 -10.23012 -10.22839 -10.22585 -10.22570
 Alpha  occ. eigenvalues --  -10.22565 -10.22546 -10.22426 -10.22421 -10.22380
 Alpha  occ. eigenvalues --  -10.22322 -10.22018 -10.21987 -10.21877 -10.21795
 Alpha  occ. eigenvalues --  -10.21359  -3.14271  -1.87113  -1.86630  -1.86500
 Alpha  occ. eigenvalues --   -1.11782  -1.11460  -1.09245  -1.03838  -1.02699
 Alpha  occ. eigenvalues --   -1.02118  -0.98551  -0.97974  -0.97425  -0.96778
 Alpha  occ. eigenvalues --   -0.87665  -0.85141  -0.84389  -0.84144  -0.83599
 Alpha  occ. eigenvalues --   -0.83333  -0.82747  -0.82659  -0.82024  -0.81071
 Alpha  occ. eigenvalues --   -0.80470  -0.79491  -0.78582  -0.78177  -0.77643
 Alpha  occ. eigenvalues --   -0.77087  -0.76118  -0.75323  -0.75263  -0.74519
 Alpha  occ. eigenvalues --   -0.74014  -0.72481  -0.72145  -0.71609  -0.70887
 Alpha  occ. eigenvalues --   -0.70203  -0.69894  -0.69635  -0.69497  -0.68750
 Alpha  occ. eigenvalues --   -0.67815  -0.67178  -0.66007  -0.65300  -0.63366
 Alpha  occ. eigenvalues --   -0.63202  -0.62820  -0.61310  -0.61068  -0.59973
 Alpha  occ. eigenvalues --   -0.59608  -0.59564  -0.59311  -0.59143  -0.59059
 Alpha  occ. eigenvalues --   -0.57911  -0.57560  -0.57260  -0.57019  -0.54987
 Alpha  occ. eigenvalues --   -0.54611  -0.54226  -0.54124  -0.53359  -0.53004
 Alpha  occ. eigenvalues --   -0.51911  -0.51451  -0.51053  -0.50451  -0.50215
 Alpha  occ. eigenvalues --   -0.49699  -0.49654  -0.49357  -0.49262  -0.49039
 Alpha  occ. eigenvalues --   -0.48717  -0.48254  -0.48046  -0.47948  -0.47843
 Alpha  occ. eigenvalues --   -0.47386  -0.47193  -0.46590  -0.46544  -0.46450
 Alpha  occ. eigenvalues --   -0.46184  -0.46039  -0.45969  -0.45878  -0.45609
 Alpha  occ. eigenvalues --   -0.45056  -0.44915  -0.44821  -0.44707  -0.44516
 Alpha  occ. eigenvalues --   -0.44258  -0.44218  -0.43713  -0.43504  -0.43406
 Alpha  occ. eigenvalues --   -0.43361  -0.43104  -0.42930  -0.42761  -0.42637
 Alpha  occ. eigenvalues --   -0.42268  -0.42145  -0.42006  -0.41763  -0.41703
 Alpha  occ. eigenvalues --   -0.41335  -0.41201  -0.41109  -0.40956  -0.40810
 Alpha  occ. eigenvalues --   -0.40647  -0.40242  -0.40125  -0.40080  -0.39878
 Alpha  occ. eigenvalues --   -0.39798  -0.39526  -0.39215  -0.39042  -0.38946
 Alpha  occ. eigenvalues --   -0.38807  -0.38461  -0.38233  -0.38154  -0.38023
 Alpha  occ. eigenvalues --   -0.37890  -0.37335  -0.37311  -0.37285  -0.37043
 Alpha  occ. eigenvalues --   -0.36761  -0.36700  -0.36618  -0.36316  -0.36255
 Alpha  occ. eigenvalues --   -0.36062  -0.35803  -0.35383  -0.34874  -0.34577
 Alpha  occ. eigenvalues --   -0.34272  -0.34239  -0.33865  -0.33791  -0.33688
 Alpha  occ. eigenvalues --   -0.33526  -0.32869  -0.32759  -0.32609  -0.32412
 Alpha  occ. eigenvalues --   -0.32292  -0.32236  -0.32186  -0.31772  -0.31725
 Alpha  occ. eigenvalues --   -0.31328  -0.31260  -0.30820  -0.29414  -0.29249
 Alpha  occ. eigenvalues --   -0.29035  -0.28881  -0.28747  -0.27057  -0.26321
 Alpha  occ. eigenvalues --   -0.25426  -0.25140  -0.24791  -0.24681  -0.21124
 Alpha  occ. eigenvalues --   -0.18505
 Alpha virt. eigenvalues --   -0.10925  -0.05400  -0.03171  -0.01767  -0.01043
 Alpha virt. eigenvalues --   -0.00614  -0.00145   0.00781   0.00924   0.02924
 Alpha virt. eigenvalues --    0.03147   0.04546   0.04925   0.05384   0.05584

 Mulliken charges:
               1
     1  Mg   0.958719
     2  C   -0.093657
     3  C   -0.096071
     4  C   -0.037274
     5  C   -0.081488
     6  N   -0.398847
     7  C    0.053375
     8  C   -0.156095
     9  C   -0.106237
    10  C    0.036943
    11  C    0.008909
    12  C    0.014592
    13  C    0.028579
    14  C    0.224598
    15  O   -0.274360
    16  O   -0.363178
    17  N   -0.483060
    18  C    0.222905
    19  C   -0.160987
    20  C   -0.096263
    21  C    0.174062
    22  C    0.047127
    23  C    0.029136
    24  O   -0.259546
    25  C   -0.024160
    26  N   -0.380401
    27  C    0.060821
    28  C   -0.097954
    29  C   -0.127237
    30  C    0.100192
    31  C    0.013606
    32  C   -0.014694
    33  C   -0.070939
    34  N   -0.470678
    35  C    0.113753
    36  C   -0.252632
    37  C    0.002212
    38  C    0.177055
    39  C    0.084056
    40  C    0.104910
    41  O   -0.138704
    42  C   -0.054774
    43  C    0.282430
    44  O   -0.272478
    45  O   -0.355907
    46  C    0.129249
    47  C    0.261134
    48  C   -0.171317
    49  C   -0.195817
    50  C   -0.018096
    51  C    0.036034
    52  C   -0.113909
    53  C    0.011001
    54  C   -0.208496
    55  C   -0.019292
    56  C   -0.015166
    57  C   -0.000659
    58  C   -0.017585
    59  C   -0.256674
    60  C    0.006574
    61  C   -0.020995
    62  C   -0.014884
    63  C    0.003786
    64  C   -0.236077
    65  C   -0.053474
    66  C   -0.008621
    67  H    0.004882
    68  H    0.035597
    69  H    0.010227
    70  H    0.055200
    71  H    0.033508
    72  H    0.049549
    73  H    0.055887
    74  H    0.055650
    75  H    0.035843
    76  H    0.054564
    77  H    0.081113
    78  H    0.056426
    79  H    0.043251
    80  H    0.071618
    81  H    0.028645
    82  H    0.062644
    83  H    0.060946
    84  H    0.061344
    85  H    0.049088
    86  H    0.046290
    87  H    0.052751
    88  H    0.044518
    89  H    0.036246
    90  H    0.048163
    91  H    0.031163
    92  H    0.030901
    93  H    0.038009
    94  H    0.049146
    95  H    0.052210
    96  H    0.072424
    97  H    0.069066
    98  H    0.074598
    99  H    0.041803
   100  H    0.055029
   101  H    0.074139
   102  H    0.061128
   103  H    0.073317
   104  H    0.030038
   105  H    0.045755
   106  H    0.034300
   107  H    0.044879
   108  H    0.053450
   109  H    0.031331
   110  H    0.046629
   111  H    0.035473
   112  H    0.022542
   113  H    0.021268
   114  H    0.029439
   115  H    0.029605
   116  H    0.045250
   117  H    0.035171
   118  H    0.024859
   119  H    0.027099
   120  H    0.033884
   121  H    0.021242
   122  H    0.027667
   123  H    0.008363
   124  H    0.031068
   125  H    0.031954
   126  H    0.049154
   127  H    0.032015
   128  H    0.015701
   129  H    0.019821
   130  H    0.026381
   131  H    0.020213
   132  H    0.027299
   133  H    0.030275
   134  H    0.023634
   135  H    0.049875
   136  H    0.046373
   137  H    0.028626
   138  H    0.041641
   139  H    0.031046
   140  H    0.022724
 Sum of Mulliken charges =  -0.00000

 Dipole moment (field-independent basis, Debye):
    X=              3.9550    Y=              1.6863    Z=             -0.2158  Tot=              4.3049
 Quadrupole moment (field-independent basis, Debye-Ang):
   XX=           -360.0619   YY=           -434.9100   ZZ=           -410.1804
   XY=             -9.8939   XZ=              4.8477   YZ=             -2.4198

 Normal termination of Gaussian 16 at Fri Apr 29 07:21:27 2022.
