 Gaussian 16, Revision A.03,
 Gaussian 16:  ES64L-G16RevA.03 25-Dec-2016

 --------------------------------
 #p wB97XD/Def2SVP td=(nstates=5)
 --------------------------------

 ----------------------------------------------------
 step_201_chromophore_12 TDDFT with wB97XD functional
 ----------------------------------------------------
 Symbolic Z-matrix:
 Charge =  0 Multiplicity = 1

                         Standard orientation:
 ---------------------------------------------------------------------
 Center     Atomic      Atomic             Coordinates (Angstroms)
 Number     Number       Type             X           Y           Z
 ---------------------------------------------------------------------
      1         12           0       -3.924582    0.445830   -0.535805
      2          6           0       -3.007014   -2.788198    0.653427
      3          6           0       -0.662567    1.279608   -0.587140
      4          6           0       -4.915642    3.601427   -1.406439
      5          6           0       -7.253481   -0.316885    0.496089
      6          7           0       -2.099735   -0.566011    0.100169
      7          6           0       -1.941771   -1.929655    0.408105
      8          6           0       -0.496918   -2.404304    0.375352
      9          6           0        0.230063   -0.979082    0.418197
     10          6           0       -0.872059   -0.060869   -0.218460
     11          6           0        0.769611   -0.478427    1.886037
     12          6           0       -0.331948   -3.248416   -0.883842
     13          6           0        0.817840   -4.321494   -0.743017
     14          6           0        1.891069   -4.401651   -1.889411
     15          8           0        1.680145   -4.884848   -3.011430
     16          8           0        3.124153   -3.880192   -1.515235
     17          7           0       -2.908892    2.217197   -0.995718
     18          6           0       -1.518027    2.293585   -0.990219
     19          6           0       -1.133748    3.541724   -1.526541
     20          6           0       -2.335881    4.276421   -1.632267
     21          6           0       -3.493329    3.346145   -1.371118
     22          6           0        0.251686    3.992330   -1.619542
     23          6           0       -2.471073    5.709726   -2.098499
     24          8           0       -3.601231    6.187852   -2.084627
     25          6           0       -1.312291    6.683697   -2.427677
     26          7           0       -5.794723    1.516957   -0.432393
     27          6           0       -5.956219    2.754991   -0.977905
     28          6           0       -7.456546    3.256750   -0.773187
     29          6           0       -8.184295    1.959992   -0.289582
     30          6           0       -6.984514    1.028071    0.037889
     31          6           0       -7.659688    4.335659    0.254510
     32          6           0       -9.067003    1.238684   -1.322181
     33          6           0      -10.403162    0.649390   -0.866899
     34          7           0       -5.036791   -1.178689    0.252610
     35          6           0       -6.340473   -1.377105    0.614911
     36          6           0       -6.536333   -2.814354    0.919542
     37          6           0       -5.302116   -3.346965    0.857867
     38          6           0       -4.376990   -2.355427    0.583328
     39          6           0       -7.785927   -3.562454    1.257307
     40          6           0       -4.543123   -4.561282    1.016825
     41          8           0       -4.947077   -5.628865    1.191849
     42          6           0       -3.007702   -4.286313    0.879896
     43          6           0       -2.369111   -4.617378    2.172051
     44          8           0       -2.645674   -4.169308    3.293265
     45          8           0       -1.503777   -5.658936    1.999600
     46          6           0       -0.784534   -6.037517    3.201227
     47          6           0        4.188111   -4.022657   -2.465153
     48          6           0        5.491465   -3.955166   -1.764784
     49          6           0        6.759600   -3.636611   -2.191954
     50          6           0        6.979324   -3.599818   -3.711611
     51          6           0        7.976905   -3.427579   -1.262437
     52          6           0        8.794182   -2.126651   -1.601155
     53          6           0        9.792613   -1.637199   -0.443545
     54          6           0       10.096249   -0.129642   -0.497596
     55          6           0       11.549974    0.169635   -1.030939
     56          6           0        9.900196    0.489144    0.860202
     57          6           0        9.692880    2.019458    0.966246
     58          6           0        8.657186    2.465844    2.038308
     59          6           0        7.513580    3.220999    1.395344
     60          6           0        8.002288    4.653451    1.275469
     61          6           0        6.214490    3.035787    2.264721
     62          6           0        4.936378    3.468125    1.558523
     63          6           0        4.230607    4.729239    2.174388
     64          6           0        2.920964    4.436642    2.691958
     65          6           0        1.757925    4.284733    1.613024
     66          6           0        2.550919    5.379229    3.777453
     67          1           0        0.406470    1.460151   -0.457107
     68          1           0       -5.288820    4.590718   -1.679216
     69          1           0       -8.219127   -0.600687    0.919537
     70          1           0       -0.188347   -2.983372    1.245920
     71          1           0        1.072677   -0.902081   -0.269903
     72          1           0        0.035424    0.237702    2.252748
     73          1           0        1.680174    0.098628    1.727888
     74          1           0        0.730605   -1.232286    2.673408
     75          1           0       -0.012229   -2.594507   -1.695114
     76          1           0       -1.310648   -3.479925   -1.303080
     77          1           0        0.252235   -5.253635   -0.719404
     78          1           0        1.351940   -4.066806    0.172522
     79          1           0        1.051081    3.256537   -1.710391
     80          1           0        0.539581    4.610281   -0.769425
     81          1           0        0.320838    4.618172   -2.510361
     82          1           0       -0.543329    6.771592   -1.659468
     83          1           0       -1.756375    7.661463   -2.615698
     84          1           0       -0.873594    6.193287   -3.297012
     85          1           0       -7.825270    3.623017   -1.731342
     86          1           0       -8.749890    2.073985    0.635471
     87          1           0       -6.664064    4.654094    0.561470
     88          1           0       -8.306726    4.127590    1.106904
     89          1           0       -8.139287    5.201915   -0.201258
     90          1           0       -8.456491    0.536316   -1.889829
     91          1           0       -9.372690    1.945603   -2.093171
     92          1           0      -10.710265    0.904030    0.147838
     93          1           0      -10.267371   -0.428983   -0.781113
     94          1           0      -11.269682    0.876901   -1.488105
     95          1           0       -8.600296   -2.920556    0.920037
     96          1           0       -7.638374   -3.676806    2.331051
     97          1           0       -7.632186   -4.546972    0.817143
     98          1           0       -2.502124   -4.779879    0.049753
     99          1           0       -0.094692   -5.228071    3.442787
    100          1           0       -0.102731   -6.878385    3.071645
    101          1           0       -1.513206   -6.234080    3.987104
    102          1           0        4.123096   -3.260137   -3.240960
    103          1           0        4.358048   -5.012509   -2.890111
    104          1           0        5.386288   -3.839879   -0.685514
    105          1           0        6.271550   -4.166939   -4.317214
    106          1           0        7.964398   -3.929996   -4.040743
    107          1           0        7.005582   -2.580734   -4.097967
    108          1           0        8.636687   -4.295731   -1.273842
    109          1           0        7.708030   -3.141529   -0.245240
    110          1           0        8.126256   -1.311987   -1.883461
    111          1           0        9.378179   -2.411361   -2.475551
    112          1           0       10.747429   -2.160751   -0.475801
    113          1           0        9.365411   -1.869693    0.532499
    114          1           0        9.438948    0.228442   -1.290429
    115          1           0       12.260298    0.104380   -0.207049
    116          1           0       11.585197    1.161364   -1.482535
    117          1           0       11.834385   -0.609371   -1.737826
    118          1           0       10.820647    0.293465    1.410083
    119          1           0        9.119505    0.013899    1.454188
    120          1           0        9.541176    2.519407    0.010480
    121          1           0       10.630410    2.378578    1.389395
    122          1           0        8.993354    3.038555    2.902884
    123          1           0        8.251493    1.531467    2.426506
    124          1           0        7.250908    2.818327    0.417182
    125          1           0        7.547857    4.979368    0.339991
    126          1           0        9.063889    4.898981    1.265308
    127          1           0        7.561055    5.155268    2.136118
    128          1           0        6.439709    3.511612    3.219326
    129          1           0        6.127162    2.006233    2.613476
    130          1           0        4.201814    2.665832    1.489285
    131          1           0        5.194615    3.763253    0.541813
    132          1           0        4.156847    5.456687    1.365212
    133          1           0        4.911111    5.002203    2.980265
    134          1           0        2.917538    3.470607    3.196561
    135          1           0        1.084666    5.142185    1.625363
    136          1           0        1.230809    3.345157    1.776112
    137          1           0        2.202473    4.214411    0.620395
    138          1           0        3.026076    4.994889    4.679899
    139          1           0        1.501912    5.652651    3.895541
    140          1           0        2.979908    6.342424    3.503180
 ---------------------------------------------------------------------

 SCF Done:  E(RwB97XD) =  -3007.82839857     A.U. after   19 cycles

 Excitation energies and oscillator strengths:

 Excited State   1:      Singlet-A      1.6201 eV  765.27 nm  f=0.3659  <S**2>=0.000
     245 -> 248       -0.18617
     246 -> 247        0.68415
     245 <- 248       -0.11956
 This state for optimization and/or second-order correction.
 Total Energy, E(TD-HF/TD-DFT) =  -3007.76885943
 Copying the excited state density for this state as the 1-particle RhoCI density.

 Excited State   2:      Singlet-A      2.1943 eV  565.04 nm  f=0.0751  <S**2>=0.000
     245 -> 247        0.61512
     246 -> 248        0.33708

 Excited State   3:      Singlet-A      3.4026 eV  364.38 nm  f=0.2113  <S**2>=0.000
     241 -> 247        0.53981
     243 -> 247       -0.16337
     245 -> 247        0.15731
     246 -> 248       -0.37136

 Excited State   4:      Singlet-A      3.4742 eV  356.87 nm  f=0.2419  <S**2>=0.000
     241 -> 247       -0.14851
     243 -> 247        0.52309
     245 -> 247        0.19717
     246 -> 248       -0.38325

 Excited State   5:      Singlet-A      3.5656 eV  347.73 nm  f=0.0006  <S**2>=0.000
     242 -> 247        0.53448
     242 -> 248       -0.14221
     242 -> 249        0.31318
     242 -> 250        0.24599

 The electronic state is 1-A.
 Alpha  occ. eigenvalues --  -46.95189 -19.31428 -19.30927 -19.25358 -19.24881
 Alpha  occ. eigenvalues --  -19.24732 -19.22692 -14.47019 -14.46681 -14.44012
 Alpha  occ. eigenvalues --  -14.43764 -10.44405 -10.43576 -10.39034 -10.38192
 Alpha  occ. eigenvalues --  -10.36203 -10.35596 -10.35593 -10.35224 -10.34744
 Alpha  occ. eigenvalues --  -10.34563 -10.34483 -10.34040 -10.33195 -10.33053
 Alpha  occ. eigenvalues --  -10.33001 -10.32923 -10.32843 -10.32698 -10.32244
 Alpha  occ. eigenvalues --  -10.32054 -10.31952 -10.31896 -10.31545 -10.31446
 Alpha  occ. eigenvalues --  -10.31308 -10.31250 -10.30876 -10.30871 -10.30609
 Alpha  occ. eigenvalues --  -10.30566 -10.30561 -10.30265 -10.30196 -10.30183
 Alpha  occ. eigenvalues --  -10.30015 -10.29868 -10.29836 -10.29760 -10.29753
 Alpha  occ. eigenvalues --  -10.29432 -10.29267 -10.29249 -10.28977 -10.28908
 Alpha  occ. eigenvalues --  -10.28896 -10.28865 -10.28795 -10.28761 -10.28750
 Alpha  occ. eigenvalues --  -10.28746 -10.28361 -10.28349 -10.28302 -10.28282
 Alpha  occ. eigenvalues --  -10.27775  -3.21081  -1.94671  -1.94187  -1.94058
 Alpha  occ. eigenvalues --   -1.19275  -1.18843  -1.16804  -1.11195  -1.10062
 Alpha  occ. eigenvalues --   -1.09602  -1.05977  -1.05293  -1.04831  -1.04154
 Alpha  occ. eigenvalues --   -0.95375  -0.92781  -0.92055  -0.91796  -0.91258
 Alpha  occ. eigenvalues --   -0.90908  -0.90350  -0.90259  -0.89721  -0.88672
 Alpha  occ. eigenvalues --   -0.88073  -0.87151  -0.86253  -0.85829  -0.85262
 Alpha  occ. eigenvalues --   -0.84727  -0.83766  -0.82943  -0.82909  -0.82218
 Alpha  occ. eigenvalues --   -0.81670  -0.80162  -0.79733  -0.79235  -0.78521
 Alpha  occ. eigenvalues --   -0.77881  -0.77584  -0.77302  -0.77055  -0.76407
 Alpha  occ. eigenvalues --   -0.75419  -0.74775  -0.73567  -0.72880  -0.70985
 Alpha  occ. eigenvalues --   -0.70784  -0.70392  -0.68800  -0.68664  -0.67515
 Alpha  occ. eigenvalues --   -0.67168  -0.67059  -0.66744  -0.66661  -0.66559
 Alpha  occ. eigenvalues --   -0.65576  -0.65199  -0.64900  -0.64474  -0.62506
 Alpha  occ. eigenvalues --   -0.62076  -0.61613  -0.61584  -0.60996  -0.60385
 Alpha  occ. eigenvalues --   -0.59325  -0.58926  -0.58539  -0.57869  -0.57608
 Alpha  occ. eigenvalues --   -0.57178  -0.57094  -0.56801  -0.56630  -0.56485
 Alpha  occ. eigenvalues --   -0.56070  -0.55692  -0.55467  -0.55362  -0.55130
 Alpha  occ. eigenvalues --   -0.54753  -0.54587  -0.54063  -0.53909  -0.53853
 Alpha  occ. eigenvalues --   -0.53647  -0.53322  -0.53287  -0.53207  -0.52946
 Alpha  occ. eigenvalues --   -0.52434  -0.52274  -0.52156  -0.51977  -0.51859
 Alpha  occ. eigenvalues --   -0.51670  -0.51518  -0.51007  -0.50799  -0.50686
 Alpha  occ. eigenvalues --   -0.50646  -0.50413  -0.50209  -0.50020  -0.49892
 Alpha  occ. eigenvalues --   -0.49562  -0.49465  -0.49239  -0.49046  -0.48989
 Alpha  occ. eigenvalues --   -0.48675  -0.48377  -0.48306  -0.48192  -0.48020
 Alpha  occ. eigenvalues --   -0.47858  -0.47440  -0.47321  -0.47234  -0.47058
 Alpha  occ. eigenvalues --   -0.46987  -0.46701  -0.46371  -0.46183  -0.46064
 Alpha  occ. eigenvalues --   -0.45908  -0.45612  -0.45328  -0.45259  -0.45160
 Alpha  occ. eigenvalues --   -0.44966  -0.44451  -0.44419  -0.44404  -0.44062
 Alpha  occ. eigenvalues --   -0.43971  -0.43775  -0.43726  -0.43433  -0.43360
 Alpha  occ. eigenvalues --   -0.43112  -0.42909  -0.42393  -0.41868  -0.41620
 Alpha  occ. eigenvalues --   -0.41280  -0.41239  -0.40909  -0.40840  -0.40687
 Alpha  occ. eigenvalues --   -0.40552  -0.39855  -0.39793  -0.39667  -0.39431
 Alpha  occ. eigenvalues --   -0.39308  -0.39218  -0.39168  -0.38880  -0.38691
 Alpha  occ. eigenvalues --   -0.38330  -0.38137  -0.37785  -0.36668  -0.36249
 Alpha  occ. eigenvalues --   -0.35897  -0.35632  -0.35581  -0.33666  -0.33446
 Alpha  occ. eigenvalues --   -0.32094  -0.31860  -0.31596  -0.31415  -0.26139
 Alpha  occ. eigenvalues --   -0.22633
 Alpha virt. eigenvalues --   -0.06757  -0.00023   0.03144   0.04818   0.05228
 Alpha virt. eigenvalues --    0.05795   0.06510   0.07538   0.07621   0.09581
 Alpha virt. eigenvalues --    0.09804   0.11289   0.11474   0.12126   0.12371

 Mulliken charges:
               1
     1  Mg   0.949699
     2  C   -0.103449
     3  C   -0.104017
     4  C   -0.050276
     5  C   -0.097284
     6  N   -0.370716
     7  C    0.028232
     8  C   -0.125172
     9  C   -0.082300
    10  C    0.015480
    11  C    0.019076
    12  C    0.017999
    13  C    0.047243
    14  C    0.215594
    15  O   -0.272147
    16  O   -0.361886
    17  N   -0.447008
    18  C    0.215401
    19  C   -0.148686
    20  C   -0.085654
    21  C    0.157444
    22  C    0.064823
    23  C    0.021833
    24  O   -0.256614
    25  C   -0.010663
    26  N   -0.349345
    27  C    0.043976
    28  C   -0.073502
    29  C   -0.098199
    30  C    0.088168
    31  C    0.021917
    32  C   -0.000477
    33  C   -0.055625
    34  N   -0.436842
    35  C    0.107076
    36  C   -0.247337
    37  C    0.011996
    38  C    0.160550
    39  C    0.097581
    40  C    0.081391
    41  O   -0.128687
    42  C   -0.002435
    43  C    0.254323
    44  O   -0.266646
    45  O   -0.353601
    46  C    0.144919
    47  C    0.272768
    48  C   -0.175920
    49  C   -0.182918
    50  C   -0.009172
    51  C    0.054662
    52  C   -0.093203
    53  C    0.022272
    54  C   -0.179723
    55  C   -0.006758
    56  C    0.006206
    57  C    0.009316
    58  C    0.004411
    59  C   -0.221928
    60  C    0.013301
    61  C   -0.007055
    62  C    0.000430
    63  C    0.023062
    64  C   -0.203491
    65  C   -0.039776
    66  C    0.003068
    67  H   -0.005239
    68  H    0.032278
    69  H    0.002580
    70  H    0.039115
    71  H    0.023657
    72  H    0.041942
    73  H    0.050872
    74  H    0.050977
    75  H    0.027498
    76  H    0.046372
    77  H    0.076251
    78  H    0.050359
    79  H    0.039578
    80  H    0.058890
    81  H    0.020916
    82  H    0.057972
    83  H    0.059829
    84  H    0.054436
    85  H    0.040573
    86  H    0.033573
    87  H    0.045954
    88  H    0.039154
    89  H    0.031092
    90  H    0.038930
    91  H    0.022678
    92  H    0.024627
    93  H    0.030126
    94  H    0.045118
    95  H    0.046723
    96  H    0.067541
    97  H    0.065230
    98  H    0.066631
    99  H    0.036857
   100  H    0.052153
   101  H    0.070244
   102  H    0.056797
   103  H    0.067369
   104  H    0.025497
   105  H    0.041426
   106  H    0.028988
   107  H    0.039082
   108  H    0.047389
   109  H    0.021513
   110  H    0.036891
   111  H    0.024864
   112  H    0.014794
   113  H    0.011094
   114  H    0.015955
   115  H    0.022475
   116  H    0.040048
   117  H    0.028614
   118  H    0.014352
   119  H    0.015943
   120  H    0.024947
   121  H    0.013016
   122  H    0.019852
   123  H   -0.005466
   124  H    0.017379
   125  H    0.026136
   126  H    0.044311
   127  H    0.023829
   128  H    0.004507
   129  H    0.012244
   130  H    0.017633
   131  H    0.010592
   132  H    0.019275
   133  H    0.017263
   134  H    0.010892
   135  H    0.044170
   136  H    0.040241
   137  H    0.017575
   138  H    0.035994
   139  H    0.026532
   140  H    0.014794
 Sum of Mulliken charges =  -0.00000

 Dipole moment (field-independent basis, Debye):
    X=              3.9486    Y=              1.4552    Z=             -0.1664  Tot=              4.2115
 Quadrupole moment (field-independent basis, Debye-Ang):
   XX=           -359.8983   YY=           -433.5698   ZZ=           -409.9140
   XY=             -8.6121   XZ=              4.5504   YZ=             -2.9135

 Normal termination of Gaussian 16 at Fri Apr 29 07:52:50 2022.
