 Gaussian 16, Revision A.03,
 Gaussian 16:  ES64L-G16RevA.03 25-Dec-2016

 --------------------
 #p ZINDO=(nstates=5)
 --------------------

 -----------------------------
 step_201_chromophore_12 ZINDO
 -----------------------------
 Symbolic Z-matrix:
 Charge =  0 Multiplicity = 1

                         Standard orientation:
 ---------------------------------------------------------------------
 Center     Atomic      Atomic             Coordinates (Angstroms)
 Number     Number       Type             X           Y           Z
 ---------------------------------------------------------------------
      1         12           0       -3.924582    0.445830   -0.535805
      2          6           0       -3.007014   -2.788198    0.653427
      3          6           0       -0.662567    1.279608   -0.587140
      4          6           0       -4.915642    3.601427   -1.406439
      5          6           0       -7.253481   -0.316885    0.496089
      6          7           0       -2.099735   -0.566011    0.100169
      7          6           0       -1.941771   -1.929655    0.408105
      8          6           0       -0.496918   -2.404304    0.375352
      9          6           0        0.230063   -0.979082    0.418197
     10          6           0       -0.872059   -0.060869   -0.218460
     11          6           0        0.769611   -0.478427    1.886037
     12          6           0       -0.331948   -3.248416   -0.883842
     13          6           0        0.817840   -4.321494   -0.743017
     14          6           0        1.891069   -4.401651   -1.889411
     15          8           0        1.680145   -4.884848   -3.011430
     16          8           0        3.124153   -3.880192   -1.515235
     17          7           0       -2.908892    2.217197   -0.995718
     18          6           0       -1.518027    2.293585   -0.990219
     19          6           0       -1.133748    3.541724   -1.526541
     20          6           0       -2.335881    4.276421   -1.632267
     21          6           0       -3.493329    3.346145   -1.371118
     22          6           0        0.251686    3.992330   -1.619542
     23          6           0       -2.471073    5.709726   -2.098499
     24          8           0       -3.601231    6.187852   -2.084627
     25          6           0       -1.312291    6.683697   -2.427677
     26          7           0       -5.794723    1.516957   -0.432393
     27          6           0       -5.956219    2.754991   -0.977905
     28          6           0       -7.456546    3.256750   -0.773187
     29          6           0       -8.184295    1.959992   -0.289582
     30          6           0       -6.984514    1.028071    0.037889
     31          6           0       -7.659688    4.335659    0.254510
     32          6           0       -9.067003    1.238684   -1.322181
     33          6           0      -10.403162    0.649390   -0.866899
     34          7           0       -5.036791   -1.178689    0.252610
     35          6           0       -6.340473   -1.377105    0.614911
     36          6           0       -6.536333   -2.814354    0.919542
     37          6           0       -5.302116   -3.346965    0.857867
     38          6           0       -4.376990   -2.355427    0.583328
     39          6           0       -7.785927   -3.562454    1.257307
     40          6           0       -4.543123   -4.561282    1.016825
     41          8           0       -4.947077   -5.628865    1.191849
     42          6           0       -3.007702   -4.286313    0.879896
     43          6           0       -2.369111   -4.617378    2.172051
     44          8           0       -2.645674   -4.169308    3.293265
     45          8           0       -1.503777   -5.658936    1.999600
     46          6           0       -0.784534   -6.037517    3.201227
     47          6           0        4.188111   -4.022657   -2.465153
     48          6           0        5.491465   -3.955166   -1.764784
     49          6           0        6.759600   -3.636611   -2.191954
     50          6           0        6.979324   -3.599818   -3.711611
     51          6           0        7.976905   -3.427579   -1.262437
     52          6           0        8.794182   -2.126651   -1.601155
     53          6           0        9.792613   -1.637199   -0.443545
     54          6           0       10.096249   -0.129642   -0.497596
     55          6           0       11.549974    0.169635   -1.030939
     56          6           0        9.900196    0.489144    0.860202
     57          6           0        9.692880    2.019458    0.966246
     58          6           0        8.657186    2.465844    2.038308
     59          6           0        7.513580    3.220999    1.395344
     60          6           0        8.002288    4.653451    1.275469
     61          6           0        6.214490    3.035787    2.264721
     62          6           0        4.936378    3.468125    1.558523
     63          6           0        4.230607    4.729239    2.174388
     64          6           0        2.920964    4.436642    2.691958
     65          6           0        1.757925    4.284733    1.613024
     66          6           0        2.550919    5.379229    3.777453
     67          1           0        0.406470    1.460151   -0.457107
     68          1           0       -5.288820    4.590718   -1.679216
     69          1           0       -8.219127   -0.600687    0.919537
     70          1           0       -0.188347   -2.983372    1.245920
     71          1           0        1.072677   -0.902081   -0.269903
     72          1           0        0.035424    0.237702    2.252748
     73          1           0        1.680174    0.098628    1.727888
     74          1           0        0.730605   -1.232286    2.673408
     75          1           0       -0.012229   -2.594507   -1.695114
     76          1           0       -1.310648   -3.479925   -1.303080
     77          1           0        0.252235   -5.253635   -0.719404
     78          1           0        1.351940   -4.066806    0.172522
     79          1           0        1.051081    3.256537   -1.710391
     80          1           0        0.539581    4.610281   -0.769425
     81          1           0        0.320838    4.618172   -2.510361
     82          1           0       -0.543329    6.771592   -1.659468
     83          1           0       -1.756375    7.661463   -2.615698
     84          1           0       -0.873594    6.193287   -3.297012
     85          1           0       -7.825270    3.623017   -1.731342
     86          1           0       -8.749890    2.073985    0.635471
     87          1           0       -6.664064    4.654094    0.561470
     88          1           0       -8.306726    4.127590    1.106904
     89          1           0       -8.139287    5.201915   -0.201258
     90          1           0       -8.456491    0.536316   -1.889829
     91          1           0       -9.372690    1.945603   -2.093171
     92          1           0      -10.710265    0.904030    0.147838
     93          1           0      -10.267371   -0.428983   -0.781113
     94          1           0      -11.269682    0.876901   -1.488105
     95          1           0       -8.600296   -2.920556    0.920037
     96          1           0       -7.638374   -3.676806    2.331051
     97          1           0       -7.632186   -4.546972    0.817143
     98          1           0       -2.502124   -4.779879    0.049753
     99          1           0       -0.094692   -5.228071    3.442787
    100          1           0       -0.102731   -6.878385    3.071645
    101          1           0       -1.513206   -6.234080    3.987104
    102          1           0        4.123096   -3.260137   -3.240960
    103          1           0        4.358048   -5.012509   -2.890111
    104          1           0        5.386288   -3.839879   -0.685514
    105          1           0        6.271550   -4.166939   -4.317214
    106          1           0        7.964398   -3.929996   -4.040743
    107          1           0        7.005582   -2.580734   -4.097967
    108          1           0        8.636687   -4.295731   -1.273842
    109          1           0        7.708030   -3.141529   -0.245240
    110          1           0        8.126256   -1.311987   -1.883461
    111          1           0        9.378179   -2.411361   -2.475551
    112          1           0       10.747429   -2.160751   -0.475801
    113          1           0        9.365411   -1.869693    0.532499
    114          1           0        9.438948    0.228442   -1.290429
    115          1           0       12.260298    0.104380   -0.207049
    116          1           0       11.585197    1.161364   -1.482535
    117          1           0       11.834385   -0.609371   -1.737826
    118          1           0       10.820647    0.293465    1.410083
    119          1           0        9.119505    0.013899    1.454188
    120          1           0        9.541176    2.519407    0.010480
    121          1           0       10.630410    2.378578    1.389395
    122          1           0        8.993354    3.038555    2.902884
    123          1           0        8.251493    1.531467    2.426506
    124          1           0        7.250908    2.818327    0.417182
    125          1           0        7.547857    4.979368    0.339991
    126          1           0        9.063889    4.898981    1.265308
    127          1           0        7.561055    5.155268    2.136118
    128          1           0        6.439709    3.511612    3.219326
    129          1           0        6.127162    2.006233    2.613476
    130          1           0        4.201814    2.665832    1.489285
    131          1           0        5.194615    3.763253    0.541813
    132          1           0        4.156847    5.456687    1.365212
    133          1           0        4.911111    5.002203    2.980265
    134          1           0        2.917538    3.470607    3.196561
    135          1           0        1.084666    5.142185    1.625363
    136          1           0        1.230809    3.345157    1.776112
    137          1           0        2.202473    4.214411    0.620395
    138          1           0        3.026076    4.994889    4.679899
    139          1           0        1.501912    5.652651    3.895541
    140          1           0        2.979908    6.342424    3.503180
 ---------------------------------------------------------------------

 SCF Done:  E(RZINDO/S) =  -474.382273759     A.U. after   19 cycles

 Excitation energies and oscillator strengths:

 Excited State   1:      Singlet-A      1.2519 eV  990.36 nm  f=0.5556  <S**2>=0.000
     175 ->178        -0.18773
     176 ->177         0.66522
 This state for optimization and/or second-order correction.
 Total Energy, E(CIS/TDA) =  -474.336267046
 Copying the excited state density for this state as the 1-particle RhoCI density.

 Excited State   2:      Singlet-A      1.8922 eV  655.23 nm  f=0.0102  <S**2>=0.000
     175 ->177         0.51047
     176 ->178         0.46580

 Excited State   3:      Singlet-A      2.9320 eV  422.87 nm  f=0.1121  <S**2>=0.000
     170 ->177         0.26127
     170 ->178        -0.10670
     170 ->179         0.21637
     170 ->181         0.33241
     170 ->183        -0.27560
     170 ->186         0.17811
     170 ->187         0.21671
     170 ->201         0.10019
     175 ->177         0.13285
     176 ->178        -0.15787

 Excited State   4:      Singlet-A      2.9833 eV  415.59 nm  f=0.3708  <S**2>=0.000
     168 ->177        -0.23387
     168 ->179         0.30248
     168 ->183         0.18267
     168 ->186         0.16754
     168 ->197        -0.10058
     169 ->177        -0.13379
     169 ->179         0.11439
     171 ->177         0.14021
     175 ->177        -0.23317
     176 ->178         0.27700

 Excited State   5:      Singlet-A      3.0071 eV  412.30 nm  f=0.7183  <S**2>=0.000
     168 ->177         0.20201
     168 ->179        -0.25651
     168 ->183        -0.14605
     168 ->186        -0.13435
     175 ->177        -0.32998
     176 ->178         0.37822

 The electronic state is 1-A.
 Alpha  occ. eigenvalues --   -1.85322  -1.80310  -1.79048  -1.74569  -1.72426
 Alpha  occ. eigenvalues --   -1.70806  -1.67076  -1.63785  -1.62252  -1.57455
 Alpha  occ. eigenvalues --   -1.57283  -1.51707  -1.50705  -1.47973  -1.46809
 Alpha  occ. eigenvalues --   -1.44177  -1.43004  -1.40612  -1.39664  -1.39019
 Alpha  occ. eigenvalues --   -1.36122  -1.33502  -1.33162  -1.30372  -1.28738
 Alpha  occ. eigenvalues --   -1.26830  -1.25167  -1.20910  -1.19992  -1.18440
 Alpha  occ. eigenvalues --   -1.16836  -1.16734  -1.15225  -1.14780  -1.13675
 Alpha  occ. eigenvalues --   -1.12684  -1.10449  -1.08803  -1.05124  -1.04322
 Alpha  occ. eigenvalues --   -1.03809  -1.01242  -0.99504  -0.98007  -0.96809
 Alpha  occ. eigenvalues --   -0.96645  -0.94429  -0.93042  -0.92601  -0.91938
 Alpha  occ. eigenvalues --   -0.90819  -0.89545  -0.88595  -0.87955  -0.87402
 Alpha  occ. eigenvalues --   -0.85724  -0.85371  -0.84264  -0.82052  -0.80132
 Alpha  occ. eigenvalues --   -0.80119  -0.79353  -0.77900  -0.76735  -0.76427
 Alpha  occ. eigenvalues --   -0.76307  -0.75957  -0.75242  -0.74750  -0.73306
 Alpha  occ. eigenvalues --   -0.72340  -0.71766  -0.71534  -0.70582  -0.70055
 Alpha  occ. eigenvalues --   -0.69469  -0.69271  -0.69042  -0.68660  -0.68191
 Alpha  occ. eigenvalues --   -0.67952  -0.67036  -0.66787  -0.66544  -0.65921
 Alpha  occ. eigenvalues --   -0.65802  -0.65148  -0.64830  -0.64483  -0.64236
 Alpha  occ. eigenvalues --   -0.63698  -0.63390  -0.63252  -0.62705  -0.61995
 Alpha  occ. eigenvalues --   -0.61698  -0.61294  -0.60731  -0.60394  -0.59791
 Alpha  occ. eigenvalues --   -0.58980  -0.58852  -0.58714  -0.58406  -0.57947
 Alpha  occ. eigenvalues --   -0.57894  -0.57652  -0.57288  -0.56886  -0.56514
 Alpha  occ. eigenvalues --   -0.56204  -0.56062  -0.55465  -0.55045  -0.54896
 Alpha  occ. eigenvalues --   -0.54296  -0.53954  -0.53898  -0.53260  -0.53111
 Alpha  occ. eigenvalues --   -0.52439  -0.52074  -0.51820  -0.51564  -0.51328
 Alpha  occ. eigenvalues --   -0.50999  -0.50848  -0.50568  -0.50245  -0.50200
 Alpha  occ. eigenvalues --   -0.50071  -0.49977  -0.49693  -0.49538  -0.49123
 Alpha  occ. eigenvalues --   -0.48594  -0.48215  -0.48040  -0.47875  -0.47242
 Alpha  occ. eigenvalues --   -0.47188  -0.47063  -0.46661  -0.46361  -0.46224
 Alpha  occ. eigenvalues --   -0.46100  -0.46056  -0.45799  -0.45459  -0.45378
 Alpha  occ. eigenvalues --   -0.45201  -0.44698  -0.44282  -0.44236  -0.43801
 Alpha  occ. eigenvalues --   -0.43554  -0.43307  -0.42988  -0.42840  -0.42499
 Alpha  occ. eigenvalues --   -0.42254  -0.41640  -0.40676  -0.39544  -0.39215
 Alpha  occ. eigenvalues --   -0.38370  -0.36824  -0.35415  -0.34922  -0.33679
 Alpha  occ. eigenvalues --   -0.33264  -0.32291  -0.31796  -0.31749  -0.26692
 Alpha  occ. eigenvalues --   -0.21394
 Alpha virt. eigenvalues --   -0.08090  -0.02206  -0.00232   0.00965   0.01357
 Alpha virt. eigenvalues --    0.01914   0.02271   0.02535   0.04037   0.04947
 Alpha virt. eigenvalues --    0.06180   0.06847   0.07456   0.07613   0.08130

 Mulliken charges:
               1
     1  Mg   0.424619
     2  C   -0.062894
     3  C   -0.060134
     4  C   -0.052652
     5  C   -0.075125
     6  N   -0.289402
     7  C    0.142746
     8  C    0.005777
     9  C   -0.007600
    10  C    0.074941
    11  C   -0.058822
    12  C   -0.026592
    13  C    0.005823
    14  C    0.458232
    15  O   -0.514263
    16  O   -0.260786
    17  N   -0.301687
    18  C    0.076427
    19  C    0.008386
    20  C   -0.063175
    21  C    0.136594
    22  C   -0.041728
    23  C    0.306044
    24  O   -0.541922
    25  C   -0.030835
    26  N   -0.260797
    27  C    0.100354
    28  C    0.010345
    29  C    0.005317
    30  C    0.149045
    31  C   -0.049808
    32  C   -0.023475
    33  C   -0.055864
    34  N   -0.341934
    35  C    0.120081
    36  C    0.055302
    37  C   -0.037265
    38  C    0.120032
    39  C   -0.045559
    40  C    0.351544
    41  O   -0.487673
    42  C    0.055473
    43  C    0.490331
    44  O   -0.531036
    45  O   -0.268994
    46  C    0.076131
    47  C    0.116602
    48  C   -0.086283
    49  C   -0.022335
    50  C   -0.048853
    51  C   -0.020787
    52  C   -0.040565
    53  C   -0.040550
    54  C   -0.009576
    55  C   -0.060272
    56  C   -0.027121
    57  C   -0.040928
    58  C   -0.036124
    59  C   -0.010409
    60  C   -0.056219
    61  C   -0.036641
    62  C   -0.043401
    63  C   -0.023522
    64  C   -0.000176
    65  C   -0.063446
    66  C   -0.056598
    67  H    0.019222
    68  H    0.051993
    69  H    0.028984
    70  H    0.034109
    71  H    0.018631
    72  H    0.019735
    73  H    0.031287
    74  H    0.034760
    75  H    0.019053
    76  H    0.043117
    77  H    0.048933
    78  H    0.040282
    79  H    0.022929
    80  H    0.033212
    81  H    0.017549
    82  H    0.035698
    83  H    0.041885
    84  H    0.035603
    85  H    0.032571
    86  H    0.034949
    87  H    0.027513
    88  H    0.023646
    89  H    0.013655
    90  H    0.026737
    91  H    0.009751
    92  H    0.016031
    93  H    0.012634
    94  H    0.025965
    95  H    0.038463
    96  H    0.048205
    97  H    0.048120
    98  H    0.060239
    99  H    0.033202
   100  H    0.030479
   101  H    0.056138
   102  H    0.053227
   103  H    0.062607
   104  H    0.017441
   105  H    0.024733
   106  H    0.015499
   107  H    0.025328
   108  H    0.034437
   109  H    0.023938
   110  H    0.027341
   111  H    0.015190
   112  H    0.019464
   113  H    0.017859
   114  H    0.020382
   115  H    0.019402
   116  H    0.020929
   117  H    0.016837
   118  H    0.014193
   119  H    0.018147
   120  H    0.027609
   121  H    0.008192
   122  H    0.027134
   123  H    0.004964
   124  H    0.019089
   125  H    0.011194
   126  H    0.027132
   127  H    0.018218
   128  H    0.016989
   129  H    0.010728
   130  H    0.019822
   131  H    0.012293
   132  H    0.022094
   133  H    0.020889
   134  H    0.008730
   135  H    0.025209
   136  H    0.021491
   137  H    0.013491
   138  H    0.018943
   139  H    0.019808
   140  H    0.007428
 Sum of Mulliken charges =  -0.00000

 Dipole moment (field-independent basis, Debye):
    X=              4.1166    Y=              0.0343    Z=             -0.0635  Tot=              4.1172
 N-N= 4.530774874361D+03 E-N= 0.000000000000D+00  KE=-9.735801332973D+03
 Leave Link  601 at Fri Apr 29 08:07:49 2022, MaxMem=  6710886400 cpu:               0.7 elap:               0.0
 (Enter /sw/apps/gaussian-16.0/g16/l9999.exe)
 1\1\GINC-BP1-COMPUTE137\SP\RZINDO CIS\STO-3G\C55H74Mg1N4O6\OF15641\29-
 Apr-2022\0\\#p ZINDO=(nstates=5)\\step_201_chromophore_12 ZINDO\\0,1\M
 g,0,47.923,15.138,27.956\C,0,45.508,14.953,30.573\C,0,49.668,17.34,29.
 812\C,0,50.036,15.461,25.286\C,0,45.492,13.597,25.848\N,0,47.552,16.13
 ,29.863\C,0,46.587,15.791,30.829\C,0,46.87,16.365,32.209\C,0,47.95,17.
 472,31.797\C,0,48.536,16.845,30.483\C,0,47.394,19.008,31.63\C,0,47.337
 ,15.209,33.087\C,0,47.033,15.454,34.617\C,0,48.208,15.246,35.641\O,0,4

 Normal termination of Gaussian 16 at Fri Apr 29 08:07:49 2022.
