 Gaussian 16, Revision A.03,
 Gaussian 16:  ES64L-G16RevA.03 25-Dec-2016

 ------------------------------
 #p blyp/Def2SVP td=(nstates=5)
 ------------------------------

 -----------------------------------------------
 step_1_chromophore_8 TDDFT with blyp functional
 -----------------------------------------------
 Symbolic Z-matrix:
 Charge =  0 Multiplicity = 1

                         Standard orientation:
 ---------------------------------------------------------------------
 Center     Atomic      Atomic             Coordinates (Angstroms)
 Number     Number       Type             X           Y           Z
 ---------------------------------------------------------------------
      1         12           0        4.394167    1.225056    0.007282
      2          6           0        4.173500   -2.261166    0.359197
      3          6           0        3.818528    0.834624   -3.318155
      4          6           0        4.187795    4.487579   -0.091429
      5          6           0        4.125779    1.315191    3.597024
      6          7           0        4.112467   -0.510202   -1.289599
      7          6           0        4.037253   -1.829927   -0.943908
      8          6           0        3.493377   -2.611435   -2.149227
      9          6           0        3.938727   -1.736593   -3.315849
     10          6           0        3.858502   -0.371402   -2.606091
     11          6           0        5.376097   -2.051967   -3.790342
     12          6           0        1.928868   -2.763104   -2.077248
     13          6           0        1.312361   -4.232796   -1.869598
     14          6           0        0.465585   -4.517872   -0.617491
     15          8           0        0.720260   -5.358326    0.287881
     16          8           0       -0.615098   -3.701428   -0.654265
     17          7           0        3.994024    2.488423   -1.483550
     18          6           0        3.805395    2.141304   -2.801595
     19          6           0        3.743978    3.342624   -3.573925
     20          6           0        3.966371    4.467893   -2.713058
     21          6           0        4.056866    3.863016   -1.352539
     22          6           0        3.512195    3.358394   -5.123743
     23          6           0        4.095078    5.958127   -3.195996
     24          8           0        4.102962    6.210036   -4.361576
     25          6           0        4.482496    6.969121   -2.219724
     26          7           0        3.866900    2.687103    1.533553
     27          6           0        4.240211    3.947383    1.207484
     28          6           0        4.667897    4.774988    2.407934
     29          6           0        4.292161    3.892679    3.588600
     30          6           0        4.066285    2.516100    2.872045
     31          6           0        6.200939    5.129206    2.394557
     32          6           0        3.057438    4.303921    4.521067
     33          6           0        3.252999    4.823307    5.920198
     34          7           0        4.397472   -0.124795    1.654644
     35          6           0        4.285617    0.045377    3.040570
     36          6           0        4.231568   -1.224565    3.731907
     37          6           0        4.214251   -2.146331    2.714153
     38          6           0        4.289974   -1.470376    1.451952
     39          6           0        4.127314   -1.401600    5.189544
     40          6           0        4.152281   -3.571761    2.429533
     41          8           0        4.169037   -4.532656    3.208723
     42          6           0        4.233207   -3.707119    0.923564
     43          6           0        5.504300   -4.487743    0.607346
     44          8           0        6.603645   -4.077004    0.971923
     45          8           0        5.216554   -5.721881    0.003980
     46          6           0        6.371325   -6.527251   -0.291318
     47          6           0       -1.590165   -3.927369    0.425768
     48          6           0       -2.857613   -3.160632    0.150897
     49          6           0       -3.831196   -3.496303   -0.749782
     50          6           0       -3.803880   -4.805964   -1.596694
     51          6           0       -5.063246   -2.634963   -0.996083
     52          6           0       -4.758912   -1.577848   -2.127558
     53          6           0       -4.385656   -0.100070   -1.745228
     54          6           0       -5.625222    0.931013   -1.895348
     55          6           0       -5.158445    2.249138   -2.439406
     56          6           0       -6.520947    1.062435   -0.580107
     57          6           0       -8.050581    0.893653   -0.949556
     58          6           0       -8.793155   -0.196672   -0.220999
     59          6           0       -9.942557    0.354678    0.716864
     60          6           0       -9.501840    0.407426    2.231229
     61          6           0      -11.336788   -0.383605    0.628701
     62          6           0      -12.483620    0.484678   -0.021921
     63          6           0      -13.282807    1.266070    1.065060
     64          6           0      -14.806873    1.072623    0.971679
     65          6           0      -15.569948    1.358062    2.347365
     66          6           0      -15.464069    1.910916   -0.063375
     67          1           0        3.789497    0.664696   -4.396166
     68          1           0        4.438322    5.543814   -0.201341
     69          1           0        4.157025    1.351280    4.688165
     70          1           0        3.882845   -3.626307   -2.065103
     71          1           0        3.224103   -1.867739   -4.127428
     72          1           0        5.176601   -2.146920   -4.857144
     73          1           0        5.626661   -2.993922   -3.301641
     74          1           0        6.141125   -1.306045   -3.574526
     75          1           0        1.528471   -2.421552   -3.031698
     76          1           0        1.563515   -2.058472   -1.330600
     77          1           0        2.174760   -4.891593   -1.765059
     78          1           0        0.750102   -4.614376   -2.721032
     79          1           0        2.739375    4.017059   -5.518779
     80          1           0        3.253503    2.333138   -5.390369
     81          1           0        4.414917    3.608556   -5.681357
     82          1           0        3.805709    7.056629   -1.369504
     83          1           0        4.537500    7.932207   -2.727139
     84          1           0        5.530329    6.846690   -1.949025
     85          1           0        4.182579    5.751080    2.438431
     86          1           0        5.155091    3.742632    4.237418
     87          1           0        6.408829    6.131779    2.021143
     88          1           0        6.754291    4.332703    1.897101
     89          1           0        6.538895    5.116207    3.431755
     90          1           0        2.191916    3.642736    4.546516
     91          1           0        2.745911    5.148750    3.906230
     92          1           0        2.961166    5.865990    6.041637
     93          1           0        4.306460    4.751488    6.191763
     94          1           0        2.643783    4.164653    6.538748
     95          1           0        3.661105   -0.505314    5.599618
     96          1           0        5.155065   -1.438326    5.551875
     97          1           0        3.625264   -2.334145    5.443143
     98          1           0        3.358654   -4.315264    0.696436
     99          1           0        6.933670   -6.209862   -1.169866
    100          1           0        6.101038   -7.570047   -0.455115
    101          1           0        7.100677   -6.580580    0.516498
    102          1           0       -1.085357   -3.447156    1.264870
    103          1           0       -1.804162   -4.984185    0.588636
    104          1           0       -3.043318   -2.269524    0.750836
    105          1           0       -2.819996   -5.271667   -1.549477
    106          1           0       -3.970199   -4.654851   -2.663002
    107          1           0       -4.703282   -5.326416   -1.266393
    108          1           0       -5.407533   -2.169048   -0.073424
    109          1           0       -5.960679   -3.132570   -1.363894
    110          1           0       -5.622997   -1.496084   -2.787376
    111          1           0       -4.027253   -1.959409   -2.840539
    112          1           0       -3.441015    0.230789   -2.178271
    113          1           0       -4.255706   -0.096221   -0.663044
    114          1           0       -6.205669    0.564286   -2.741436
    115          1           0       -5.470871    2.408783   -3.471700
    116          1           0       -4.071966    2.294385   -2.521103
    117          1           0       -5.566982    3.042557   -1.813650
    118          1           0       -6.347169    1.989741   -0.033528
    119          1           0       -6.185045    0.327159    0.150381
    120          1           0       -8.104135    0.514322   -1.970651
    121          1           0       -8.551591    1.855255   -0.838655
    122          1           0       -8.164617   -0.908473    0.313035
    123          1           0       -9.363353   -0.874537   -0.856104
    124          1           0      -10.210505    1.390482    0.508769
    125          1           0      -10.190244   -0.024441    2.956652
    126          1           0       -9.358146    1.440114    2.547617
    127          1           0       -8.528663   -0.049251    2.413000
    128          1           0      -11.856957   -0.620431    1.555991
    129          1           0      -11.239524   -1.323457    0.086271
    130          1           0      -13.122917   -0.141383   -0.644349
    131          1           0      -11.905849    1.152960   -0.660482
    132          1           0      -12.996315    2.288424    0.816964
    133          1           0      -13.063906    1.070617    2.115458
    134          1           0      -15.013478    0.014996    0.804617
    135          1           0      -15.724518    0.346083    2.719565
    136          1           0      -16.502270    1.869428    2.110366
    137          1           0      -14.977536    2.019943    2.979000
    138          1           0      -16.315428    1.249673   -0.229416
    139          1           0      -14.888369    1.891281   -0.988940
    140          1           0      -15.830169    2.841335    0.372115
 ---------------------------------------------------------------------

 SCF Done:  E(RB-LYP) =  -3007.35565771     A.U. after   21 cycles

 Excitation energies and oscillator strengths:

 Excited State   1:      Singlet-A      1.8248 eV  679.45 nm  f=0.2718  <S**2>=0.000
     244 -> 247       -0.14035
     245 -> 248       -0.19575
     246 -> 247        0.67317
     246 <- 247       -0.13820
 This state for optimization and/or second-order correction.
 Total Energy, E(TD-HF/TD-DFT) =  -3007.28859811
 Copying the excited state density for this state as the 1-particle RhoCI density.

 Excited State   2:      Singlet-A      1.9271 eV  643.36 nm  f=0.0175  <S**2>=0.000
     244 -> 247        0.64610
     245 -> 247        0.23829
     246 -> 247        0.13654

 Excited State   3:      Singlet-A      2.0653 eV  600.32 nm  f=0.0464  <S**2>=0.000
     243 -> 247       -0.11511
     244 -> 247       -0.23983
     245 -> 247        0.58012
     246 -> 248        0.28323

 Excited State   4:      Singlet-A      2.1615 eV  573.59 nm  f=0.0019  <S**2>=0.000
     243 -> 247        0.69677

 Excited State   5:      Singlet-A      2.4583 eV  504.36 nm  f=0.0000  <S**2>=0.000
     241 -> 247        0.68170
     242 -> 247        0.18656

 The electronic state is 1-A.
 Alpha  occ. eigenvalues --  -46.27051 -18.82568 -18.82317 -18.76980 -18.76617
 Alpha  occ. eigenvalues --  -18.75871 -18.75038 -14.03177 -14.03119 -14.00866
 Alpha  occ. eigenvalues --  -14.00733 -10.04228 -10.04104  -9.99937  -9.98781
 Alpha  occ. eigenvalues --   -9.97723  -9.97150  -9.96600  -9.96537  -9.96191
 Alpha  occ. eigenvalues --   -9.96142  -9.96111  -9.95283  -9.95270  -9.94173
 Alpha  occ. eigenvalues --   -9.94061  -9.94055  -9.94013  -9.93949  -9.93907
 Alpha  occ. eigenvalues --   -9.93837  -9.93727  -9.93433  -9.93297  -9.93103
 Alpha  occ. eigenvalues --   -9.93096  -9.93078  -9.92807  -9.92746  -9.92709
 Alpha  occ. eigenvalues --   -9.92694  -9.92686  -9.92672  -9.92567  -9.92494
 Alpha  occ. eigenvalues --   -9.92296  -9.92260  -9.92060  -9.92056  -9.92042
 Alpha  occ. eigenvalues --   -9.92022  -9.91942  -9.91890  -9.91699  -9.91595
 Alpha  occ. eigenvalues --   -9.91582  -9.91409  -9.91393  -9.91130  -9.90901
 Alpha  occ. eigenvalues --   -9.90791  -9.90775  -9.90689  -9.90410  -9.90362
 Alpha  occ. eigenvalues --   -9.90339  -2.91757  -1.72156  -1.71666  -1.71459
 Alpha  occ. eigenvalues --   -0.97587  -0.96976  -0.93424  -0.90312  -0.89652
 Alpha  occ. eigenvalues --   -0.88311  -0.86920  -0.86482  -0.85076  -0.84519
 Alpha  occ. eigenvalues --   -0.75567  -0.73126  -0.72633  -0.72492  -0.72428
 Alpha  occ. eigenvalues --   -0.71860  -0.71712  -0.70856  -0.70541  -0.70476
 Alpha  occ. eigenvalues --   -0.69201  -0.68436  -0.68111  -0.67837  -0.67413
 Alpha  occ. eigenvalues --   -0.66602  -0.66232  -0.65228  -0.64970  -0.64630
 Alpha  occ. eigenvalues --   -0.64058  -0.62698  -0.62190  -0.61297  -0.60713
 Alpha  occ. eigenvalues --   -0.60343  -0.59824  -0.59723  -0.59555  -0.58881
 Alpha  occ. eigenvalues --   -0.58166  -0.57615  -0.57071  -0.55672  -0.54413
 Alpha  occ. eigenvalues --   -0.53699  -0.53634  -0.52358  -0.52259  -0.51674
 Alpha  occ. eigenvalues --   -0.51389  -0.51027  -0.50701  -0.50322  -0.49868
 Alpha  occ. eigenvalues --   -0.49748  -0.49484  -0.48656  -0.48238  -0.46559
 Alpha  occ. eigenvalues --   -0.46328  -0.46021  -0.45673  -0.45265  -0.44509
 Alpha  occ. eigenvalues --   -0.43996  -0.43880  -0.42954  -0.42790  -0.42472
 Alpha  occ. eigenvalues --   -0.41707  -0.41480  -0.40975  -0.40949  -0.40861
 Alpha  occ. eigenvalues --   -0.40623  -0.40454  -0.40354  -0.40279  -0.40118
 Alpha  occ. eigenvalues --   -0.39952  -0.39753  -0.39339  -0.39196  -0.39031
 Alpha  occ. eigenvalues --   -0.38931  -0.38742  -0.38631  -0.38354  -0.38223
 Alpha  occ. eigenvalues --   -0.38022  -0.37971  -0.37726  -0.37393  -0.37301
 Alpha  occ. eigenvalues --   -0.37076  -0.36831  -0.36636  -0.36570  -0.36348
 Alpha  occ. eigenvalues --   -0.36156  -0.36058  -0.35794  -0.35686  -0.35326
 Alpha  occ. eigenvalues --   -0.35320  -0.35247  -0.35123  -0.34840  -0.34575
 Alpha  occ. eigenvalues --   -0.34422  -0.34256  -0.34170  -0.34111  -0.33901
 Alpha  occ. eigenvalues --   -0.33674  -0.33586  -0.33381  -0.33158  -0.33099
 Alpha  occ. eigenvalues --   -0.33010  -0.32756  -0.32391  -0.32227  -0.32003
 Alpha  occ. eigenvalues --   -0.31958  -0.31865  -0.31703  -0.31527  -0.31255
 Alpha  occ. eigenvalues --   -0.31035  -0.30917  -0.30878  -0.30693  -0.30504
 Alpha  occ. eigenvalues --   -0.30345  -0.30229  -0.30101  -0.29948  -0.29865
 Alpha  occ. eigenvalues --   -0.29574  -0.29459  -0.29190  -0.29059  -0.29026
 Alpha  occ. eigenvalues --   -0.28815  -0.28737  -0.28304  -0.27993  -0.27922
 Alpha  occ. eigenvalues --   -0.27709  -0.26639  -0.26552  -0.26280  -0.26156
 Alpha  occ. eigenvalues --   -0.26033  -0.25714  -0.25663  -0.25460  -0.25123
 Alpha  occ. eigenvalues --   -0.25078  -0.24921  -0.24496  -0.24197  -0.24035
 Alpha  occ. eigenvalues --   -0.23641  -0.22394  -0.21973  -0.21576  -0.20582
 Alpha  occ. eigenvalues --   -0.20284  -0.20210  -0.19112  -0.18216  -0.17380
 Alpha  occ. eigenvalues --   -0.15669
 Alpha virt. eigenvalues --   -0.11247  -0.07093  -0.05832  -0.04367  -0.03249
 Alpha virt. eigenvalues --   -0.03134  -0.03041  -0.02835  -0.01805   0.00232
 Alpha virt. eigenvalues --    0.01049   0.01696   0.02425   0.02535   0.02730

 Mulliken charges:
               1
     1  Mg   0.685897
     2  C    0.013205
     3  C   -0.080026
     4  C   -0.031449
     5  C   -0.080496
     6  N   -0.192062
     7  C   -0.130225
     8  C   -0.015578
     9  C   -0.006955
    10  C    0.003882
    11  C    0.164913
    12  C    0.147636
    13  C    0.123560
    14  C    0.083795
    15  O   -0.224743
    16  O   -0.264530
    17  N   -0.342345
    18  C    0.193862
    19  C   -0.146043
    20  C   -0.000903
    21  C    0.102388
    22  C    0.175583
    23  C   -0.072016
    24  O   -0.126565
    25  C    0.142505
    26  N   -0.195969
    27  C    0.032518
    28  C    0.021519
    29  C    0.019590
    30  C    0.033965
    31  C    0.119540
    32  C    0.078239
    33  C    0.083638
    34  N   -0.255240
    35  C    0.102914
    36  C   -0.201004
    37  C    0.116471
    38  C    0.109967
    39  C    0.196007
    40  C   -0.082139
    41  O   -0.144065
    42  C    0.106987
    43  C    0.130369
    44  O   -0.181639
    45  O   -0.261712
    46  C    0.225009
    47  C    0.323187
    48  C   -0.107637
    49  C   -0.123961
    50  C    0.137191
    51  C    0.135264
    52  C    0.061450
    53  C    0.096362
    54  C   -0.104125
    55  C    0.120081
    56  C    0.108193
    57  C    0.103890
    58  C    0.120042
    59  C   -0.077626
    60  C    0.087283
    61  C    0.081529
    62  C    0.041425
    63  C    0.122843
    64  C   -0.156480
    65  C    0.089850
    66  C    0.142010
    67  H   -0.060895
    68  H   -0.087888
    69  H   -0.062860
    70  H   -0.036192
    71  H   -0.040628
    72  H   -0.002983
    73  H   -0.004979
    74  H    0.007658
    75  H   -0.024267
    76  H   -0.001702
    77  H   -0.009441
    78  H    0.004150
    79  H    0.004583
    80  H   -0.033200
    81  H    0.000905
    82  H    0.023905
    83  H   -0.023417
    84  H    0.018064
    85  H   -0.029983
    86  H   -0.033368
    87  H    0.000185
    88  H   -0.004498
    89  H   -0.016108
    90  H   -0.011194
    91  H   -0.036814
    92  H   -0.002071
    93  H   -0.016702
    94  H   -0.002328
    95  H   -0.008474
    96  H    0.005708
    97  H    0.014795
    98  H   -0.004335
    99  H   -0.000078
   100  H    0.008171
   101  H    0.010355
   102  H   -0.012817
   103  H    0.019657
   104  H   -0.034755
   105  H    0.001107
   106  H   -0.012143
   107  H    0.006067
   108  H   -0.018323
   109  H   -0.037004
   110  H   -0.043204
   111  H   -0.032084
   112  H   -0.021539
   113  H   -0.037170
   114  H   -0.024982
   115  H   -0.022839
   116  H   -0.023225
   117  H   -0.020752
   118  H   -0.030301
   119  H   -0.035697
   120  H   -0.022295
   121  H   -0.017393
   122  H   -0.031236
   123  H   -0.047515
   124  H   -0.030207
   125  H   -0.015395
   126  H   -0.027095
   127  H   -0.027119
   128  H   -0.035141
   129  H   -0.042967
   130  H   -0.027141
   131  H   -0.030875
   132  H   -0.037439
   133  H   -0.025876
   134  H   -0.036771
   135  H   -0.007774
   136  H   -0.022041
   137  H   -0.008161
   138  H   -0.027953
   139  H   -0.018229
   140  H   -0.004475
 Sum of Mulliken charges =  -0.00000

 Dipole moment (field-independent basis, Debye):
    X=             -1.6056    Y=              2.7924    Z=             -1.0342  Tot=              3.3830
 Quadrupole moment (field-independent basis, Debye-Ang):
   XX=           -391.3751   YY=           -416.3800   ZZ=           -404.0155
   XY=             22.3087   XZ=              1.3576   YZ=             55.7557

 Normal termination of Gaussian 16 at Wed May  4 16:53:46 2022.
