 Gaussian 16, Revision A.03,
 Gaussian 16:  ES64L-G16RevA.03 25-Dec-2016

 -----------------------------------
 #p cam-b3lyp/Def2SVP td=(nstates=5)
 -----------------------------------

 ----------------------------------------------------
 step_1_chromophore_8 TDDFT with cam-b3lyp functional
 ----------------------------------------------------
 Symbolic Z-matrix:
 Charge =  0 Multiplicity = 1

                         Standard orientation:
 ---------------------------------------------------------------------
 Center     Atomic      Atomic             Coordinates (Angstroms)
 Number     Number       Type             X           Y           Z
 ---------------------------------------------------------------------
      1         12           0        4.394167    1.225056    0.007282
      2          6           0        4.173500   -2.261166    0.359197
      3          6           0        3.818528    0.834624   -3.318155
      4          6           0        4.187795    4.487579   -0.091429
      5          6           0        4.125779    1.315191    3.597024
      6          7           0        4.112467   -0.510202   -1.289599
      7          6           0        4.037253   -1.829927   -0.943908
      8          6           0        3.493377   -2.611435   -2.149227
      9          6           0        3.938727   -1.736593   -3.315849
     10          6           0        3.858502   -0.371402   -2.606091
     11          6           0        5.376097   -2.051967   -3.790342
     12          6           0        1.928868   -2.763104   -2.077248
     13          6           0        1.312361   -4.232796   -1.869598
     14          6           0        0.465585   -4.517872   -0.617491
     15          8           0        0.720260   -5.358326    0.287881
     16          8           0       -0.615098   -3.701428   -0.654265
     17          7           0        3.994024    2.488423   -1.483550
     18          6           0        3.805395    2.141304   -2.801595
     19          6           0        3.743978    3.342624   -3.573925
     20          6           0        3.966371    4.467893   -2.713058
     21          6           0        4.056866    3.863016   -1.352539
     22          6           0        3.512195    3.358394   -5.123743
     23          6           0        4.095078    5.958127   -3.195996
     24          8           0        4.102962    6.210036   -4.361576
     25          6           0        4.482496    6.969121   -2.219724
     26          7           0        3.866900    2.687103    1.533553
     27          6           0        4.240211    3.947383    1.207484
     28          6           0        4.667897    4.774988    2.407934
     29          6           0        4.292161    3.892679    3.588600
     30          6           0        4.066285    2.516100    2.872045
     31          6           0        6.200939    5.129206    2.394557
     32          6           0        3.057438    4.303921    4.521067
     33          6           0        3.252999    4.823307    5.920198
     34          7           0        4.397472   -0.124795    1.654644
     35          6           0        4.285617    0.045377    3.040570
     36          6           0        4.231568   -1.224565    3.731907
     37          6           0        4.214251   -2.146331    2.714153
     38          6           0        4.289974   -1.470376    1.451952
     39          6           0        4.127314   -1.401600    5.189544
     40          6           0        4.152281   -3.571761    2.429533
     41          8           0        4.169037   -4.532656    3.208723
     42          6           0        4.233207   -3.707119    0.923564
     43          6           0        5.504300   -4.487743    0.607346
     44          8           0        6.603645   -4.077004    0.971923
     45          8           0        5.216554   -5.721881    0.003980
     46          6           0        6.371325   -6.527251   -0.291318
     47          6           0       -1.590165   -3.927369    0.425768
     48          6           0       -2.857613   -3.160632    0.150897
     49          6           0       -3.831196   -3.496303   -0.749782
     50          6           0       -3.803880   -4.805964   -1.596694
     51          6           0       -5.063246   -2.634963   -0.996083
     52          6           0       -4.758912   -1.577848   -2.127558
     53          6           0       -4.385656   -0.100070   -1.745228
     54          6           0       -5.625222    0.931013   -1.895348
     55          6           0       -5.158445    2.249138   -2.439406
     56          6           0       -6.520947    1.062435   -0.580107
     57          6           0       -8.050581    0.893653   -0.949556
     58          6           0       -8.793155   -0.196672   -0.220999
     59          6           0       -9.942557    0.354678    0.716864
     60          6           0       -9.501840    0.407426    2.231229
     61          6           0      -11.336788   -0.383605    0.628701
     62          6           0      -12.483620    0.484678   -0.021921
     63          6           0      -13.282807    1.266070    1.065060
     64          6           0      -14.806873    1.072623    0.971679
     65          6           0      -15.569948    1.358062    2.347365
     66          6           0      -15.464069    1.910916   -0.063375
     67          1           0        3.789497    0.664696   -4.396166
     68          1           0        4.438322    5.543814   -0.201341
     69          1           0        4.157025    1.351280    4.688165
     70          1           0        3.882845   -3.626307   -2.065103
     71          1           0        3.224103   -1.867739   -4.127428
     72          1           0        5.176601   -2.146920   -4.857144
     73          1           0        5.626661   -2.993922   -3.301641
     74          1           0        6.141125   -1.306045   -3.574526
     75          1           0        1.528471   -2.421552   -3.031698
     76          1           0        1.563515   -2.058472   -1.330600
     77          1           0        2.174760   -4.891593   -1.765059
     78          1           0        0.750102   -4.614376   -2.721032
     79          1           0        2.739375    4.017059   -5.518779
     80          1           0        3.253503    2.333138   -5.390369
     81          1           0        4.414917    3.608556   -5.681357
     82          1           0        3.805709    7.056629   -1.369504
     83          1           0        4.537500    7.932207   -2.727139
     84          1           0        5.530329    6.846690   -1.949025
     85          1           0        4.182579    5.751080    2.438431
     86          1           0        5.155091    3.742632    4.237418
     87          1           0        6.408829    6.131779    2.021143
     88          1           0        6.754291    4.332703    1.897101
     89          1           0        6.538895    5.116207    3.431755
     90          1           0        2.191916    3.642736    4.546516
     91          1           0        2.745911    5.148750    3.906230
     92          1           0        2.961166    5.865990    6.041637
     93          1           0        4.306460    4.751488    6.191763
     94          1           0        2.643783    4.164653    6.538748
     95          1           0        3.661105   -0.505314    5.599618
     96          1           0        5.155065   -1.438326    5.551875
     97          1           0        3.625264   -2.334145    5.443143
     98          1           0        3.358654   -4.315264    0.696436
     99          1           0        6.933670   -6.209862   -1.169866
    100          1           0        6.101038   -7.570047   -0.455115
    101          1           0        7.100677   -6.580580    0.516498
    102          1           0       -1.085357   -3.447156    1.264870
    103          1           0       -1.804162   -4.984185    0.588636
    104          1           0       -3.043318   -2.269524    0.750836
    105          1           0       -2.819996   -5.271667   -1.549477
    106          1           0       -3.970199   -4.654851   -2.663002
    107          1           0       -4.703282   -5.326416   -1.266393
    108          1           0       -5.407533   -2.169048   -0.073424
    109          1           0       -5.960679   -3.132570   -1.363894
    110          1           0       -5.622997   -1.496084   -2.787376
    111          1           0       -4.027253   -1.959409   -2.840539
    112          1           0       -3.441015    0.230789   -2.178271
    113          1           0       -4.255706   -0.096221   -0.663044
    114          1           0       -6.205669    0.564286   -2.741436
    115          1           0       -5.470871    2.408783   -3.471700
    116          1           0       -4.071966    2.294385   -2.521103
    117          1           0       -5.566982    3.042557   -1.813650
    118          1           0       -6.347169    1.989741   -0.033528
    119          1           0       -6.185045    0.327159    0.150381
    120          1           0       -8.104135    0.514322   -1.970651
    121          1           0       -8.551591    1.855255   -0.838655
    122          1           0       -8.164617   -0.908473    0.313035
    123          1           0       -9.363353   -0.874537   -0.856104
    124          1           0      -10.210505    1.390482    0.508769
    125          1           0      -10.190244   -0.024441    2.956652
    126          1           0       -9.358146    1.440114    2.547617
    127          1           0       -8.528663   -0.049251    2.413000
    128          1           0      -11.856957   -0.620431    1.555991
    129          1           0      -11.239524   -1.323457    0.086271
    130          1           0      -13.122917   -0.141383   -0.644349
    131          1           0      -11.905849    1.152960   -0.660482
    132          1           0      -12.996315    2.288424    0.816964
    133          1           0      -13.063906    1.070617    2.115458
    134          1           0      -15.013478    0.014996    0.804617
    135          1           0      -15.724518    0.346083    2.719565
    136          1           0      -16.502270    1.869428    2.110366
    137          1           0      -14.977536    2.019943    2.979000
    138          1           0      -16.315428    1.249673   -0.229416
    139          1           0      -14.888369    1.891281   -0.988940
    140          1           0      -15.830169    2.841335    0.372115
 ---------------------------------------------------------------------

 SCF Done:  E(RCAM-B3LYP) =  -3007.14328432     A.U. after   17 cycles

 Excitation energies and oscillator strengths:

 Excited State   1:      Singlet-A      1.7280 eV  717.51 nm  f=0.3472  <S**2>=0.000
     245 -> 248       -0.19218
     246 -> 247        0.68288
     245 <- 248       -0.11104
 This state for optimization and/or second-order correction.
 Total Energy, E(TD-HF/TD-DFT) =  -3007.07978268
 Copying the excited state density for this state as the 1-particle RhoCI density.

 Excited State   2:      Singlet-A      2.2837 eV  542.90 nm  f=0.0507  <S**2>=0.000
     245 -> 247        0.60396
     246 -> 248        0.35741

 Excited State   3:      Singlet-A      3.4277 eV  361.71 nm  f=0.4093  <S**2>=0.000
     241 -> 247       -0.31727
     241 -> 249       -0.15743
     243 -> 247       -0.16367
     244 -> 247       -0.10659
     245 -> 247       -0.26186
     246 -> 248        0.49685

 Excited State   4:      Singlet-A      3.4560 eV  358.76 nm  f=0.1005  <S**2>=0.000
     241 -> 247        0.39302
     241 -> 249        0.25364
     241 -> 250       -0.11584
     241 -> 251        0.14009
     243 -> 247       -0.35983
     244 -> 247        0.13389
     245 -> 247       -0.12510
     246 -> 248        0.23871

 Excited State   5:      Singlet-A      3.4920 eV  355.05 nm  f=0.0032  <S**2>=0.000
     241 -> 247       -0.19768
     243 -> 247       -0.10287
     244 -> 247        0.64741

 The electronic state is 1-A.
 Alpha  occ. eigenvalues --  -46.88604 -19.25564 -19.25213 -19.20183 -19.19582
 Alpha  occ. eigenvalues --  -19.19029 -19.18371 -14.42050 -14.42027 -14.39302
 Alpha  occ. eigenvalues --  -14.39233 -10.39836 -10.39491 -10.34992 -10.34183
 Alpha  occ. eigenvalues --  -10.31824 -10.31110 -10.31074 -10.31032 -10.30776
 Alpha  occ. eigenvalues --  -10.30553 -10.30469 -10.29709 -10.29430 -10.28472
 Alpha  occ. eigenvalues --  -10.28286 -10.28097 -10.28022 -10.27990 -10.27911
 Alpha  occ. eigenvalues --  -10.27900 -10.27891 -10.27724 -10.27713 -10.27667
 Alpha  occ. eigenvalues --  -10.27398 -10.26835 -10.26812 -10.26802 -10.26790
 Alpha  occ. eigenvalues --  -10.26783 -10.26534 -10.26407 -10.26400 -10.26210
 Alpha  occ. eigenvalues --  -10.26081 -10.26040 -10.25951 -10.25838 -10.25779
 Alpha  occ. eigenvalues --  -10.25710 -10.25665 -10.25585 -10.25463 -10.25253
 Alpha  occ. eigenvalues --  -10.25212 -10.25116 -10.25045 -10.24967 -10.24818
 Alpha  occ. eigenvalues --  -10.24529 -10.24491 -10.24432 -10.24005 -10.23901
 Alpha  occ. eigenvalues --  -10.23837  -3.17214  -1.92089  -1.91685  -1.91513
 Alpha  occ. eigenvalues --   -1.15996  -1.15531  -1.11850  -1.08684  -1.07808
 Alpha  occ. eigenvalues --   -1.06160  -1.04726  -1.04204  -1.02739  -1.01983
 Alpha  occ. eigenvalues --   -0.92816  -0.89932  -0.89398  -0.89236  -0.89093
 Alpha  occ. eigenvalues --   -0.88518  -0.88406  -0.87541  -0.87084  -0.87011
 Alpha  occ. eigenvalues --   -0.85561  -0.84910  -0.84346  -0.84082  -0.83633
 Alpha  occ. eigenvalues --   -0.82673  -0.82395  -0.81192  -0.80778  -0.80485
 Alpha  occ. eigenvalues --   -0.79837  -0.78377  -0.77739  -0.76839  -0.76200
 Alpha  occ. eigenvalues --   -0.75639  -0.75159  -0.75045  -0.74827  -0.74123
 Alpha  occ. eigenvalues --   -0.73202  -0.72622  -0.72027  -0.70496  -0.68979
 Alpha  occ. eigenvalues --   -0.68320  -0.68231  -0.66765  -0.66588  -0.65813
 Alpha  occ. eigenvalues --   -0.65540  -0.65202  -0.64813  -0.64278  -0.63826
 Alpha  occ. eigenvalues --   -0.63625  -0.63389  -0.62451  -0.62098  -0.60240
 Alpha  occ. eigenvalues --   -0.59961  -0.59514  -0.59023  -0.58735  -0.58213
 Alpha  occ. eigenvalues --   -0.57514  -0.57161  -0.56207  -0.55997  -0.55662
 Alpha  occ. eigenvalues --   -0.55011  -0.54647  -0.54046  -0.53733  -0.53545
 Alpha  occ. eigenvalues --   -0.53374  -0.53324  -0.53101  -0.52849  -0.52692
 Alpha  occ. eigenvalues --   -0.52550  -0.52435  -0.52114  -0.52004  -0.51626
 Alpha  occ. eigenvalues --   -0.51517  -0.51369  -0.51004  -0.50799  -0.50552
 Alpha  occ. eigenvalues --   -0.50350  -0.50150  -0.50048  -0.49910  -0.49594
 Alpha  occ. eigenvalues --   -0.49450  -0.49344  -0.49219  -0.49044  -0.48609
 Alpha  occ. eigenvalues --   -0.48378  -0.48221  -0.48047  -0.47945  -0.47674
 Alpha  occ. eigenvalues --   -0.47347  -0.47198  -0.47111  -0.46770  -0.46449
 Alpha  occ. eigenvalues --   -0.46310  -0.46191  -0.46117  -0.45975  -0.45584
 Alpha  occ. eigenvalues --   -0.45379  -0.45299  -0.45166  -0.45028  -0.44805
 Alpha  occ. eigenvalues --   -0.44752  -0.44318  -0.44111  -0.44030  -0.43718
 Alpha  occ. eigenvalues --   -0.43613  -0.43387  -0.43320  -0.43128  -0.42706
 Alpha  occ. eigenvalues --   -0.42579  -0.42424  -0.42220  -0.42166  -0.41980
 Alpha  occ. eigenvalues --   -0.41903  -0.41749  -0.41596  -0.41466  -0.41257
 Alpha  occ. eigenvalues --   -0.40998  -0.40767  -0.40375  -0.40343  -0.40093
 Alpha  occ. eigenvalues --   -0.39900  -0.39760  -0.39242  -0.38924  -0.38908
 Alpha  occ. eigenvalues --   -0.38594  -0.37858  -0.37425  -0.37007  -0.36901
 Alpha  occ. eigenvalues --   -0.36846  -0.36773  -0.36465  -0.36258  -0.36243
 Alpha  occ. eigenvalues --   -0.36078  -0.35681  -0.34982  -0.34645  -0.34568
 Alpha  occ. eigenvalues --   -0.34489  -0.33808  -0.33343  -0.31324  -0.31117
 Alpha  occ. eigenvalues --   -0.30561  -0.30222  -0.29979  -0.29565  -0.24292
 Alpha  occ. eigenvalues --   -0.20913
 Alpha virt. eigenvalues --   -0.08200  -0.02149   0.00682   0.01934   0.02881
 Alpha virt. eigenvalues --    0.04318   0.04560   0.04725   0.05332   0.07109
 Alpha virt. eigenvalues --    0.07814   0.08381   0.08751   0.08918   0.09061

 Mulliken charges:
               1
     1  Mg   0.818568
     2  C   -0.031758
     3  C   -0.090207
     4  C   -0.046622
     5  C   -0.088113
     6  N   -0.260859
     7  C   -0.075904
     8  C   -0.069163
     9  C   -0.061464
    10  C    0.016129
    11  C    0.108665
    12  C    0.095092
    13  C    0.059593
    14  C    0.159673
    15  O   -0.268058
    16  O   -0.325410
    17  N   -0.432356
    18  C    0.195638
    19  C   -0.155577
    20  C   -0.066522
    21  C    0.128792
    22  C    0.128515
    23  C    0.011233
    24  O   -0.165711
    25  C    0.047208
    26  N   -0.261043
    27  C    0.045298
    28  C   -0.043608
    29  C   -0.029944
    30  C    0.050235
    31  C    0.066876
    32  C    0.022846
    33  C    0.021421
    34  N   -0.342443
    35  C    0.111970
    36  C   -0.194450
    37  C    0.034000
    38  C    0.151472
    39  C    0.142272
    40  C    0.023044
    41  O   -0.181297
    42  C    0.036683
    43  C    0.219720
    44  O   -0.217945
    45  O   -0.326191
    46  C    0.181692
    47  C    0.284527
    48  C   -0.129493
    49  C   -0.145727
    50  C    0.080296
    51  C    0.075484
    52  C    0.009050
    53  C    0.045975
    54  C   -0.157907
    55  C    0.062957
    56  C    0.055731
    57  C    0.045561
    58  C    0.068481
    59  C   -0.135076
    60  C    0.034101
    61  C    0.032379
    62  C   -0.012021
    63  C    0.063550
    64  C   -0.207869
    65  C    0.030747
    66  C    0.075431
    67  H   -0.024944
    68  H   -0.052955
    69  H   -0.027381
    70  H   -0.002742
    71  H   -0.003900
    72  H    0.020197
    73  H    0.017821
    74  H    0.033420
    75  H    0.007535
    76  H    0.030735
    77  H    0.021772
    78  H    0.036209
    79  H    0.031569
    80  H   -0.009802
    81  H    0.027556
    82  H    0.050146
    83  H    0.014288
    84  H    0.046875
    85  H    0.006212
    86  H    0.001346
    87  H    0.023606
    88  H    0.019770
    89  H    0.008110
    90  H    0.018877
    91  H   -0.007989
    92  H    0.021731
    93  H    0.005839
    94  H    0.020074
    95  H    0.015145
    96  H    0.033965
    97  H    0.042889
    98  H    0.038160
    99  H    0.021752
   100  H    0.032241
   101  H    0.035518
   102  H    0.019018
   103  H    0.048467
   104  H   -0.002683
   105  H    0.023247
   106  H    0.012039
   107  H    0.029516
   108  H    0.008536
   109  H   -0.004464
   110  H   -0.014932
   111  H   -0.002709
   112  H    0.008442
   113  H   -0.011708
   114  H    0.004375
   115  H    0.001604
   116  H    0.001375
   117  H    0.002753
   118  H   -0.000985
   119  H   -0.010602
   120  H    0.006229
   121  H    0.010401
   122  H   -0.005151
   123  H   -0.016844
   124  H   -0.000529
   125  H    0.008291
   126  H   -0.003043
   127  H   -0.004128
   128  H   -0.007003
   129  H   -0.013814
   130  H    0.001442
   131  H   -0.003508
   132  H   -0.008007
   133  H    0.001122
   134  H   -0.006157
   135  H    0.015588
   136  H    0.002898
   137  H    0.015470
   138  H   -0.002312
   139  H    0.006349
   140  H    0.019605
 Sum of Mulliken charges =  -0.00000

 Dipole moment (field-independent basis, Debye):
    X=             -1.5278    Y=              2.9432    Z=             -1.0454  Tot=              3.4770
 Quadrupole moment (field-independent basis, Debye-Ang):
   XX=           -390.4547   YY=           -413.2949   ZZ=           -401.9016
   XY=             23.5127   XZ=              1.3168   YZ=             57.7904

 Normal termination of Gaussian 16 at Wed May  4 15:54:47 2022.
