 Gaussian 16, Revision A.03,
 Gaussian 16:  ES64L-G16RevA.03 25-Dec-2016

 ---------------------------------
 #p PBE1PBE/Def2SVP td=(nstates=5)
 ---------------------------------

 --------------------------------------------------
 step_1_chromophore_8 TDDFT with PBE1PBE functional
 --------------------------------------------------
 Symbolic Z-matrix:
 Charge =  0 Multiplicity = 1

                         Standard orientation:
 ---------------------------------------------------------------------
 Center     Atomic      Atomic             Coordinates (Angstroms)
 Number     Number       Type             X           Y           Z
 ---------------------------------------------------------------------
      1         12           0        4.394167    1.225056    0.007282
      2          6           0        4.173500   -2.261166    0.359197
      3          6           0        3.818528    0.834624   -3.318155
      4          6           0        4.187795    4.487579   -0.091429
      5          6           0        4.125779    1.315191    3.597024
      6          7           0        4.112467   -0.510202   -1.289599
      7          6           0        4.037253   -1.829927   -0.943908
      8          6           0        3.493377   -2.611435   -2.149227
      9          6           0        3.938727   -1.736593   -3.315849
     10          6           0        3.858502   -0.371402   -2.606091
     11          6           0        5.376097   -2.051967   -3.790342
     12          6           0        1.928868   -2.763104   -2.077248
     13          6           0        1.312361   -4.232796   -1.869598
     14          6           0        0.465585   -4.517872   -0.617491
     15          8           0        0.720260   -5.358326    0.287881
     16          8           0       -0.615098   -3.701428   -0.654265
     17          7           0        3.994024    2.488423   -1.483550
     18          6           0        3.805395    2.141304   -2.801595
     19          6           0        3.743978    3.342624   -3.573925
     20          6           0        3.966371    4.467893   -2.713058
     21          6           0        4.056866    3.863016   -1.352539
     22          6           0        3.512195    3.358394   -5.123743
     23          6           0        4.095078    5.958127   -3.195996
     24          8           0        4.102962    6.210036   -4.361576
     25          6           0        4.482496    6.969121   -2.219724
     26          7           0        3.866900    2.687103    1.533553
     27          6           0        4.240211    3.947383    1.207484
     28          6           0        4.667897    4.774988    2.407934
     29          6           0        4.292161    3.892679    3.588600
     30          6           0        4.066285    2.516100    2.872045
     31          6           0        6.200939    5.129206    2.394557
     32          6           0        3.057438    4.303921    4.521067
     33          6           0        3.252999    4.823307    5.920198
     34          7           0        4.397472   -0.124795    1.654644
     35          6           0        4.285617    0.045377    3.040570
     36          6           0        4.231568   -1.224565    3.731907
     37          6           0        4.214251   -2.146331    2.714153
     38          6           0        4.289974   -1.470376    1.451952
     39          6           0        4.127314   -1.401600    5.189544
     40          6           0        4.152281   -3.571761    2.429533
     41          8           0        4.169037   -4.532656    3.208723
     42          6           0        4.233207   -3.707119    0.923564
     43          6           0        5.504300   -4.487743    0.607346
     44          8           0        6.603645   -4.077004    0.971923
     45          8           0        5.216554   -5.721881    0.003980
     46          6           0        6.371325   -6.527251   -0.291318
     47          6           0       -1.590165   -3.927369    0.425768
     48          6           0       -2.857613   -3.160632    0.150897
     49          6           0       -3.831196   -3.496303   -0.749782
     50          6           0       -3.803880   -4.805964   -1.596694
     51          6           0       -5.063246   -2.634963   -0.996083
     52          6           0       -4.758912   -1.577848   -2.127558
     53          6           0       -4.385656   -0.100070   -1.745228
     54          6           0       -5.625222    0.931013   -1.895348
     55          6           0       -5.158445    2.249138   -2.439406
     56          6           0       -6.520947    1.062435   -0.580107
     57          6           0       -8.050581    0.893653   -0.949556
     58          6           0       -8.793155   -0.196672   -0.220999
     59          6           0       -9.942557    0.354678    0.716864
     60          6           0       -9.501840    0.407426    2.231229
     61          6           0      -11.336788   -0.383605    0.628701
     62          6           0      -12.483620    0.484678   -0.021921
     63          6           0      -13.282807    1.266070    1.065060
     64          6           0      -14.806873    1.072623    0.971679
     65          6           0      -15.569948    1.358062    2.347365
     66          6           0      -15.464069    1.910916   -0.063375
     67          1           0        3.789497    0.664696   -4.396166
     68          1           0        4.438322    5.543814   -0.201341
     69          1           0        4.157025    1.351280    4.688165
     70          1           0        3.882845   -3.626307   -2.065103
     71          1           0        3.224103   -1.867739   -4.127428
     72          1           0        5.176601   -2.146920   -4.857144
     73          1           0        5.626661   -2.993922   -3.301641
     74          1           0        6.141125   -1.306045   -3.574526
     75          1           0        1.528471   -2.421552   -3.031698
     76          1           0        1.563515   -2.058472   -1.330600
     77          1           0        2.174760   -4.891593   -1.765059
     78          1           0        0.750102   -4.614376   -2.721032
     79          1           0        2.739375    4.017059   -5.518779
     80          1           0        3.253503    2.333138   -5.390369
     81          1           0        4.414917    3.608556   -5.681357
     82          1           0        3.805709    7.056629   -1.369504
     83          1           0        4.537500    7.932207   -2.727139
     84          1           0        5.530329    6.846690   -1.949025
     85          1           0        4.182579    5.751080    2.438431
     86          1           0        5.155091    3.742632    4.237418
     87          1           0        6.408829    6.131779    2.021143
     88          1           0        6.754291    4.332703    1.897101
     89          1           0        6.538895    5.116207    3.431755
     90          1           0        2.191916    3.642736    4.546516
     91          1           0        2.745911    5.148750    3.906230
     92          1           0        2.961166    5.865990    6.041637
     93          1           0        4.306460    4.751488    6.191763
     94          1           0        2.643783    4.164653    6.538748
     95          1           0        3.661105   -0.505314    5.599618
     96          1           0        5.155065   -1.438326    5.551875
     97          1           0        3.625264   -2.334145    5.443143
     98          1           0        3.358654   -4.315264    0.696436
     99          1           0        6.933670   -6.209862   -1.169866
    100          1           0        6.101038   -7.570047   -0.455115
    101          1           0        7.100677   -6.580580    0.516498
    102          1           0       -1.085357   -3.447156    1.264870
    103          1           0       -1.804162   -4.984185    0.588636
    104          1           0       -3.043318   -2.269524    0.750836
    105          1           0       -2.819996   -5.271667   -1.549477
    106          1           0       -3.970199   -4.654851   -2.663002
    107          1           0       -4.703282   -5.326416   -1.266393
    108          1           0       -5.407533   -2.169048   -0.073424
    109          1           0       -5.960679   -3.132570   -1.363894
    110          1           0       -5.622997   -1.496084   -2.787376
    111          1           0       -4.027253   -1.959409   -2.840539
    112          1           0       -3.441015    0.230789   -2.178271
    113          1           0       -4.255706   -0.096221   -0.663044
    114          1           0       -6.205669    0.564286   -2.741436
    115          1           0       -5.470871    2.408783   -3.471700
    116          1           0       -4.071966    2.294385   -2.521103
    117          1           0       -5.566982    3.042557   -1.813650
    118          1           0       -6.347169    1.989741   -0.033528
    119          1           0       -6.185045    0.327159    0.150381
    120          1           0       -8.104135    0.514322   -1.970651
    121          1           0       -8.551591    1.855255   -0.838655
    122          1           0       -8.164617   -0.908473    0.313035
    123          1           0       -9.363353   -0.874537   -0.856104
    124          1           0      -10.210505    1.390482    0.508769
    125          1           0      -10.190244   -0.024441    2.956652
    126          1           0       -9.358146    1.440114    2.547617
    127          1           0       -8.528663   -0.049251    2.413000
    128          1           0      -11.856957   -0.620431    1.555991
    129          1           0      -11.239524   -1.323457    0.086271
    130          1           0      -13.122917   -0.141383   -0.644349
    131          1           0      -11.905849    1.152960   -0.660482
    132          1           0      -12.996315    2.288424    0.816964
    133          1           0      -13.063906    1.070617    2.115458
    134          1           0      -15.013478    0.014996    0.804617
    135          1           0      -15.724518    0.346083    2.719565
    136          1           0      -16.502270    1.869428    2.110366
    137          1           0      -14.977536    2.019943    2.979000
    138          1           0      -16.315428    1.249673   -0.229416
    139          1           0      -14.888369    1.891281   -0.988940
    140          1           0      -15.830169    2.841335    0.372115
 ---------------------------------------------------------------------

 SCF Done:  E(RPBE1PBE) =  -3005.33200728     A.U. after   15 cycles

 Excitation energies and oscillator strengths:

 Excited State   1:      Singlet-A      1.8827 eV  658.53 nm  f=0.3400  <S**2>=0.000
     245 -> 248       -0.18394
     246 -> 247        0.68978
 This state for optimization and/or second-order correction.
 Total Energy, E(TD-HF/TD-DFT) =  -3005.26281804
 Copying the excited state density for this state as the 1-particle RhoCI density.

 Excited State   2:      Singlet-A      2.2940 eV  540.47 nm  f=0.0572  <S**2>=0.000
     245 -> 247        0.62223
     246 -> 248        0.32442

 Excited State   3:      Singlet-A      2.9756 eV  416.67 nm  f=0.0006  <S**2>=0.000
     241 -> 247        0.17728
     243 -> 247        0.51495
     243 -> 249        0.14674
     244 -> 247        0.38839

 Excited State   4:      Singlet-A      3.1258 eV  396.64 nm  f=0.0005  <S**2>=0.000
     243 -> 247       -0.39433
     244 -> 247        0.57147

 Excited State   5:      Singlet-A      3.2150 eV  385.64 nm  f=0.0942  <S**2>=0.000
     241 -> 247        0.52858
     243 -> 247       -0.17756
     245 -> 247        0.13326
     246 -> 248       -0.39279

 The electronic state is 1-A.
 Alpha  occ. eigenvalues --  -46.91981 -19.26194 -19.25840 -19.20368 -19.19863
 Alpha  occ. eigenvalues --  -19.19244 -19.18522 -14.41541 -14.41526 -14.38985
 Alpha  occ. eigenvalues --  -14.38860 -10.36840 -10.36499 -10.32148 -10.31258
 Alpha  occ. eigenvalues --  -10.29151 -10.28779 -10.28773 -10.28452 -10.28306
 Alpha  occ. eigenvalues --  -10.28292 -10.28251 -10.27322 -10.27181 -10.26061
 Alpha  occ. eigenvalues --  -10.25936 -10.25911 -10.25864 -10.25786 -10.25719
 Alpha  occ. eigenvalues --  -10.25502 -10.25456 -10.25403 -10.25341 -10.25211
 Alpha  occ. eigenvalues --  -10.25125 -10.24654 -10.24452 -10.24444 -10.24405
 Alpha  occ. eigenvalues --  -10.24303 -10.24076 -10.24029 -10.23775 -10.23774
 Alpha  occ. eigenvalues --  -10.23709 -10.23520 -10.23442 -10.23370 -10.23293
 Alpha  occ. eigenvalues --  -10.23289 -10.23176 -10.23074 -10.22952 -10.22851
 Alpha  occ. eigenvalues --  -10.22767 -10.22754 -10.22595 -10.22579 -10.22381
 Alpha  occ. eigenvalues --  -10.22086 -10.21978 -10.21955 -10.21396 -10.21263
 Alpha  occ. eigenvalues --  -10.21205  -3.14169  -1.86984  -1.86560  -1.86392
 Alpha  occ. eigenvalues --   -1.10767  -1.10261  -1.06638  -1.03352  -1.02573
 Alpha  occ. eigenvalues --   -1.00965  -0.99305  -0.98803  -0.97350  -0.96681
 Alpha  occ. eigenvalues --   -0.87128  -0.84033  -0.83551  -0.83401  -0.83372
 Alpha  occ. eigenvalues --   -0.82752  -0.82614  -0.81824  -0.81378  -0.81146
 Alpha  occ. eigenvalues --   -0.79759  -0.79225  -0.78568  -0.78325  -0.77806
 Alpha  occ. eigenvalues --   -0.76844  -0.76646  -0.75467  -0.75119  -0.74679
 Alpha  occ. eigenvalues --   -0.73985  -0.72613  -0.72045  -0.71149  -0.70489
 Alpha  occ. eigenvalues --   -0.69789  -0.69488  -0.69135  -0.68947  -0.68287
 Alpha  occ. eigenvalues --   -0.67555  -0.66970  -0.66481  -0.64784  -0.63339
 Alpha  occ. eigenvalues --   -0.62739  -0.62439  -0.61224  -0.60822  -0.60206
 Alpha  occ. eigenvalues --   -0.60015  -0.59426  -0.59341  -0.58845  -0.58085
 Alpha  occ. eigenvalues --   -0.57912  -0.57607  -0.56990  -0.56255  -0.54721
 Alpha  occ. eigenvalues --   -0.54511  -0.53877  -0.53624  -0.53344  -0.52651
 Alpha  occ. eigenvalues --   -0.52071  -0.51434  -0.50795  -0.50583  -0.50123
 Alpha  occ. eigenvalues --   -0.49508  -0.49054  -0.48608  -0.48332  -0.47997
 Alpha  occ. eigenvalues --   -0.47924  -0.47796  -0.47556  -0.47405  -0.47287
 Alpha  occ. eigenvalues --   -0.47054  -0.46873  -0.46711  -0.46506  -0.46136
 Alpha  occ. eigenvalues --   -0.46032  -0.45867  -0.45546  -0.45363  -0.45131
 Alpha  occ. eigenvalues --   -0.44988  -0.44667  -0.44637  -0.44473  -0.44214
 Alpha  occ. eigenvalues --   -0.44014  -0.43888  -0.43779  -0.43640  -0.43213
 Alpha  occ. eigenvalues --   -0.42990  -0.42854  -0.42619  -0.42573  -0.42280
 Alpha  occ. eigenvalues --   -0.42022  -0.41813  -0.41746  -0.41444  -0.41143
 Alpha  occ. eigenvalues --   -0.40878  -0.40865  -0.40800  -0.40706  -0.40227
 Alpha  occ. eigenvalues --   -0.40057  -0.39978  -0.39826  -0.39687  -0.39498
 Alpha  occ. eigenvalues --   -0.39370  -0.39085  -0.38827  -0.38797  -0.38505
 Alpha  occ. eigenvalues --   -0.38403  -0.38138  -0.38079  -0.37917  -0.37501
 Alpha  occ. eigenvalues --   -0.37313  -0.37233  -0.37053  -0.36917  -0.36852
 Alpha  occ. eigenvalues --   -0.36711  -0.36574  -0.36408  -0.36198  -0.36061
 Alpha  occ. eigenvalues --   -0.35894  -0.35712  -0.35290  -0.35235  -0.34890
 Alpha  occ. eigenvalues --   -0.34790  -0.34513  -0.34040  -0.33836  -0.33698
 Alpha  occ. eigenvalues --   -0.33341  -0.32836  -0.32242  -0.31918  -0.31835
 Alpha  occ. eigenvalues --   -0.31762  -0.31648  -0.31446  -0.31186  -0.31119
 Alpha  occ. eigenvalues --   -0.30938  -0.30533  -0.29905  -0.29831  -0.29529
 Alpha  occ. eigenvalues --   -0.29419  -0.28810  -0.28551  -0.26831  -0.26047
 Alpha  occ. eigenvalues --   -0.25631  -0.25496  -0.25227  -0.25149  -0.21171
 Alpha  occ. eigenvalues --   -0.18572
 Alpha virt. eigenvalues --   -0.10750  -0.05550  -0.03506  -0.01719  -0.00772
 Alpha virt. eigenvalues --   -0.00114   0.00009   0.00139   0.01008   0.03250
 Alpha virt. eigenvalues --    0.04035   0.04368   0.05325   0.05542   0.05608

 Mulliken charges:
               1
     1  Mg   0.965981
     2  C   -0.063966
     3  C   -0.082010
     4  C   -0.039463
     5  C   -0.073992
     6  N   -0.363462
     7  C    0.016338
     8  C   -0.156585
     9  C   -0.144129
    10  C    0.054832
    11  C    0.057030
    12  C    0.056390
    13  C   -0.014008
    14  C    0.217510
    15  O   -0.299325
    16  O   -0.351186
    17  N   -0.551023
    18  C    0.217523
    19  C   -0.178768
    20  C   -0.109374
    21  C    0.155648
    22  C    0.071359
    23  C    0.063981
    24  O   -0.201961
    25  C   -0.031192
    26  N   -0.356093
    27  C    0.071198
    28  C   -0.129408
    29  C   -0.095493
    30  C    0.080301
    31  C    0.012022
    32  C   -0.035472
    33  C   -0.050838
    34  N   -0.464980
    35  C    0.133323
    36  C   -0.214458
    37  C   -0.022470
    38  C    0.209709
    39  C    0.087018
    40  C    0.126043
    41  O   -0.227903
    42  C   -0.071418
    43  C    0.307948
    44  O   -0.250471
    45  O   -0.359162
    46  C    0.125989
    47  C    0.236610
    48  C   -0.136313
    49  C   -0.191056
    50  C    0.018146
    51  C    0.010538
    52  C   -0.048664
    53  C   -0.010869
    54  C   -0.241667
    55  C    0.007763
    56  C    0.004255
    57  C   -0.021942
    58  C    0.015306
    59  C   -0.220694
    60  C   -0.019872
    61  C   -0.018393
    62  C   -0.077807
    63  C    0.008574
    64  C   -0.295328
    65  C   -0.031828
    66  C    0.007697
    67  H    0.006658
    68  H   -0.017586
    69  H    0.003662
    70  H    0.036600
    71  H    0.030972
    72  H    0.047598
    73  H    0.046651
    74  H    0.060309
    75  H    0.039799
    76  H    0.062909
    77  H    0.053148
    78  H    0.066894
    79  H    0.058833
    80  H    0.018576
    81  H    0.055500
    82  H    0.074697
    83  H    0.043413
    84  H    0.074324
    85  H    0.041654
    86  H    0.038813
    87  H    0.050367
    88  H    0.048463
    89  H    0.036154
    90  H    0.049712
    91  H    0.027290
    92  H    0.048943
    93  H    0.033318
    94  H    0.047211
    95  H    0.041455
    96  H    0.062674
    97  H    0.069772
    98  H    0.080153
    99  H    0.044213
   100  H    0.054437
   101  H    0.057344
   102  H    0.047256
   103  H    0.073388
   104  H    0.026614
   105  H    0.051095
   106  H    0.039240
   107  H    0.057511
   108  H    0.040832
   109  H    0.027245
   110  H    0.017380
   111  H    0.030244
   112  H    0.038994
   113  H    0.023742
   114  H    0.041186
   115  H    0.028899
   116  H    0.028444
   117  H    0.030208
   118  H    0.030192
   119  H    0.021019
   120  H    0.038781
   121  H    0.041638
   122  H    0.026413
   123  H    0.016310
   124  H    0.037288
   125  H    0.034216
   126  H    0.024217
   127  H    0.022886
   128  H    0.026386
   129  H    0.018403
   130  H    0.032822
   131  H    0.030301
   132  H    0.025182
   133  H    0.031965
   134  H    0.031476
   135  H    0.043284
   136  H    0.030606
   137  H    0.042817
   138  H    0.027681
   139  H    0.035412
   140  H    0.047508
 Sum of Mulliken charges =  -0.00000

 Dipole moment (field-independent basis, Debye):
    X=             -1.4883    Y=              3.1025    Z=             -1.1107  Tot=              3.6158
 Quadrupole moment (field-independent basis, Debye-Ang):
   XX=           -387.0018   YY=           -409.8414   ZZ=           -397.3936
   XY=             24.3267   XZ=              1.2040   YZ=             58.8163

 Normal termination of Gaussian 16 at Wed May  4 16:14:12 2022.
