 Gaussian 16, Revision A.03,
 Gaussian 16:  ES64L-G16RevA.03 25-Dec-2016

 --------------------------------
 #p wB97XD/Def2SVP td=(nstates=5)
 --------------------------------

 -------------------------------------------------
 step_1_chromophore_8 TDDFT with wB97XD functional
 -------------------------------------------------
 Symbolic Z-matrix:
 Charge =  0 Multiplicity = 1

                         Standard orientation:
 ---------------------------------------------------------------------
 Center     Atomic      Atomic             Coordinates (Angstroms)
 Number     Number       Type             X           Y           Z
 ---------------------------------------------------------------------
      1         12           0        4.394167    1.225056    0.007282
      2          6           0        4.173500   -2.261166    0.359197
      3          6           0        3.818528    0.834624   -3.318155
      4          6           0        4.187795    4.487579   -0.091429
      5          6           0        4.125779    1.315191    3.597024
      6          7           0        4.112467   -0.510202   -1.289599
      7          6           0        4.037253   -1.829927   -0.943908
      8          6           0        3.493377   -2.611435   -2.149227
      9          6           0        3.938727   -1.736593   -3.315849
     10          6           0        3.858502   -0.371402   -2.606091
     11          6           0        5.376097   -2.051967   -3.790342
     12          6           0        1.928868   -2.763104   -2.077248
     13          6           0        1.312361   -4.232796   -1.869598
     14          6           0        0.465585   -4.517872   -0.617491
     15          8           0        0.720260   -5.358326    0.287881
     16          8           0       -0.615098   -3.701428   -0.654265
     17          7           0        3.994024    2.488423   -1.483550
     18          6           0        3.805395    2.141304   -2.801595
     19          6           0        3.743978    3.342624   -3.573925
     20          6           0        3.966371    4.467893   -2.713058
     21          6           0        4.056866    3.863016   -1.352539
     22          6           0        3.512195    3.358394   -5.123743
     23          6           0        4.095078    5.958127   -3.195996
     24          8           0        4.102962    6.210036   -4.361576
     25          6           0        4.482496    6.969121   -2.219724
     26          7           0        3.866900    2.687103    1.533553
     27          6           0        4.240211    3.947383    1.207484
     28          6           0        4.667897    4.774988    2.407934
     29          6           0        4.292161    3.892679    3.588600
     30          6           0        4.066285    2.516100    2.872045
     31          6           0        6.200939    5.129206    2.394557
     32          6           0        3.057438    4.303921    4.521067
     33          6           0        3.252999    4.823307    5.920198
     34          7           0        4.397472   -0.124795    1.654644
     35          6           0        4.285617    0.045377    3.040570
     36          6           0        4.231568   -1.224565    3.731907
     37          6           0        4.214251   -2.146331    2.714153
     38          6           0        4.289974   -1.470376    1.451952
     39          6           0        4.127314   -1.401600    5.189544
     40          6           0        4.152281   -3.571761    2.429533
     41          8           0        4.169037   -4.532656    3.208723
     42          6           0        4.233207   -3.707119    0.923564
     43          6           0        5.504300   -4.487743    0.607346
     44          8           0        6.603645   -4.077004    0.971923
     45          8           0        5.216554   -5.721881    0.003980
     46          6           0        6.371325   -6.527251   -0.291318
     47          6           0       -1.590165   -3.927369    0.425768
     48          6           0       -2.857613   -3.160632    0.150897
     49          6           0       -3.831196   -3.496303   -0.749782
     50          6           0       -3.803880   -4.805964   -1.596694
     51          6           0       -5.063246   -2.634963   -0.996083
     52          6           0       -4.758912   -1.577848   -2.127558
     53          6           0       -4.385656   -0.100070   -1.745228
     54          6           0       -5.625222    0.931013   -1.895348
     55          6           0       -5.158445    2.249138   -2.439406
     56          6           0       -6.520947    1.062435   -0.580107
     57          6           0       -8.050581    0.893653   -0.949556
     58          6           0       -8.793155   -0.196672   -0.220999
     59          6           0       -9.942557    0.354678    0.716864
     60          6           0       -9.501840    0.407426    2.231229
     61          6           0      -11.336788   -0.383605    0.628701
     62          6           0      -12.483620    0.484678   -0.021921
     63          6           0      -13.282807    1.266070    1.065060
     64          6           0      -14.806873    1.072623    0.971679
     65          6           0      -15.569948    1.358062    2.347365
     66          6           0      -15.464069    1.910916   -0.063375
     67          1           0        3.789497    0.664696   -4.396166
     68          1           0        4.438322    5.543814   -0.201341
     69          1           0        4.157025    1.351280    4.688165
     70          1           0        3.882845   -3.626307   -2.065103
     71          1           0        3.224103   -1.867739   -4.127428
     72          1           0        5.176601   -2.146920   -4.857144
     73          1           0        5.626661   -2.993922   -3.301641
     74          1           0        6.141125   -1.306045   -3.574526
     75          1           0        1.528471   -2.421552   -3.031698
     76          1           0        1.563515   -2.058472   -1.330600
     77          1           0        2.174760   -4.891593   -1.765059
     78          1           0        0.750102   -4.614376   -2.721032
     79          1           0        2.739375    4.017059   -5.518779
     80          1           0        3.253503    2.333138   -5.390369
     81          1           0        4.414917    3.608556   -5.681357
     82          1           0        3.805709    7.056629   -1.369504
     83          1           0        4.537500    7.932207   -2.727139
     84          1           0        5.530329    6.846690   -1.949025
     85          1           0        4.182579    5.751080    2.438431
     86          1           0        5.155091    3.742632    4.237418
     87          1           0        6.408829    6.131779    2.021143
     88          1           0        6.754291    4.332703    1.897101
     89          1           0        6.538895    5.116207    3.431755
     90          1           0        2.191916    3.642736    4.546516
     91          1           0        2.745911    5.148750    3.906230
     92          1           0        2.961166    5.865990    6.041637
     93          1           0        4.306460    4.751488    6.191763
     94          1           0        2.643783    4.164653    6.538748
     95          1           0        3.661105   -0.505314    5.599618
     96          1           0        5.155065   -1.438326    5.551875
     97          1           0        3.625264   -2.334145    5.443143
     98          1           0        3.358654   -4.315264    0.696436
     99          1           0        6.933670   -6.209862   -1.169866
    100          1           0        6.101038   -7.570047   -0.455115
    101          1           0        7.100677   -6.580580    0.516498
    102          1           0       -1.085357   -3.447156    1.264870
    103          1           0       -1.804162   -4.984185    0.588636
    104          1           0       -3.043318   -2.269524    0.750836
    105          1           0       -2.819996   -5.271667   -1.549477
    106          1           0       -3.970199   -4.654851   -2.663002
    107          1           0       -4.703282   -5.326416   -1.266393
    108          1           0       -5.407533   -2.169048   -0.073424
    109          1           0       -5.960679   -3.132570   -1.363894
    110          1           0       -5.622997   -1.496084   -2.787376
    111          1           0       -4.027253   -1.959409   -2.840539
    112          1           0       -3.441015    0.230789   -2.178271
    113          1           0       -4.255706   -0.096221   -0.663044
    114          1           0       -6.205669    0.564286   -2.741436
    115          1           0       -5.470871    2.408783   -3.471700
    116          1           0       -4.071966    2.294385   -2.521103
    117          1           0       -5.566982    3.042557   -1.813650
    118          1           0       -6.347169    1.989741   -0.033528
    119          1           0       -6.185045    0.327159    0.150381
    120          1           0       -8.104135    0.514322   -1.970651
    121          1           0       -8.551591    1.855255   -0.838655
    122          1           0       -8.164617   -0.908473    0.313035
    123          1           0       -9.363353   -0.874537   -0.856104
    124          1           0      -10.210505    1.390482    0.508769
    125          1           0      -10.190244   -0.024441    2.956652
    126          1           0       -9.358146    1.440114    2.547617
    127          1           0       -8.528663   -0.049251    2.413000
    128          1           0      -11.856957   -0.620431    1.555991
    129          1           0      -11.239524   -1.323457    0.086271
    130          1           0      -13.122917   -0.141383   -0.644349
    131          1           0      -11.905849    1.152960   -0.660482
    132          1           0      -12.996315    2.288424    0.816964
    133          1           0      -13.063906    1.070617    2.115458
    134          1           0      -15.013478    0.014996    0.804617
    135          1           0      -15.724518    0.346083    2.719565
    136          1           0      -16.502270    1.869428    2.110366
    137          1           0      -14.977536    2.019943    2.979000
    138          1           0      -16.315428    1.249673   -0.229416
    139          1           0      -14.888369    1.891281   -0.988940
    140          1           0      -15.830169    2.841335    0.372115
 ---------------------------------------------------------------------

 SCF Done:  E(RwB97XD) =  -3007.83998571     A.U. after   19 cycles

 Excitation energies and oscillator strengths:

 Excited State   1:      Singlet-A      1.6716 eV  741.69 nm  f=0.3452  <S**2>=0.000
     245 -> 248       -0.19793
     246 -> 247        0.68082
     245 <- 248       -0.12049
 This state for optimization and/or second-order correction.
 Total Energy, E(TD-HF/TD-DFT) =  -3007.77855403
 Copying the excited state density for this state as the 1-particle RhoCI density.

 Excited State   2:      Singlet-A      2.2270 eV  556.74 nm  f=0.0494  <S**2>=0.000
     245 -> 247        0.60285
     246 -> 248        0.35810

 Excited State   3:      Singlet-A      3.4335 eV  361.10 nm  f=0.4750  <S**2>=0.000
     241 -> 247       -0.26140
     241 -> 249       -0.11882
     243 -> 247       -0.21875
     245 -> 247       -0.27684
     246 -> 248        0.53086
     245 <- 247        0.10165

 Excited State   4:      Singlet-A      3.4731 eV  356.98 nm  f=0.0311  <S**2>=0.000
     241 -> 247        0.40341
     241 -> 249        0.29848
     241 -> 250       -0.17039
     243 -> 247       -0.35831
     243 -> 249       -0.14133
     244 -> 247        0.14582
     246 -> 248        0.13003

 Excited State   5:      Singlet-A      3.5187 eV  352.35 nm  f=0.0137  <S**2>=0.000
     241 -> 247       -0.20620
     243 -> 247       -0.10713
     244 -> 247        0.63242

 The electronic state is 1-A.
 Alpha  occ. eigenvalues --  -46.94943 -19.30820 -19.30420 -19.25155 -19.24532
 Alpha  occ. eigenvalues --  -19.23996 -19.23456 -14.46632 -14.46623 -14.43902
 Alpha  occ. eigenvalues --  -14.43855 -10.43735 -10.43300 -10.38907 -10.38224
 Alpha  occ. eigenvalues --  -10.35693 -10.35110 -10.35035 -10.34853 -10.34814
 Alpha  occ. eigenvalues --  -10.34581 -10.34481 -10.33753 -10.33425 -10.32483
 Alpha  occ. eigenvalues --  -10.32293 -10.32126 -10.32084 -10.32055 -10.31972
 Alpha  occ. eigenvalues --  -10.31939 -10.31840 -10.31834 -10.31790 -10.31697
 Alpha  occ. eigenvalues --  -10.31508 -10.30922 -10.30844 -10.30841 -10.30837
 Alpha  occ. eigenvalues --  -10.30661 -10.30456 -10.30323 -10.30230 -10.30064
 Alpha  occ. eigenvalues --  -10.30034 -10.29968 -10.29802 -10.29765 -10.29755
 Alpha  occ. eigenvalues --  -10.29639 -10.29525 -10.29462 -10.29370 -10.29180
 Alpha  occ. eigenvalues --  -10.29119 -10.29032 -10.29030 -10.28955 -10.28724
 Alpha  occ. eigenvalues --  -10.28416 -10.28349 -10.28334 -10.27815 -10.27696
 Alpha  occ. eigenvalues --  -10.27622  -3.20988  -1.94554  -1.94127  -1.93956
 Alpha  occ. eigenvalues --   -1.18167  -1.17730  -1.14034  -1.10927  -1.10046
 Alpha  occ. eigenvalues --   -1.08338  -1.06720  -1.06201  -1.04788  -1.04012
 Alpha  occ. eigenvalues --   -0.94822  -0.91722  -0.91181  -0.91047  -0.90945
 Alpha  occ. eigenvalues --   -0.90356  -0.90273  -0.89488  -0.89000  -0.88803
 Alpha  occ. eigenvalues --   -0.87422  -0.86838  -0.86204  -0.85979  -0.85470
 Alpha  occ. eigenvalues --   -0.84510  -0.84316  -0.83118  -0.82753  -0.82348
 Alpha  occ. eigenvalues --   -0.81650  -0.80284  -0.79657  -0.78776  -0.78143
 Alpha  occ. eigenvalues --   -0.77467  -0.77091  -0.76825  -0.76625  -0.75943
 Alpha  occ. eigenvalues --   -0.75143  -0.74570  -0.74008  -0.72409  -0.70894
 Alpha  occ. eigenvalues --   -0.70320  -0.70080  -0.68745  -0.68447  -0.67736
 Alpha  occ. eigenvalues --   -0.67500  -0.67051  -0.66806  -0.66293  -0.65647
 Alpha  occ. eigenvalues --   -0.65522  -0.65237  -0.64454  -0.63901  -0.62193
 Alpha  occ. eigenvalues --   -0.61948  -0.61402  -0.61003  -0.60727  -0.60188
 Alpha  occ. eigenvalues --   -0.59531  -0.58990  -0.58171  -0.57984  -0.57573
 Alpha  occ. eigenvalues --   -0.56967  -0.56555  -0.55993  -0.55683  -0.55413
 Alpha  occ. eigenvalues --   -0.55294  -0.55220  -0.55000  -0.54714  -0.54612
 Alpha  occ. eigenvalues --   -0.54477  -0.54283  -0.54058  -0.53915  -0.53566
 Alpha  occ. eigenvalues --   -0.53407  -0.53247  -0.52883  -0.52714  -0.52441
 Alpha  occ. eigenvalues --   -0.52275  -0.52010  -0.51977  -0.51787  -0.51513
 Alpha  occ. eigenvalues --   -0.51338  -0.51239  -0.51142  -0.50968  -0.50573
 Alpha  occ. eigenvalues --   -0.50274  -0.50136  -0.49905  -0.49863  -0.49542
 Alpha  occ. eigenvalues --   -0.49254  -0.49043  -0.49011  -0.48664  -0.48362
 Alpha  occ. eigenvalues --   -0.48152  -0.48131  -0.48034  -0.47881  -0.47461
 Alpha  occ. eigenvalues --   -0.47302  -0.47188  -0.47055  -0.46923  -0.46672
 Alpha  occ. eigenvalues --   -0.46595  -0.46231  -0.46053  -0.45938  -0.45649
 Alpha  occ. eigenvalues --   -0.45550  -0.45272  -0.45226  -0.45063  -0.44674
 Alpha  occ. eigenvalues --   -0.44441  -0.44383  -0.44138  -0.44024  -0.43906
 Alpha  occ. eigenvalues --   -0.43844  -0.43675  -0.43468  -0.43314  -0.43201
 Alpha  occ. eigenvalues --   -0.42949  -0.42663  -0.42286  -0.42244  -0.41941
 Alpha  occ. eigenvalues --   -0.41809  -0.41593  -0.41088  -0.40849  -0.40755
 Alpha  occ. eigenvalues --   -0.40418  -0.39790  -0.39264  -0.38958  -0.38846
 Alpha  occ. eigenvalues --   -0.38728  -0.38675  -0.38504  -0.38255  -0.38084
 Alpha  occ. eigenvalues --   -0.37906  -0.37518  -0.36812  -0.36649  -0.36487
 Alpha  occ. eigenvalues --   -0.36407  -0.35738  -0.35554  -0.33443  -0.33122
 Alpha  occ. eigenvalues --   -0.32563  -0.32229  -0.32142  -0.31726  -0.26217
 Alpha  occ. eigenvalues --   -0.22720
 Alpha virt. eigenvalues --   -0.06531  -0.00251   0.02789   0.04747   0.05292
 Alpha virt. eigenvalues --    0.06559   0.06731   0.06972   0.07763   0.09843
 Alpha virt. eigenvalues --    0.10792   0.10877   0.12045   0.12231   0.12286

 Mulliken charges:
               1
     1  Mg   0.956514
     2  C   -0.058928
     3  C   -0.097929
     4  C   -0.053320
     5  C   -0.095101
     6  N   -0.331356
     7  C   -0.025642
     8  C   -0.117188
     9  C   -0.112894
    10  C    0.037178
    11  C    0.061465
    12  C    0.057236
    13  C    0.005442
    14  C    0.207080
    15  O   -0.296832
    16  O   -0.351021
    17  N   -0.518511
    18  C    0.209685
    19  C   -0.173342
    20  C   -0.106550
    21  C    0.151119
    22  C    0.083710
    23  C    0.061690
    24  O   -0.197408
    25  C   -0.021185
    26  N   -0.326920
    27  C    0.062011
    28  C   -0.101887
    29  C   -0.070103
    30  C    0.070135
    31  C    0.021200
    32  C   -0.022264
    33  C   -0.034736
    34  N   -0.429038
    35  C    0.128266
    36  C   -0.207362
    37  C   -0.016551
    38  C    0.191931
    39  C    0.097411
    40  C    0.105825
    41  O   -0.216919
    42  C   -0.028430
    43  C    0.285951
    44  O   -0.246329
    45  O   -0.358090
    46  C    0.140695
    47  C    0.249141
    48  C   -0.147598
    49  C   -0.175747
    50  C    0.032662
    51  C    0.028756
    52  C   -0.034840
    53  C    0.008150
    54  C   -0.210408
    55  C    0.018203
    56  C    0.017167
    57  C   -0.002232
    58  C    0.030783
    59  C   -0.190877
    60  C   -0.008448
    61  C   -0.003107
    62  C   -0.058395
    63  C    0.021444
    64  C   -0.265558
    65  C   -0.019317
    66  C    0.021374
    67  H    0.000937
    68  H   -0.029648
    69  H   -0.001620
    70  H    0.020230
    71  H    0.022262
    72  H    0.042567
    73  H    0.039728
    74  H    0.055600
    75  H    0.032607
    76  H    0.055506
    77  H    0.045668
    78  H    0.062795
    79  H    0.055325
    80  H    0.011160
    81  H    0.051238
    82  H    0.070698
    83  H    0.041621
    84  H    0.069527
    85  H    0.033091
    86  H    0.024402
    87  H    0.045902
    88  H    0.041669
    89  H    0.029445
    90  H    0.043549
    91  H    0.016155
    92  H    0.043818
    93  H    0.026494
    94  H    0.041458
    95  H    0.035710
    96  H    0.058206
    97  H    0.067362
    98  H    0.068573
    99  H    0.040036
   100  H    0.051220
   101  H    0.053026
   102  H    0.043827
   103  H    0.069013
   104  H    0.023984
   105  H    0.044688
   106  H    0.033723
   107  H    0.051329
   108  H    0.031023
   109  H    0.021417
   110  H    0.007992
   111  H    0.021668
   112  H    0.033104
   113  H    0.009124
   114  H    0.025050
   115  H    0.023788
   116  H    0.021985
   117  H    0.023415
   118  H    0.023527
   119  H    0.007691
   120  H    0.029343
   121  H    0.034482
   122  H    0.016625
   123  H    0.006891
   124  H    0.020652
   125  H    0.028284
   126  H    0.018651
   127  H    0.016064
   128  H    0.014155
   129  H    0.010574
   130  H    0.025269
   131  H    0.019119
   132  H    0.016817
   133  H    0.021654
   134  H    0.019495
   135  H    0.038026
   136  H    0.024077
   137  H    0.036932
   138  H    0.020010
   139  H    0.029277
   140  H    0.041078
 Sum of Mulliken charges =  -0.00000

 Dipole moment (field-independent basis, Debye):
    X=             -1.4529    Y=              2.9847    Z=             -1.0435  Tot=              3.4797
 Quadrupole moment (field-independent basis, Debye-Ang):
   XX=           -386.4731   YY=           -409.1107   ZZ=           -397.2702
   XY=             23.7687   XZ=              1.4258   YZ=             58.4760

 Normal termination of Gaussian 16 at Wed May  4 16:40:47 2022.
