 Gaussian 16, Revision A.03,
 Gaussian 16:  ES64L-G16RevA.03 25-Dec-2016

 --------------------
 #p ZINDO=(nstates=5)
 --------------------

 --------------------------
 step_1_chromophore_8 ZINDO
 --------------------------
 Symbolic Z-matrix:
 Charge =  0 Multiplicity = 1

                         Standard orientation:
 ---------------------------------------------------------------------
 Center     Atomic      Atomic             Coordinates (Angstroms)
 Number     Number       Type             X           Y           Z
 ---------------------------------------------------------------------
      1         12           0        4.394167    1.225056    0.007282
      2          6           0        4.173500   -2.261166    0.359197
      3          6           0        3.818528    0.834624   -3.318155
      4          6           0        4.187795    4.487579   -0.091429
      5          6           0        4.125779    1.315191    3.597024
      6          7           0        4.112467   -0.510202   -1.289599
      7          6           0        4.037253   -1.829927   -0.943908
      8          6           0        3.493377   -2.611435   -2.149227
      9          6           0        3.938727   -1.736593   -3.315849
     10          6           0        3.858502   -0.371402   -2.606091
     11          6           0        5.376097   -2.051967   -3.790342
     12          6           0        1.928868   -2.763104   -2.077248
     13          6           0        1.312361   -4.232796   -1.869598
     14          6           0        0.465585   -4.517872   -0.617491
     15          8           0        0.720260   -5.358326    0.287881
     16          8           0       -0.615098   -3.701428   -0.654265
     17          7           0        3.994024    2.488423   -1.483550
     18          6           0        3.805395    2.141304   -2.801595
     19          6           0        3.743978    3.342624   -3.573925
     20          6           0        3.966371    4.467893   -2.713058
     21          6           0        4.056866    3.863016   -1.352539
     22          6           0        3.512195    3.358394   -5.123743
     23          6           0        4.095078    5.958127   -3.195996
     24          8           0        4.102962    6.210036   -4.361576
     25          6           0        4.482496    6.969121   -2.219724
     26          7           0        3.866900    2.687103    1.533553
     27          6           0        4.240211    3.947383    1.207484
     28          6           0        4.667897    4.774988    2.407934
     29          6           0        4.292161    3.892679    3.588600
     30          6           0        4.066285    2.516100    2.872045
     31          6           0        6.200939    5.129206    2.394557
     32          6           0        3.057438    4.303921    4.521067
     33          6           0        3.252999    4.823307    5.920198
     34          7           0        4.397472   -0.124795    1.654644
     35          6           0        4.285617    0.045377    3.040570
     36          6           0        4.231568   -1.224565    3.731907
     37          6           0        4.214251   -2.146331    2.714153
     38          6           0        4.289974   -1.470376    1.451952
     39          6           0        4.127314   -1.401600    5.189544
     40          6           0        4.152281   -3.571761    2.429533
     41          8           0        4.169037   -4.532656    3.208723
     42          6           0        4.233207   -3.707119    0.923564
     43          6           0        5.504300   -4.487743    0.607346
     44          8           0        6.603645   -4.077004    0.971923
     45          8           0        5.216554   -5.721881    0.003980
     46          6           0        6.371325   -6.527251   -0.291318
     47          6           0       -1.590165   -3.927369    0.425768
     48          6           0       -2.857613   -3.160632    0.150897
     49          6           0       -3.831196   -3.496303   -0.749782
     50          6           0       -3.803880   -4.805964   -1.596694
     51          6           0       -5.063246   -2.634963   -0.996083
     52          6           0       -4.758912   -1.577848   -2.127558
     53          6           0       -4.385656   -0.100070   -1.745228
     54          6           0       -5.625222    0.931013   -1.895348
     55          6           0       -5.158445    2.249138   -2.439406
     56          6           0       -6.520947    1.062435   -0.580107
     57          6           0       -8.050581    0.893653   -0.949556
     58          6           0       -8.793155   -0.196672   -0.220999
     59          6           0       -9.942557    0.354678    0.716864
     60          6           0       -9.501840    0.407426    2.231229
     61          6           0      -11.336788   -0.383605    0.628701
     62          6           0      -12.483620    0.484678   -0.021921
     63          6           0      -13.282807    1.266070    1.065060
     64          6           0      -14.806873    1.072623    0.971679
     65          6           0      -15.569948    1.358062    2.347365
     66          6           0      -15.464069    1.910916   -0.063375
     67          1           0        3.789497    0.664696   -4.396166
     68          1           0        4.438322    5.543814   -0.201341
     69          1           0        4.157025    1.351280    4.688165
     70          1           0        3.882845   -3.626307   -2.065103
     71          1           0        3.224103   -1.867739   -4.127428
     72          1           0        5.176601   -2.146920   -4.857144
     73          1           0        5.626661   -2.993922   -3.301641
     74          1           0        6.141125   -1.306045   -3.574526
     75          1           0        1.528471   -2.421552   -3.031698
     76          1           0        1.563515   -2.058472   -1.330600
     77          1           0        2.174760   -4.891593   -1.765059
     78          1           0        0.750102   -4.614376   -2.721032
     79          1           0        2.739375    4.017059   -5.518779
     80          1           0        3.253503    2.333138   -5.390369
     81          1           0        4.414917    3.608556   -5.681357
     82          1           0        3.805709    7.056629   -1.369504
     83          1           0        4.537500    7.932207   -2.727139
     84          1           0        5.530329    6.846690   -1.949025
     85          1           0        4.182579    5.751080    2.438431
     86          1           0        5.155091    3.742632    4.237418
     87          1           0        6.408829    6.131779    2.021143
     88          1           0        6.754291    4.332703    1.897101
     89          1           0        6.538895    5.116207    3.431755
     90          1           0        2.191916    3.642736    4.546516
     91          1           0        2.745911    5.148750    3.906230
     92          1           0        2.961166    5.865990    6.041637
     93          1           0        4.306460    4.751488    6.191763
     94          1           0        2.643783    4.164653    6.538748
     95          1           0        3.661105   -0.505314    5.599618
     96          1           0        5.155065   -1.438326    5.551875
     97          1           0        3.625264   -2.334145    5.443143
     98          1           0        3.358654   -4.315264    0.696436
     99          1           0        6.933670   -6.209862   -1.169866
    100          1           0        6.101038   -7.570047   -0.455115
    101          1           0        7.100677   -6.580580    0.516498
    102          1           0       -1.085357   -3.447156    1.264870
    103          1           0       -1.804162   -4.984185    0.588636
    104          1           0       -3.043318   -2.269524    0.750836
    105          1           0       -2.819996   -5.271667   -1.549477
    106          1           0       -3.970199   -4.654851   -2.663002
    107          1           0       -4.703282   -5.326416   -1.266393
    108          1           0       -5.407533   -2.169048   -0.073424
    109          1           0       -5.960679   -3.132570   -1.363894
    110          1           0       -5.622997   -1.496084   -2.787376
    111          1           0       -4.027253   -1.959409   -2.840539
    112          1           0       -3.441015    0.230789   -2.178271
    113          1           0       -4.255706   -0.096221   -0.663044
    114          1           0       -6.205669    0.564286   -2.741436
    115          1           0       -5.470871    2.408783   -3.471700
    116          1           0       -4.071966    2.294385   -2.521103
    117          1           0       -5.566982    3.042557   -1.813650
    118          1           0       -6.347169    1.989741   -0.033528
    119          1           0       -6.185045    0.327159    0.150381
    120          1           0       -8.104135    0.514322   -1.970651
    121          1           0       -8.551591    1.855255   -0.838655
    122          1           0       -8.164617   -0.908473    0.313035
    123          1           0       -9.363353   -0.874537   -0.856104
    124          1           0      -10.210505    1.390482    0.508769
    125          1           0      -10.190244   -0.024441    2.956652
    126          1           0       -9.358146    1.440114    2.547617
    127          1           0       -8.528663   -0.049251    2.413000
    128          1           0      -11.856957   -0.620431    1.555991
    129          1           0      -11.239524   -1.323457    0.086271
    130          1           0      -13.122917   -0.141383   -0.644349
    131          1           0      -11.905849    1.152960   -0.660482
    132          1           0      -12.996315    2.288424    0.816964
    133          1           0      -13.063906    1.070617    2.115458
    134          1           0      -15.013478    0.014996    0.804617
    135          1           0      -15.724518    0.346083    2.719565
    136          1           0      -16.502270    1.869428    2.110366
    137          1           0      -14.977536    2.019943    2.979000
    138          1           0      -16.315428    1.249673   -0.229416
    139          1           0      -14.888369    1.891281   -0.988940
    140          1           0      -15.830169    2.841335    0.372115
 ---------------------------------------------------------------------

 SCF Done:  E(RZINDO/S) =  -474.174047414     A.U. after   20 cycles

 Excitation energies and oscillator strengths:

 Excited State   1:      Singlet-A      1.2599 eV  984.08 nm  f=0.5505  <S**2>=0.000
     175 ->178         0.20399
     176 ->177         0.66042
 This state for optimization and/or second-order correction.
 Total Energy, E(CIS/TDA) =  -474.127747012
 Copying the excited state density for this state as the 1-particle RhoCI density.

 Excited State   2:      Singlet-A      1.9018 eV  651.93 nm  f=0.0032  <S**2>=0.000
     175 ->177         0.49308
     176 ->178        -0.48740

 Excited State   3:      Singlet-A      2.8913 eV  428.81 nm  f=0.0047  <S**2>=0.000
     168 ->177         0.16176
     168 ->179        -0.20123
     169 ->177         0.15707
     169 ->179        -0.20214
     170 ->177         0.27249
     170 ->179        -0.32926
     170 ->181         0.10709
     170 ->183         0.12163
     170 ->186        -0.14181
     176 ->179        -0.14206

 Excited State   4:      Singlet-A      2.9845 eV  415.42 nm  f=0.3371  <S**2>=0.000
     175 ->177        -0.23591
     176 ->178        -0.24457
     176 ->179         0.38526
     176 ->180        -0.11124
     176 ->181         0.37380
     176 ->182         0.19272

 Excited State   5:      Singlet-A      3.0067 eV  412.36 nm  f=0.7337  <S**2>=0.000
     171 ->177        -0.11195
     175 ->177         0.35494
     176 ->178         0.38384
     176 ->179         0.40880

 The electronic state is 1-A.
 Alpha  occ. eigenvalues --   -1.85706  -1.82381  -1.80773  -1.73012  -1.72356
 Alpha  occ. eigenvalues --   -1.70255  -1.63161  -1.61125  -1.60006  -1.59255
 Alpha  occ. eigenvalues --   -1.54181  -1.49912  -1.48328  -1.47331  -1.45400
 Alpha  occ. eigenvalues --   -1.44629  -1.42899  -1.39486  -1.38605  -1.37525
 Alpha  occ. eigenvalues --   -1.35932  -1.35465  -1.32044  -1.30516  -1.28403
 Alpha  occ. eigenvalues --   -1.27352  -1.27065  -1.23120  -1.21358  -1.18901
 Alpha  occ. eigenvalues --   -1.16697  -1.15041  -1.14368  -1.13705  -1.13069
 Alpha  occ. eigenvalues --   -1.12522  -1.10584  -1.09306  -1.05772  -1.03964
 Alpha  occ. eigenvalues --   -1.02569  -1.01780  -0.98428  -0.98217  -0.96520
 Alpha  occ. eigenvalues --   -0.95447  -0.94673  -0.92810  -0.92736  -0.92562
 Alpha  occ. eigenvalues --   -0.91015  -0.90682  -0.89366  -0.88489  -0.87143
 Alpha  occ. eigenvalues --   -0.86221  -0.85168  -0.83242  -0.82294  -0.80250
 Alpha  occ. eigenvalues --   -0.79603  -0.78543  -0.77604  -0.77352  -0.76184
 Alpha  occ. eigenvalues --   -0.75808  -0.75006  -0.74389  -0.73762  -0.73274
 Alpha  occ. eigenvalues --   -0.72753  -0.72384  -0.71975  -0.71309  -0.70969
 Alpha  occ. eigenvalues --   -0.70062  -0.69352  -0.69296  -0.69184  -0.68134
 Alpha  occ. eigenvalues --   -0.67546  -0.67145  -0.66770  -0.66365  -0.66009
 Alpha  occ. eigenvalues --   -0.65336  -0.65155  -0.64691  -0.64276  -0.63707
 Alpha  occ. eigenvalues --   -0.63247  -0.63072  -0.62217  -0.62032  -0.61876
 Alpha  occ. eigenvalues --   -0.61195  -0.60944  -0.60597  -0.60284  -0.60005
 Alpha  occ. eigenvalues --   -0.59773  -0.59143  -0.59079  -0.58140  -0.57930
 Alpha  occ. eigenvalues --   -0.57680  -0.57422  -0.57319  -0.56975  -0.56609
 Alpha  occ. eigenvalues --   -0.56378  -0.55668  -0.55441  -0.55185  -0.55073
 Alpha  occ. eigenvalues --   -0.54237  -0.53796  -0.53611  -0.53221  -0.52837
 Alpha  occ. eigenvalues --   -0.52543  -0.52300  -0.52126  -0.52047  -0.51718
 Alpha  occ. eigenvalues --   -0.51301  -0.51015  -0.50663  -0.50040  -0.49940
 Alpha  occ. eigenvalues --   -0.49752  -0.49393  -0.49116  -0.48851  -0.48566
 Alpha  occ. eigenvalues --   -0.48415  -0.48146  -0.47645  -0.47370  -0.47280
 Alpha  occ. eigenvalues --   -0.47138  -0.46893  -0.46718  -0.46458  -0.46321
 Alpha  occ. eigenvalues --   -0.45899  -0.45592  -0.45553  -0.45325  -0.45274
 Alpha  occ. eigenvalues --   -0.45230  -0.44612  -0.44397  -0.44298  -0.44198
 Alpha  occ. eigenvalues --   -0.43934  -0.43765  -0.42946  -0.42736  -0.42446
 Alpha  occ. eigenvalues --   -0.42083  -0.41953  -0.41765  -0.39331  -0.39167
 Alpha  occ. eigenvalues --   -0.38554  -0.37762  -0.35203  -0.35070  -0.34766
 Alpha  occ. eigenvalues --   -0.33417  -0.32714  -0.32501  -0.32276  -0.26805
 Alpha  occ. eigenvalues --   -0.21455
 Alpha virt. eigenvalues --   -0.07962  -0.02462  -0.00329   0.01138   0.01232
 Alpha virt. eigenvalues --    0.01957   0.02507   0.02885   0.04279   0.04907
 Alpha virt. eigenvalues --    0.06133   0.07188   0.07508   0.07884   0.08185

 Mulliken charges:
               1
     1  Mg   0.434496
     2  C   -0.037733
     3  C   -0.073496
     4  C   -0.087522
     5  C   -0.071524
     6  N   -0.282682
     7  C    0.130757
     8  C    0.007433
     9  C    0.005731
    10  C    0.109737
    11  C   -0.051891
    12  C   -0.024052
    13  C   -0.003219
    14  C    0.465799
    15  O   -0.525468
    16  O   -0.259522
    17  N   -0.323995
    18  C    0.101046
    19  C    0.014560
    20  C   -0.070842
    21  C    0.109484
    22  C   -0.044662
    23  C    0.339055
    24  O   -0.502923
    25  C   -0.027931
    26  N   -0.266923
    27  C    0.130628
    28  C    0.011730
    29  C    0.003039
    30  C    0.133714
    31  C   -0.052860
    32  C   -0.038388
    33  C   -0.051764
    34  N   -0.346674
    35  C    0.111691
    36  C    0.054547
    37  C   -0.040662
    38  C    0.130457
    39  C   -0.033447
    40  C    0.340285
    41  O   -0.520258
    42  C    0.054957
    43  C    0.488872
    44  O   -0.508900
    45  O   -0.256702
    46  C    0.077517
    47  C    0.109462
    48  C   -0.102653
    49  C    0.004782
    50  C   -0.049537
    51  C   -0.014654
    52  C   -0.035596
    53  C   -0.043455
    54  C   -0.017718
    55  C   -0.055719
    56  C   -0.034669
    57  C   -0.031295
    58  C   -0.027866
    59  C   -0.016137
    60  C   -0.065210
    61  C   -0.049348
    62  C   -0.044095
    63  C   -0.034576
    64  C   -0.018851
    65  C   -0.071563
    66  C   -0.059766
    67  H    0.028777
    68  H    0.020595
    69  H    0.028663
    70  H    0.024236
    71  H    0.025300
    72  H    0.022738
    73  H    0.024804
    74  H    0.037086
    75  H    0.020770
    76  H    0.034363
    77  H    0.028968
    78  H    0.048086
    79  H    0.037765
    80  H    0.011281
    81  H    0.034076
    82  H    0.037308
    83  H    0.025465
    84  H    0.044706
    85  H    0.028288
    86  H    0.025365
    87  H    0.026344
    88  H    0.028868
    89  H    0.014222
    90  H    0.030695
    91  H    0.009350
    92  H    0.024593
    93  H    0.018622
    94  H    0.021787
    95  H    0.026844
    96  H    0.038482
    97  H    0.042813
    98  H    0.056021
    99  H    0.035056
   100  H    0.029399
   101  H    0.045275
   102  H    0.040125
   103  H    0.060507
   104  H    0.029303
   105  H    0.032550
   106  H    0.021404
   107  H    0.036431
   108  H    0.023579
   109  H    0.020290
   110  H    0.010081
   111  H    0.017368
   112  H    0.031816
   113  H    0.012751
   114  H    0.021155
   115  H    0.012939
   116  H    0.017663
   117  H    0.019034
   118  H    0.022692
   119  H    0.019251
   120  H    0.021131
   121  H    0.028699
   122  H    0.023798
   123  H    0.013352
   124  H    0.024547
   125  H    0.021104
   126  H    0.010188
   127  H    0.013616
   128  H    0.022535
   129  H    0.013004
   130  H    0.022286
   131  H    0.016965
   132  H    0.015095
   133  H    0.024719
   134  H    0.016724
   135  H    0.023378
   136  H    0.020727
   137  H    0.024394
   138  H    0.008856
   139  H    0.021355
   140  H    0.034548
 Sum of Mulliken charges =  -0.00000

 Dipole moment (field-independent basis, Debye):
    X=             -1.7098    Y=              2.8563    Z=              0.0607  Tot=              3.3296
 N-N= 4.417323121926D+03 E-N= 0.000000000000D+00  KE=-9.508817691104D+03
 Leave Link  601 at Wed May  4 16:53:52 2022, MaxMem=  6710886400 cpu:               0.8 elap:               0.0
 (Enter /sw/apps/gaussian-16.0/g16/l9999.exe)
 1\1\GINC-BP1-COMPUTE065\SP\RZINDO CIS\STO-3G\C55H74Mg1N4O6\OF15641\04-
 May-2022\0\\#p ZINDO=(nstates=5)\\step_1_chromophore_8 ZINDO\\0,1\Mg,0
 ,44.805,2.872,46.678\C,0,42.564,5.571,46.818\C,0,42.138,0.792,46.357\C
 ,0,47.013,0.524,46.123\C,0,47.342,5.378,46.178\N,0,42.641,3.171,46.669
 \C,0,41.942,4.344,46.717\C,0,40.483,4.049,46.338\C,0,40.34,2.59,46.757
 \C,0,41.789,2.143,46.484\C,0,39.961,2.426,48.247\C,0,40.236,4.257,44.7
 98\C,0,39.269,5.454,44.334\C,0,39.839,6.574,43.447\O,0,39.909,7.8,43.7

 Normal termination of Gaussian 16 at Wed May  4 16:53:52 2022.
