 Gaussian 16, Revision A.03,
 Gaussian 16:  ES64L-G16RevA.03 25-Dec-2016

 ------------------------------
 #p blyp/Def2SVP td=(nstates=5)
 ------------------------------

 --------------------------------------------------
 step_751_chromophore_10 TDDFT with blyp functional
 --------------------------------------------------
 Symbolic Z-matrix:
 Charge =  0 Multiplicity = 1

                         Standard orientation:
 ---------------------------------------------------------------------
 Center     Atomic      Atomic             Coordinates (Angstroms)
 Number     Number       Type             X           Y           Z
 ---------------------------------------------------------------------
      1         12           0       -5.858590    0.550662    0.032707
      2          6           0       -3.319874   -1.898098    0.237404
      3          6           0       -3.704513    2.836909    0.970030
      4          6           0       -8.469950    2.723031   -0.042333
      5          6           0       -8.059912   -2.040054   -0.801199
      6          7           0       -3.726134    0.405350    0.559614
      7          6           0       -2.871071   -0.601263    0.515536
      8          6           0       -1.525698   -0.181935    1.040103
      9          6           0       -1.737341    1.368606    1.498840
     10          6           0       -3.118038    1.561454    0.993083
     11          6           0       -1.499083    1.782921    3.034032
     12          6           0       -0.432304   -0.310368   -0.044556
     13          6           0        0.977983   -0.919888    0.316715
     14          6           0        1.561125   -2.053599   -0.589756
     15          8           0        0.878593   -2.751694   -1.348034
     16          8           0        2.990550   -1.989337   -0.614103
     17          7           0       -5.997667    2.507640    0.320620
     18          6           0       -4.946153    3.314597    0.632687
     19          6           0       -5.356555    4.690890    0.699560
     20          6           0       -6.743287    4.690910    0.314447
     21          6           0       -7.180274    3.291499    0.240699
     22          6           0       -4.471526    5.835674    1.233657
     23          6           0       -7.572316    5.920286    0.029367
     24          8           0       -8.777385    5.750771   -0.261881
     25          6           0       -7.021691    7.340434    0.163138
     26          7           0       -7.990914    0.340684   -0.319359
     27          6           0       -8.866821    1.354371   -0.245024
     28          6           0      -10.317035    0.950462   -0.446039
     29          6           0      -10.156322   -0.540861   -0.867248
     30          6           0       -8.620100   -0.785509   -0.701705
     31          6           0      -11.190803    1.070554    0.799149
     32          6           0      -10.691323   -0.782044   -2.252861
     33          6           0       -9.802113   -0.381322   -3.445643
     34          7           0       -5.717779   -1.554940   -0.350210
     35          6           0       -6.695895   -2.418273   -0.743292
     36          6           0       -6.260585   -3.776041   -0.783851
     37          6           0       -4.847425   -3.641819   -0.485356
     38          6           0       -4.640304   -2.269305   -0.123776
     39          6           0       -7.107492   -5.018282   -1.120105
     40          6           0       -3.551576   -4.331027   -0.277366
     41          8           0       -3.218084   -5.524211   -0.329514
     42          6           0       -2.533549   -3.237883    0.106007
     43          6           0       -2.044871   -3.525689    1.513649
     44          8           0       -2.731036   -4.019605    2.422051
     45          8           0       -0.701371   -3.216765    1.661370
     46          6           0       -0.070090   -3.434608    2.950742
     47          6           0        3.517840   -2.934931   -1.567538
     48          6           0        4.966972   -2.598493   -1.532413
     49          6           0        5.933172   -3.280874   -0.818275
     50          6           0        5.637727   -4.370107    0.212671
     51          6           0        7.385367   -2.837055   -0.802972
     52          6           0        7.572984   -1.551559    0.041248
     53          6           0        8.367394   -1.764820    1.362083
     54          6           0        9.831267   -1.137344    1.291527
     55          6           0       10.728514   -1.769054    2.346890
     56          6           0        9.922492    0.464681    1.275159
     57          6           0       11.161601    1.096678    0.547320
     58          6           0       10.795096    1.472356   -0.926256
     59          6           0       10.646067    2.974167   -1.229673
     60          6           0        9.335435    3.219021   -1.996842
     61          6           0       11.923323    3.543731   -1.976193
     62          6           0       13.207957    3.539238   -1.157539
     63          6           0       14.235765    2.336068   -1.403318
     64          6           0       14.754055    1.656367   -0.187650
     65          6           0       15.655989    2.681240    0.431739
     66          6           0       15.451388    0.329192   -0.521721
     67          1           0       -2.980396    3.644903    1.091532
     68          1           0       -9.335980    3.385609   -0.100081
     69          1           0       -8.658292   -2.894546   -1.122464
     70          1           0       -1.385240   -0.770116    1.947697
     71          1           0       -1.091717    2.074803    0.977966
     72          1           0       -0.746069    2.569962    2.991754
     73          1           0       -1.029997    0.897560    3.462933
     74          1           0       -2.356677    2.099341    3.627006
     75          1           0       -0.206610    0.686990   -0.423080
     76          1           0       -0.871626   -0.825024   -0.899143
     77          1           0        0.920515   -1.263705    1.349758
     78          1           0        1.615663   -0.037097    0.352454
     79          1           0       -3.976852    6.278278    0.368665
     80          1           0       -3.626928    5.522060    1.847209
     81          1           0       -4.938883    6.659503    1.772130
     82          1           0       -6.089575    7.288897   -0.400699
     83          1           0       -7.026851    7.591430    1.223766
     84          1           0       -7.735796    7.923640   -0.417528
     85          1           0      -10.732297    1.585090   -1.228132
     86          1           0      -10.651590   -1.239620   -0.193101
     87          1           0      -12.231480    1.168803    0.488550
     88          1           0      -10.909240    1.924043    1.415924
     89          1           0      -11.112871    0.181388    1.425872
     90          1           0      -11.655583   -0.277727   -2.311270
     91          1           0      -10.947297   -1.841712   -2.258531
     92          1           0       -9.642079   -1.320798   -3.974264
     93          1           0       -8.739241   -0.199231   -3.284713
     94          1           0      -10.228854    0.409039   -4.062843
     95          1           0       -8.168499   -4.804619   -1.250254
     96          1           0       -6.951175   -5.756064   -0.333118
     97          1           0       -6.879181   -5.524738   -2.057895
     98          1           0       -1.656852   -3.070235   -0.519096
     99          1           0       -0.499388   -4.154803    3.646397
    100          1           0        0.035903   -2.436864    3.377603
    101          1           0        0.955769   -3.738267    2.744433
    102          1           0        3.184853   -2.697779   -2.577722
    103          1           0        3.451473   -3.961289   -1.205861
    104          1           0        5.233508   -1.850848   -2.279922
    105          1           0        5.211673   -5.303979   -0.155406
    106          1           0        4.841726   -3.868445    0.761869
    107          1           0        6.456679   -4.566829    0.904635
    108          1           0        7.814659   -2.526948   -1.756395
    109          1           0        8.041619   -3.622029   -0.426580
    110          1           0        6.650760   -0.993770    0.203881
    111          1           0        8.099978   -0.876765   -0.632606
    112          1           0        8.438447   -2.797587    1.704982
    113          1           0        7.860046   -1.336120    2.226554
    114          1           0       10.254291   -1.252556    0.294149
    115          1           0       11.761095   -1.456398    2.190630
    116          1           0       10.750462   -2.849493    2.206774
    117          1           0       10.478062   -1.483996    3.368782
    118          1           0       10.093304    0.927903    2.246907
    119          1           0        8.938105    0.826750    0.979932
    120          1           0       11.951602    0.346960    0.597849
    121          1           0       11.410528    2.010435    1.088256
    122          1           0        9.840304    0.998296   -1.155789
    123          1           0       11.534758    1.078120   -1.622408
    124          1           0       10.492293    3.485401   -0.279460
    125          1           0        9.326105    4.226535   -2.413072
    126          1           0        8.527858    3.223167   -1.265794
    127          1           0        9.152269    2.423566   -2.719496
    128          1           0       11.770537    4.509622   -2.457397
    129          1           0       11.997634    2.869231   -2.829351
    130          1           0       12.980708    3.610328   -0.094226
    131          1           0       13.760610    4.434296   -1.443818
    132          1           0       15.064383    2.591957   -2.062213
    133          1           0       13.615358    1.670407   -2.003892
    134          1           0       13.903357    1.453101    0.463230
    135          1           0       15.281665    2.725655    1.453838
    136          1           0       15.660821    3.720990    0.105049
    137          1           0       16.683446    2.345843    0.575829
    138          1           0       15.006026   -0.377577    0.178699
    139          1           0       16.514616    0.319449   -0.280794
    140          1           0       15.438327   -0.123508   -1.513238
 ---------------------------------------------------------------------

 SCF Done:  E(RB-LYP) =  -3007.37483928     A.U. after   21 cycles

 Excitation energies and oscillator strengths:

 Excited State   1:      Singlet-A      1.7653 eV  702.35 nm  f=0.0120  <S**2>=0.000
     244 -> 247        0.64050
     245 -> 247       -0.25302
     246 -> 247       -0.13801
 This state for optimization and/or second-order correction.
 Total Energy, E(TD-HF/TD-DFT) =  -3007.30996659
 Copying the excited state density for this state as the 1-particle RhoCI density.

 Excited State   2:      Singlet-A      1.8397 eV  673.95 nm  f=0.2606  <S**2>=0.000
     244 -> 247        0.18423
     245 -> 248       -0.19671
     246 -> 247        0.64919
     246 <- 247       -0.13086

 Excited State   3:      Singlet-A      1.8717 eV  662.41 nm  f=0.0235  <S**2>=0.000
     243 -> 247        0.65650
     244 -> 247       -0.10100
     245 -> 247       -0.19368
     246 -> 247        0.12568

 Excited State   4:      Singlet-A      1.9757 eV  627.56 nm  f=0.0968  <S**2>=0.000
     243 -> 247        0.24057
     244 -> 247        0.20572
     245 -> 247        0.57535
     246 -> 248        0.20797

 Excited State   5:      Singlet-A      2.2029 eV  562.82 nm  f=0.0001  <S**2>=0.000
     242 -> 247        0.70648

 The electronic state is 1-A.
 Alpha  occ. eigenvalues --  -46.26697 -18.82310 -18.82301 -18.78380 -18.76003
 Alpha  occ. eigenvalues --  -18.75164 -18.74641 -14.03206 -14.02986 -14.00985
 Alpha  occ. eigenvalues --  -14.00223 -10.05111 -10.03706  -9.99673  -9.99009
 Alpha  occ. eigenvalues --   -9.98031  -9.97130  -9.96554  -9.96430  -9.96359
 Alpha  occ. eigenvalues --   -9.96263  -9.95789  -9.95232  -9.94694  -9.94650
 Alpha  occ. eigenvalues --   -9.94610  -9.94314  -9.94308  -9.94085  -9.93769
 Alpha  occ. eigenvalues --   -9.93722  -9.93622  -9.93546  -9.93500  -9.93460
 Alpha  occ. eigenvalues --   -9.93444  -9.93312  -9.93122  -9.92986  -9.92619
 Alpha  occ. eigenvalues --   -9.92572  -9.92501  -9.92485  -9.92443  -9.92372
 Alpha  occ. eigenvalues --   -9.92295  -9.92056  -9.91987  -9.91972  -9.91929
 Alpha  occ. eigenvalues --   -9.91871  -9.91841  -9.91772  -9.91528  -9.91469
 Alpha  occ. eigenvalues --   -9.91299  -9.91282  -9.91248  -9.91181  -9.91135
 Alpha  occ. eigenvalues --   -9.91110  -9.90923  -9.90887  -9.90754  -9.90528
 Alpha  occ. eigenvalues --   -9.90251  -2.91383  -1.71823  -1.71255  -1.71100
 Alpha  occ. eigenvalues --   -0.97069  -0.96965  -0.90318  -0.89887  -0.89499
 Alpha  occ. eigenvalues --   -0.88460  -0.87299  -0.86654  -0.86014  -0.84558
 Alpha  occ. eigenvalues --   -0.74789  -0.73396  -0.73159  -0.72586  -0.72334
 Alpha  occ. eigenvalues --   -0.72070  -0.71687  -0.71029  -0.70891  -0.70047
 Alpha  occ. eigenvalues --   -0.69377  -0.68786  -0.67961  -0.67272  -0.66812
 Alpha  occ. eigenvalues --   -0.66254  -0.65706  -0.65265  -0.64963  -0.64512
 Alpha  occ. eigenvalues --   -0.64241  -0.62680  -0.62543  -0.61539  -0.60853
 Alpha  occ. eigenvalues --   -0.60569  -0.60401  -0.60172  -0.59262  -0.59023
 Alpha  occ. eigenvalues --   -0.58128  -0.57542  -0.56964  -0.55447  -0.55251
 Alpha  occ. eigenvalues --   -0.53940  -0.53706  -0.52891  -0.52618  -0.52140
 Alpha  occ. eigenvalues --   -0.51724  -0.51025  -0.50358  -0.50291  -0.49650
 Alpha  occ. eigenvalues --   -0.49408  -0.49224  -0.48508  -0.48278  -0.46645
 Alpha  occ. eigenvalues --   -0.46304  -0.45789  -0.45445  -0.44979  -0.44199
 Alpha  occ. eigenvalues --   -0.43879  -0.43422  -0.43198  -0.42927  -0.42186
 Alpha  occ. eigenvalues --   -0.42155  -0.41904  -0.41516  -0.41335  -0.41231
 Alpha  occ. eigenvalues --   -0.40801  -0.40414  -0.40409  -0.40338  -0.40198
 Alpha  occ. eigenvalues --   -0.39651  -0.39410  -0.39320  -0.39236  -0.39034
 Alpha  occ. eigenvalues --   -0.38819  -0.38655  -0.38338  -0.38181  -0.38052
 Alpha  occ. eigenvalues --   -0.37791  -0.37681  -0.37386  -0.37227  -0.37171
 Alpha  occ. eigenvalues --   -0.36907  -0.36762  -0.36495  -0.36311  -0.36280
 Alpha  occ. eigenvalues --   -0.36166  -0.36024  -0.35784  -0.35548  -0.35371
 Alpha  occ. eigenvalues --   -0.35297  -0.35155  -0.34960  -0.34896  -0.34728
 Alpha  occ. eigenvalues --   -0.34650  -0.34460  -0.34296  -0.34113  -0.33990
 Alpha  occ. eigenvalues --   -0.33900  -0.33613  -0.33539  -0.33360  -0.33150
 Alpha  occ. eigenvalues --   -0.32868  -0.32724  -0.32528  -0.32428  -0.32378
 Alpha  occ. eigenvalues --   -0.32232  -0.32105  -0.31805  -0.31594  -0.31421
 Alpha  occ. eigenvalues --   -0.31166  -0.31092  -0.30976  -0.30913  -0.30548
 Alpha  occ. eigenvalues --   -0.30444  -0.30266  -0.30159  -0.29997  -0.29826
 Alpha  occ. eigenvalues --   -0.29723  -0.29475  -0.29316  -0.29196  -0.28989
 Alpha  occ. eigenvalues --   -0.28625  -0.28522  -0.28215  -0.28071  -0.27624
 Alpha  occ. eigenvalues --   -0.27527  -0.27314  -0.26860  -0.26452  -0.26241
 Alpha  occ. eigenvalues --   -0.25879  -0.25778  -0.25566  -0.25347  -0.25344
 Alpha  occ. eigenvalues --   -0.25275  -0.25096  -0.24492  -0.24091  -0.23771
 Alpha  occ. eigenvalues --   -0.23477  -0.23293  -0.22009  -0.21075  -0.20486
 Alpha  occ. eigenvalues --   -0.19980  -0.19532  -0.18249  -0.17861  -0.16876
 Alpha  occ. eigenvalues --   -0.15931
 Alpha virt. eigenvalues --   -0.11439  -0.06920  -0.06177  -0.04659  -0.04272
 Alpha virt. eigenvalues --   -0.03044  -0.02154  -0.01391  -0.00783  -0.00256
 Alpha virt. eigenvalues --    0.01098   0.01329   0.02022   0.02126   0.02330

 Mulliken charges:
               1
     1  Mg   0.697983
     2  C   -0.032522
     3  C   -0.074947
     4  C   -0.035897
     5  C   -0.061980
     6  N   -0.189260
     7  C   -0.091980
     8  C    0.035943
     9  C   -0.018037
    10  C    0.016986
    11  C    0.127704
    12  C    0.118853
    13  C    0.127574
    14  C    0.139029
    15  O   -0.185091
    16  O   -0.294727
    17  N   -0.361119
    18  C    0.166818
    19  C   -0.132779
    20  C    0.056005
    21  C    0.127186
    22  C    0.160673
    23  C   -0.123961
    24  O   -0.194237
    25  C    0.159522
    26  N   -0.178757
    27  C   -0.024560
    28  C    0.039647
    29  C    0.040453
    30  C    0.040780
    31  C    0.131544
    32  C    0.078504
    33  C    0.077093
    34  N   -0.192790
    35  C    0.068475
    36  C   -0.150084
    37  C    0.051704
    38  C    0.029274
    39  C    0.159833
    40  C    0.012416
    41  O   -0.145859
    42  C    0.086268
    43  C    0.101275
    44  O   -0.191645
    45  O   -0.283755
    46  C    0.217526
    47  C    0.338523
    48  C   -0.118312
    49  C   -0.124589
    50  C    0.110789
    51  C    0.141989
    52  C    0.079085
    53  C    0.105813
    54  C   -0.056174
    55  C    0.114542
    56  C    0.065752
    57  C    0.036169
    58  C    0.110634
    59  C   -0.082718
    60  C    0.107229
    61  C    0.099987
    62  C    0.091967
    63  C    0.069450
    64  C   -0.068322
    65  C    0.119066
    66  C    0.110652
    67  H   -0.067737
    68  H   -0.044429
    69  H   -0.070843
    70  H   -0.008623
    71  H   -0.024258
    72  H   -0.011775
    73  H   -0.013921
    74  H    0.012761
    75  H   -0.030068
    76  H   -0.005078
    77  H   -0.010217
    78  H   -0.007722
    79  H   -0.005064
    80  H   -0.009121
    81  H    0.001614
    82  H    0.001422
    83  H    0.034252
    84  H   -0.005825
    85  H   -0.018796
    86  H   -0.032340
    87  H   -0.007894
    88  H   -0.006950
    89  H   -0.012871
    90  H   -0.027544
    91  H   -0.030075
    92  H   -0.018745
    93  H    0.000171
    94  H    0.004552
    95  H   -0.024772
    96  H    0.018578
    97  H    0.006826
    98  H    0.009930
    99  H    0.036864
   100  H    0.002897
   101  H    0.006664
   102  H   -0.003001
   103  H   -0.007896
   104  H   -0.040651
   105  H    0.017603
   106  H    0.006823
   107  H   -0.005652
   108  H   -0.033326
   109  H   -0.032213
   110  H   -0.023899
   111  H   -0.033140
   112  H   -0.039087
   113  H   -0.041319
   114  H   -0.040262
   115  H   -0.028708
   116  H   -0.016255
   117  H   -0.010802
   118  H   -0.050006
   119  H   -0.035415
   120  H    0.001928
   121  H   -0.012305
   122  H   -0.035913
   123  H   -0.038047
   124  H   -0.047421
   125  H   -0.022563
   126  H   -0.022975
   127  H   -0.007480
   128  H   -0.041265
   129  H   -0.042638
   130  H   -0.030320
   131  H   -0.033436
   132  H   -0.034864
   133  H   -0.053704
   134  H   -0.032246
   135  H   -0.037359
   136  H   -0.002639
   137  H   -0.024892
   138  H   -0.021661
   139  H   -0.029026
   140  H   -0.012444
 Sum of Mulliken charges =  -0.00000

 Dipole moment (field-independent basis, Debye):
    X=              3.4280    Y=              4.6075    Z=              1.4669  Tot=              5.9273
 Quadrupole moment (field-independent basis, Debye-Ang):
   XX=           -387.3955   YY=           -430.2687   ZZ=           -402.4109
   XY=              0.2411   XZ=              9.6625   YZ=              5.5798

 Normal termination of Gaussian 16 at Thu May  5 07:58:40 2022.
