 Gaussian 16, Revision A.03,
 Gaussian 16:  ES64L-G16RevA.03 25-Dec-2016

 -----------------------------------
 #p cam-b3lyp/Def2SVP td=(nstates=5)
 -----------------------------------

 -------------------------------------------------------
 step_751_chromophore_10 TDDFT with cam-b3lyp functional
 -------------------------------------------------------
 Symbolic Z-matrix:
 Charge =  0 Multiplicity = 1

                         Standard orientation:
 ---------------------------------------------------------------------
 Center     Atomic      Atomic             Coordinates (Angstroms)
 Number     Number       Type             X           Y           Z
 ---------------------------------------------------------------------
      1         12           0       -5.858590    0.550662    0.032707
      2          6           0       -3.319874   -1.898098    0.237404
      3          6           0       -3.704513    2.836909    0.970030
      4          6           0       -8.469950    2.723031   -0.042333
      5          6           0       -8.059912   -2.040054   -0.801199
      6          7           0       -3.726134    0.405350    0.559614
      7          6           0       -2.871071   -0.601263    0.515536
      8          6           0       -1.525698   -0.181935    1.040103
      9          6           0       -1.737341    1.368606    1.498840
     10          6           0       -3.118038    1.561454    0.993083
     11          6           0       -1.499083    1.782921    3.034032
     12          6           0       -0.432304   -0.310368   -0.044556
     13          6           0        0.977983   -0.919888    0.316715
     14          6           0        1.561125   -2.053599   -0.589756
     15          8           0        0.878593   -2.751694   -1.348034
     16          8           0        2.990550   -1.989337   -0.614103
     17          7           0       -5.997667    2.507640    0.320620
     18          6           0       -4.946153    3.314597    0.632687
     19          6           0       -5.356555    4.690890    0.699560
     20          6           0       -6.743287    4.690910    0.314447
     21          6           0       -7.180274    3.291499    0.240699
     22          6           0       -4.471526    5.835674    1.233657
     23          6           0       -7.572316    5.920286    0.029367
     24          8           0       -8.777385    5.750771   -0.261881
     25          6           0       -7.021691    7.340434    0.163138
     26          7           0       -7.990914    0.340684   -0.319359
     27          6           0       -8.866821    1.354371   -0.245024
     28          6           0      -10.317035    0.950462   -0.446039
     29          6           0      -10.156322   -0.540861   -0.867248
     30          6           0       -8.620100   -0.785509   -0.701705
     31          6           0      -11.190803    1.070554    0.799149
     32          6           0      -10.691323   -0.782044   -2.252861
     33          6           0       -9.802113   -0.381322   -3.445643
     34          7           0       -5.717779   -1.554940   -0.350210
     35          6           0       -6.695895   -2.418273   -0.743292
     36          6           0       -6.260585   -3.776041   -0.783851
     37          6           0       -4.847425   -3.641819   -0.485356
     38          6           0       -4.640304   -2.269305   -0.123776
     39          6           0       -7.107492   -5.018282   -1.120105
     40          6           0       -3.551576   -4.331027   -0.277366
     41          8           0       -3.218084   -5.524211   -0.329514
     42          6           0       -2.533549   -3.237883    0.106007
     43          6           0       -2.044871   -3.525689    1.513649
     44          8           0       -2.731036   -4.019605    2.422051
     45          8           0       -0.701371   -3.216765    1.661370
     46          6           0       -0.070090   -3.434608    2.950742
     47          6           0        3.517840   -2.934931   -1.567538
     48          6           0        4.966972   -2.598493   -1.532413
     49          6           0        5.933172   -3.280874   -0.818275
     50          6           0        5.637727   -4.370107    0.212671
     51          6           0        7.385367   -2.837055   -0.802972
     52          6           0        7.572984   -1.551559    0.041248
     53          6           0        8.367394   -1.764820    1.362083
     54          6           0        9.831267   -1.137344    1.291527
     55          6           0       10.728514   -1.769054    2.346890
     56          6           0        9.922492    0.464681    1.275159
     57          6           0       11.161601    1.096678    0.547320
     58          6           0       10.795096    1.472356   -0.926256
     59          6           0       10.646067    2.974167   -1.229673
     60          6           0        9.335435    3.219021   -1.996842
     61          6           0       11.923323    3.543731   -1.976193
     62          6           0       13.207957    3.539238   -1.157539
     63          6           0       14.235765    2.336068   -1.403318
     64          6           0       14.754055    1.656367   -0.187650
     65          6           0       15.655989    2.681240    0.431739
     66          6           0       15.451388    0.329192   -0.521721
     67          1           0       -2.980396    3.644903    1.091532
     68          1           0       -9.335980    3.385609   -0.100081
     69          1           0       -8.658292   -2.894546   -1.122464
     70          1           0       -1.385240   -0.770116    1.947697
     71          1           0       -1.091717    2.074803    0.977966
     72          1           0       -0.746069    2.569962    2.991754
     73          1           0       -1.029997    0.897560    3.462933
     74          1           0       -2.356677    2.099341    3.627006
     75          1           0       -0.206610    0.686990   -0.423080
     76          1           0       -0.871626   -0.825024   -0.899143
     77          1           0        0.920515   -1.263705    1.349758
     78          1           0        1.615663   -0.037097    0.352454
     79          1           0       -3.976852    6.278278    0.368665
     80          1           0       -3.626928    5.522060    1.847209
     81          1           0       -4.938883    6.659503    1.772130
     82          1           0       -6.089575    7.288897   -0.400699
     83          1           0       -7.026851    7.591430    1.223766
     84          1           0       -7.735796    7.923640   -0.417528
     85          1           0      -10.732297    1.585090   -1.228132
     86          1           0      -10.651590   -1.239620   -0.193101
     87          1           0      -12.231480    1.168803    0.488550
     88          1           0      -10.909240    1.924043    1.415924
     89          1           0      -11.112871    0.181388    1.425872
     90          1           0      -11.655583   -0.277727   -2.311270
     91          1           0      -10.947297   -1.841712   -2.258531
     92          1           0       -9.642079   -1.320798   -3.974264
     93          1           0       -8.739241   -0.199231   -3.284713
     94          1           0      -10.228854    0.409039   -4.062843
     95          1           0       -8.168499   -4.804619   -1.250254
     96          1           0       -6.951175   -5.756064   -0.333118
     97          1           0       -6.879181   -5.524738   -2.057895
     98          1           0       -1.656852   -3.070235   -0.519096
     99          1           0       -0.499388   -4.154803    3.646397
    100          1           0        0.035903   -2.436864    3.377603
    101          1           0        0.955769   -3.738267    2.744433
    102          1           0        3.184853   -2.697779   -2.577722
    103          1           0        3.451473   -3.961289   -1.205861
    104          1           0        5.233508   -1.850848   -2.279922
    105          1           0        5.211673   -5.303979   -0.155406
    106          1           0        4.841726   -3.868445    0.761869
    107          1           0        6.456679   -4.566829    0.904635
    108          1           0        7.814659   -2.526948   -1.756395
    109          1           0        8.041619   -3.622029   -0.426580
    110          1           0        6.650760   -0.993770    0.203881
    111          1           0        8.099978   -0.876765   -0.632606
    112          1           0        8.438447   -2.797587    1.704982
    113          1           0        7.860046   -1.336120    2.226554
    114          1           0       10.254291   -1.252556    0.294149
    115          1           0       11.761095   -1.456398    2.190630
    116          1           0       10.750462   -2.849493    2.206774
    117          1           0       10.478062   -1.483996    3.368782
    118          1           0       10.093304    0.927903    2.246907
    119          1           0        8.938105    0.826750    0.979932
    120          1           0       11.951602    0.346960    0.597849
    121          1           0       11.410528    2.010435    1.088256
    122          1           0        9.840304    0.998296   -1.155789
    123          1           0       11.534758    1.078120   -1.622408
    124          1           0       10.492293    3.485401   -0.279460
    125          1           0        9.326105    4.226535   -2.413072
    126          1           0        8.527858    3.223167   -1.265794
    127          1           0        9.152269    2.423566   -2.719496
    128          1           0       11.770537    4.509622   -2.457397
    129          1           0       11.997634    2.869231   -2.829351
    130          1           0       12.980708    3.610328   -0.094226
    131          1           0       13.760610    4.434296   -1.443818
    132          1           0       15.064383    2.591957   -2.062213
    133          1           0       13.615358    1.670407   -2.003892
    134          1           0       13.903357    1.453101    0.463230
    135          1           0       15.281665    2.725655    1.453838
    136          1           0       15.660821    3.720990    0.105049
    137          1           0       16.683446    2.345843    0.575829
    138          1           0       15.006026   -0.377577    0.178699
    139          1           0       16.514616    0.319449   -0.280794
    140          1           0       15.438327   -0.123508   -1.513238
 ---------------------------------------------------------------------

 SCF Done:  E(RCAM-B3LYP) =  -3007.16346000     A.U. after   18 cycles

 Excitation energies and oscillator strengths:

 Excited State   1:      Singlet-A      1.7532 eV  707.18 nm  f=0.3745  <S**2>=0.000
     245 -> 248        0.19650
     246 -> 247        0.67967
     245 <- 248        0.10884
 This state for optimization and/or second-order correction.
 Total Energy, E(TD-HF/TD-DFT) =  -3007.09903023
 Copying the excited state density for this state as the 1-particle RhoCI density.

 Excited State   2:      Singlet-A      2.1855 eV  567.29 nm  f=0.1398  <S**2>=0.000
     245 -> 247        0.64703
     246 -> 248       -0.27029

 Excited State   3:      Singlet-A      3.3482 eV  370.30 nm  f=0.0033  <S**2>=0.000
     241 -> 247        0.24387
     243 -> 247        0.36019
     244 -> 247        0.50655

 Excited State   4:      Singlet-A      3.4019 eV  364.46 nm  f=0.0047  <S**2>=0.000
     240 -> 247        0.13586
     241 -> 247        0.17776
     241 -> 249        0.19905
     241 -> 250       -0.15592
     242 -> 247        0.55665
     242 -> 250       -0.11942

 Excited State   5:      Singlet-A      3.4429 eV  360.12 nm  f=0.0094  <S**2>=0.000
     239 -> 247       -0.20682
     239 -> 249        0.18071
     240 -> 247       -0.26095
     240 -> 249        0.19753
     241 -> 247        0.40877
     242 -> 249        0.11169
     243 -> 247       -0.12708
     244 -> 247       -0.16138
     246 -> 248       -0.16559

 The electronic state is 1-A.
 Alpha  occ. eigenvalues --  -46.88199 -19.25258 -19.25125 -19.21340 -19.19017
 Alpha  occ. eigenvalues --  -19.18627 -19.17668 -14.42099 -14.41858 -14.39527
 Alpha  occ. eigenvalues --  -14.38475 -10.40550 -10.39154 -10.35128 -10.34193
 Alpha  occ. eigenvalues --  -10.32028 -10.31255 -10.31086 -10.31071 -10.30864
 Alpha  occ. eigenvalues --  -10.30678 -10.29963 -10.29762 -10.29234 -10.28750
 Alpha  occ. eigenvalues --  -10.28672 -10.28605 -10.28334 -10.28152 -10.27973
 Alpha  occ. eigenvalues --  -10.27926 -10.27790 -10.27788 -10.27776 -10.27756
 Alpha  occ. eigenvalues --  -10.27361 -10.27288 -10.27203 -10.26828 -10.26804
 Alpha  occ. eigenvalues --  -10.26718 -10.26538 -10.26383 -10.26171 -10.26062
 Alpha  occ. eigenvalues --  -10.26034 -10.25909 -10.25641 -10.25613 -10.25608
 Alpha  occ. eigenvalues --  -10.25608 -10.25566 -10.25392 -10.25247 -10.25147
 Alpha  occ. eigenvalues --  -10.25113 -10.25013 -10.24969 -10.24884 -10.24828
 Alpha  occ. eigenvalues --  -10.24684 -10.24617 -10.24492 -10.24330 -10.24200
 Alpha  occ. eigenvalues --  -10.23788  -3.16794  -1.91710  -1.91237  -1.91112
 Alpha  occ. eigenvalues --   -1.15447  -1.15372  -1.08465  -1.08104  -1.07671
 Alpha  occ. eigenvalues --   -1.06372  -1.05060  -1.04336  -1.03481  -1.02239
 Alpha  occ. eigenvalues --   -0.91815  -0.90224  -0.89951  -0.89238  -0.89047
 Alpha  occ. eigenvalues --   -0.88753  -0.88448  -0.87623  -0.87458  -0.86863
 Alpha  occ. eigenvalues --   -0.85815  -0.85086  -0.84194  -0.83359  -0.82906
 Alpha  occ. eigenvalues --   -0.82266  -0.81901  -0.81300  -0.80804  -0.80347
 Alpha  occ. eigenvalues --   -0.79992  -0.78430  -0.78234  -0.77007  -0.76251
 Alpha  occ. eigenvalues --   -0.75940  -0.75715  -0.75472  -0.74517  -0.74279
 Alpha  occ. eigenvalues --   -0.73153  -0.72538  -0.71878  -0.70218  -0.69896
 Alpha  occ. eigenvalues --   -0.68617  -0.68263  -0.67284  -0.67019  -0.66442
 Alpha  occ. eigenvalues --   -0.66031  -0.64992  -0.64445  -0.64159  -0.63649
 Alpha  occ. eigenvalues --   -0.63191  -0.63128  -0.62168  -0.62087  -0.60177
 Alpha  occ. eigenvalues --   -0.60023  -0.59370  -0.58853  -0.58318  -0.57479
 Alpha  occ. eigenvalues --   -0.57361  -0.56869  -0.56343  -0.55973  -0.55317
 Alpha  occ. eigenvalues --   -0.55064  -0.54905  -0.54756  -0.54381  -0.54251
 Alpha  occ. eigenvalues --   -0.53841  -0.53360  -0.53037  -0.52904  -0.52783
 Alpha  occ. eigenvalues --   -0.52547  -0.52010  -0.51941  -0.51799  -0.51703
 Alpha  occ. eigenvalues --   -0.51252  -0.51190  -0.50840  -0.50749  -0.50486
 Alpha  occ. eigenvalues --   -0.50152  -0.49952  -0.49790  -0.49618  -0.49451
 Alpha  occ. eigenvalues --   -0.49021  -0.48986  -0.48672  -0.48578  -0.48396
 Alpha  occ. eigenvalues --   -0.48247  -0.48218  -0.48094  -0.47950  -0.47625
 Alpha  occ. eigenvalues --   -0.47397  -0.47195  -0.46980  -0.46889  -0.46765
 Alpha  occ. eigenvalues --   -0.46544  -0.46349  -0.46032  -0.45982  -0.45841
 Alpha  occ. eigenvalues --   -0.45643  -0.45584  -0.45276  -0.45173  -0.44854
 Alpha  occ. eigenvalues --   -0.44571  -0.44372  -0.44246  -0.44119  -0.43916
 Alpha  occ. eigenvalues --   -0.43789  -0.43717  -0.43501  -0.43135  -0.43081
 Alpha  occ. eigenvalues --   -0.42823  -0.42630  -0.42398  -0.42315  -0.42028
 Alpha  occ. eigenvalues --   -0.41830  -0.41736  -0.41577  -0.41539  -0.41276
 Alpha  occ. eigenvalues --   -0.40880  -0.40766  -0.40488  -0.40410  -0.40247
 Alpha  occ. eigenvalues --   -0.39758  -0.39526  -0.39216  -0.39029  -0.38440
 Alpha  occ. eigenvalues --   -0.38372  -0.38148  -0.37994  -0.37701  -0.37093
 Alpha  occ. eigenvalues --   -0.36936  -0.36517  -0.36368  -0.36137  -0.35935
 Alpha  occ. eigenvalues --   -0.35871  -0.35831  -0.35584  -0.35254  -0.34547
 Alpha  occ. eigenvalues --   -0.34334  -0.33905  -0.32924  -0.31148  -0.30600
 Alpha  occ. eigenvalues --   -0.30038  -0.29861  -0.29057  -0.29013  -0.23573
 Alpha  occ. eigenvalues --   -0.21291
 Alpha virt. eigenvalues --   -0.08559  -0.01753   0.00176   0.02662   0.03190
 Alpha virt. eigenvalues --    0.03976   0.04431   0.04966   0.05906   0.06524
 Alpha virt. eigenvalues --    0.07481   0.08066   0.08277   0.08452   0.08744

 Mulliken charges:
               1
     1  Mg   0.832975
     2  C   -0.061084
     3  C   -0.092638
     4  C   -0.052025
     5  C   -0.064310
     6  N   -0.261626
     7  C   -0.046858
     8  C   -0.022865
     9  C   -0.064476
    10  C    0.038797
    11  C    0.072536
    12  C    0.067414
    13  C    0.064092
    14  C    0.216905
    15  O   -0.226856
    16  O   -0.357512
    17  N   -0.452999
    18  C    0.181547
    19  C   -0.139830
    20  C   -0.012432
    21  C    0.151887
    22  C    0.099637
    23  C   -0.043672
    24  O   -0.234297
    25  C    0.078829
    26  N   -0.249195
    27  C   -0.001100
    28  C   -0.021713
    29  C   -0.010382
    30  C    0.045499
    31  C    0.074817
    32  C    0.026479
    33  C    0.009591
    34  N   -0.283302
    35  C    0.077112
    36  C   -0.153980
    37  C   -0.022227
    38  C    0.067926
    39  C    0.113324
    40  C    0.110128
    41  O   -0.185341
    42  C    0.008480
    43  C    0.196562
    44  O   -0.230136
    45  O   -0.348252
    46  C    0.178202
    47  C    0.295896
    48  C   -0.132389
    49  C   -0.147756
    50  C    0.046625
    51  C    0.082664
    52  C    0.022807
    53  C    0.053577
    54  C   -0.110973
    55  C    0.057092
    56  C    0.020678
    57  C   -0.016204
    58  C    0.057514
    59  C   -0.136455
    60  C    0.050561
    61  C    0.048830
    62  C    0.033040
    63  C    0.016842
    64  C   -0.124001
    65  C    0.053462
    66  C    0.050593
    67  H   -0.034240
    68  H   -0.004038
    69  H   -0.038135
    70  H    0.021490
    71  H    0.009912
    72  H    0.011854
    73  H    0.009294
    74  H    0.038455
    75  H    0.000937
    76  H    0.028152
    77  H    0.017903
    78  H    0.026558
    79  H    0.023367
    80  H    0.020418
    81  H    0.029415
    82  H    0.028743
    83  H    0.061015
    84  H    0.030776
    85  H    0.016189
    86  H    0.004359
    87  H    0.017003
    88  H    0.018382
    89  H    0.012169
    90  H    0.001010
    91  H   -0.001559
    92  H    0.006182
    93  H    0.024566
    94  H    0.027930
    95  H   -0.000892
    96  H    0.043247
    97  H    0.032142
    98  H    0.053499
    99  H    0.064570
   100  H    0.020270
   101  H    0.028604
   102  H    0.027380
   103  H    0.020395
   104  H   -0.007755
   105  H    0.041775
   106  H    0.030742
   107  H    0.018782
   108  H   -0.001144
   109  H   -0.002103
   110  H    0.007117
   111  H   -0.007360
   112  H   -0.012136
   113  H   -0.011507
   114  H   -0.011262
   115  H   -0.005090
   116  H    0.008267
   117  H    0.012637
   118  H   -0.020724
   119  H   -0.008611
   120  H    0.023232
   121  H    0.013521
   122  H   -0.009232
   123  H   -0.010429
   124  H   -0.015983
   125  H    0.002673
   126  H    0.001655
   127  H    0.014859
   128  H   -0.010584
   129  H   -0.014147
   130  H   -0.003989
   131  H   -0.003248
   132  H   -0.005058
   133  H   -0.026891
   134  H   -0.003167
   135  H   -0.011782
   136  H    0.021553
   137  H    0.001524
   138  H    0.001297
   139  H   -0.003813
   140  H    0.013023
 Sum of Mulliken charges =  -0.00000

 Dipole moment (field-independent basis, Debye):
    X=              3.3962    Y=              5.7269    Z=              1.6600  Tot=              6.8620
 Quadrupole moment (field-independent basis, Debye-Ang):
   XX=           -385.8329   YY=           -425.3132   ZZ=           -402.1975
   XY=             -4.8105   XZ=              9.6353   YZ=              6.0384

 Normal termination of Gaussian 16 at Thu May  5 07:01:25 2022.
