 Gaussian 16, Revision A.03,
 Gaussian 16:  ES64L-G16RevA.03 25-Dec-2016

 ---------------------------------
 #p PBE1PBE/Def2SVP td=(nstates=5)
 ---------------------------------

 -----------------------------------------------------
 step_751_chromophore_10 TDDFT with PBE1PBE functional
 -----------------------------------------------------
 Symbolic Z-matrix:
 Charge =  0 Multiplicity = 1

                         Standard orientation:
 ---------------------------------------------------------------------
 Center     Atomic      Atomic             Coordinates (Angstroms)
 Number     Number       Type             X           Y           Z
 ---------------------------------------------------------------------
      1         12           0       -5.858590    0.550662    0.032707
      2          6           0       -3.319874   -1.898098    0.237404
      3          6           0       -3.704513    2.836909    0.970030
      4          6           0       -8.469950    2.723031   -0.042333
      5          6           0       -8.059912   -2.040054   -0.801199
      6          7           0       -3.726134    0.405350    0.559614
      7          6           0       -2.871071   -0.601263    0.515536
      8          6           0       -1.525698   -0.181935    1.040103
      9          6           0       -1.737341    1.368606    1.498840
     10          6           0       -3.118038    1.561454    0.993083
     11          6           0       -1.499083    1.782921    3.034032
     12          6           0       -0.432304   -0.310368   -0.044556
     13          6           0        0.977983   -0.919888    0.316715
     14          6           0        1.561125   -2.053599   -0.589756
     15          8           0        0.878593   -2.751694   -1.348034
     16          8           0        2.990550   -1.989337   -0.614103
     17          7           0       -5.997667    2.507640    0.320620
     18          6           0       -4.946153    3.314597    0.632687
     19          6           0       -5.356555    4.690890    0.699560
     20          6           0       -6.743287    4.690910    0.314447
     21          6           0       -7.180274    3.291499    0.240699
     22          6           0       -4.471526    5.835674    1.233657
     23          6           0       -7.572316    5.920286    0.029367
     24          8           0       -8.777385    5.750771   -0.261881
     25          6           0       -7.021691    7.340434    0.163138
     26          7           0       -7.990914    0.340684   -0.319359
     27          6           0       -8.866821    1.354371   -0.245024
     28          6           0      -10.317035    0.950462   -0.446039
     29          6           0      -10.156322   -0.540861   -0.867248
     30          6           0       -8.620100   -0.785509   -0.701705
     31          6           0      -11.190803    1.070554    0.799149
     32          6           0      -10.691323   -0.782044   -2.252861
     33          6           0       -9.802113   -0.381322   -3.445643
     34          7           0       -5.717779   -1.554940   -0.350210
     35          6           0       -6.695895   -2.418273   -0.743292
     36          6           0       -6.260585   -3.776041   -0.783851
     37          6           0       -4.847425   -3.641819   -0.485356
     38          6           0       -4.640304   -2.269305   -0.123776
     39          6           0       -7.107492   -5.018282   -1.120105
     40          6           0       -3.551576   -4.331027   -0.277366
     41          8           0       -3.218084   -5.524211   -0.329514
     42          6           0       -2.533549   -3.237883    0.106007
     43          6           0       -2.044871   -3.525689    1.513649
     44          8           0       -2.731036   -4.019605    2.422051
     45          8           0       -0.701371   -3.216765    1.661370
     46          6           0       -0.070090   -3.434608    2.950742
     47          6           0        3.517840   -2.934931   -1.567538
     48          6           0        4.966972   -2.598493   -1.532413
     49          6           0        5.933172   -3.280874   -0.818275
     50          6           0        5.637727   -4.370107    0.212671
     51          6           0        7.385367   -2.837055   -0.802972
     52          6           0        7.572984   -1.551559    0.041248
     53          6           0        8.367394   -1.764820    1.362083
     54          6           0        9.831267   -1.137344    1.291527
     55          6           0       10.728514   -1.769054    2.346890
     56          6           0        9.922492    0.464681    1.275159
     57          6           0       11.161601    1.096678    0.547320
     58          6           0       10.795096    1.472356   -0.926256
     59          6           0       10.646067    2.974167   -1.229673
     60          6           0        9.335435    3.219021   -1.996842
     61          6           0       11.923323    3.543731   -1.976193
     62          6           0       13.207957    3.539238   -1.157539
     63          6           0       14.235765    2.336068   -1.403318
     64          6           0       14.754055    1.656367   -0.187650
     65          6           0       15.655989    2.681240    0.431739
     66          6           0       15.451388    0.329192   -0.521721
     67          1           0       -2.980396    3.644903    1.091532
     68          1           0       -9.335980    3.385609   -0.100081
     69          1           0       -8.658292   -2.894546   -1.122464
     70          1           0       -1.385240   -0.770116    1.947697
     71          1           0       -1.091717    2.074803    0.977966
     72          1           0       -0.746069    2.569962    2.991754
     73          1           0       -1.029997    0.897560    3.462933
     74          1           0       -2.356677    2.099341    3.627006
     75          1           0       -0.206610    0.686990   -0.423080
     76          1           0       -0.871626   -0.825024   -0.899143
     77          1           0        0.920515   -1.263705    1.349758
     78          1           0        1.615663   -0.037097    0.352454
     79          1           0       -3.976852    6.278278    0.368665
     80          1           0       -3.626928    5.522060    1.847209
     81          1           0       -4.938883    6.659503    1.772130
     82          1           0       -6.089575    7.288897   -0.400699
     83          1           0       -7.026851    7.591430    1.223766
     84          1           0       -7.735796    7.923640   -0.417528
     85          1           0      -10.732297    1.585090   -1.228132
     86          1           0      -10.651590   -1.239620   -0.193101
     87          1           0      -12.231480    1.168803    0.488550
     88          1           0      -10.909240    1.924043    1.415924
     89          1           0      -11.112871    0.181388    1.425872
     90          1           0      -11.655583   -0.277727   -2.311270
     91          1           0      -10.947297   -1.841712   -2.258531
     92          1           0       -9.642079   -1.320798   -3.974264
     93          1           0       -8.739241   -0.199231   -3.284713
     94          1           0      -10.228854    0.409039   -4.062843
     95          1           0       -8.168499   -4.804619   -1.250254
     96          1           0       -6.951175   -5.756064   -0.333118
     97          1           0       -6.879181   -5.524738   -2.057895
     98          1           0       -1.656852   -3.070235   -0.519096
     99          1           0       -0.499388   -4.154803    3.646397
    100          1           0        0.035903   -2.436864    3.377603
    101          1           0        0.955769   -3.738267    2.744433
    102          1           0        3.184853   -2.697779   -2.577722
    103          1           0        3.451473   -3.961289   -1.205861
    104          1           0        5.233508   -1.850848   -2.279922
    105          1           0        5.211673   -5.303979   -0.155406
    106          1           0        4.841726   -3.868445    0.761869
    107          1           0        6.456679   -4.566829    0.904635
    108          1           0        7.814659   -2.526948   -1.756395
    109          1           0        8.041619   -3.622029   -0.426580
    110          1           0        6.650760   -0.993770    0.203881
    111          1           0        8.099978   -0.876765   -0.632606
    112          1           0        8.438447   -2.797587    1.704982
    113          1           0        7.860046   -1.336120    2.226554
    114          1           0       10.254291   -1.252556    0.294149
    115          1           0       11.761095   -1.456398    2.190630
    116          1           0       10.750462   -2.849493    2.206774
    117          1           0       10.478062   -1.483996    3.368782
    118          1           0       10.093304    0.927903    2.246907
    119          1           0        8.938105    0.826750    0.979932
    120          1           0       11.951602    0.346960    0.597849
    121          1           0       11.410528    2.010435    1.088256
    122          1           0        9.840304    0.998296   -1.155789
    123          1           0       11.534758    1.078120   -1.622408
    124          1           0       10.492293    3.485401   -0.279460
    125          1           0        9.326105    4.226535   -2.413072
    126          1           0        8.527858    3.223167   -1.265794
    127          1           0        9.152269    2.423566   -2.719496
    128          1           0       11.770537    4.509622   -2.457397
    129          1           0       11.997634    2.869231   -2.829351
    130          1           0       12.980708    3.610328   -0.094226
    131          1           0       13.760610    4.434296   -1.443818
    132          1           0       15.064383    2.591957   -2.062213
    133          1           0       13.615358    1.670407   -2.003892
    134          1           0       13.903357    1.453101    0.463230
    135          1           0       15.281665    2.725655    1.453838
    136          1           0       15.660821    3.720990    0.105049
    137          1           0       16.683446    2.345843    0.575829
    138          1           0       15.006026   -0.377577    0.178699
    139          1           0       16.514616    0.319449   -0.280794
    140          1           0       15.438327   -0.123508   -1.513238
 ---------------------------------------------------------------------

 SCF Done:  E(RPBE1PBE) =  -3005.35234454     A.U. after   15 cycles

 Excitation energies and oscillator strengths:

 Excited State   1:      Singlet-A      1.8993 eV  652.78 nm  f=0.3574  <S**2>=0.000
     245 -> 248       -0.19017
     246 -> 247        0.68482
 This state for optimization and/or second-order correction.
 Total Energy, E(TD-HF/TD-DFT) =  -3005.28254509
 Copying the excited state density for this state as the 1-particle RhoCI density.

 Excited State   2:      Singlet-A      2.1832 eV  567.90 nm  f=0.1387  <S**2>=0.000
     245 -> 247        0.65776
     246 -> 248        0.24130

 Excited State   3:      Singlet-A      2.8505 eV  434.96 nm  f=0.0008  <S**2>=0.000
     242 -> 247       -0.35691
     243 -> 247        0.56779

 Excited State   4:      Singlet-A      2.9689 eV  417.61 nm  f=0.0013  <S**2>=0.000
     240 -> 247        0.21681
     240 -> 249        0.10085
     241 -> 247        0.59772
     241 -> 249        0.14301
     242 -> 247       -0.18396

 Excited State   5:      Singlet-A      3.0227 eV  410.17 nm  f=0.0016  <S**2>=0.000
     240 -> 247        0.14266
     241 -> 247        0.14400
     242 -> 247        0.55525
     243 -> 247        0.36479

 The electronic state is 1-A.
 Alpha  occ. eigenvalues --  -46.91605 -19.25899 -19.25853 -19.21628 -19.19276
 Alpha  occ. eigenvalues --  -19.18728 -19.18047 -14.41593 -14.41331 -14.39165
 Alpha  occ. eigenvalues --  -14.38186 -10.37626 -10.36229 -10.32163 -10.31473
 Alpha  occ. eigenvalues --  -10.29262 -10.28851 -10.28674 -10.28501 -10.28468
 Alpha  occ. eigenvalues --  -10.28456 -10.27832 -10.27247 -10.26745 -10.26574
 Alpha  occ. eigenvalues --  -10.26526 -10.26502 -10.25975 -10.25863 -10.25862
 Alpha  occ. eigenvalues --  -10.25662 -10.25494 -10.25492 -10.25348 -10.25253
 Alpha  occ. eigenvalues --  -10.25029 -10.24990 -10.24772 -10.24687 -10.24348
 Alpha  occ. eigenvalues --  -10.24124 -10.24106 -10.23969 -10.23739 -10.23731
 Alpha  occ. eigenvalues --  -10.23558 -10.23453 -10.23316 -10.23212 -10.23194
 Alpha  occ. eigenvalues --  -10.23187 -10.23148 -10.23107 -10.23005 -10.22781
 Alpha  occ. eigenvalues --  -10.22701 -10.22618 -10.22432 -10.22411 -10.22396
 Alpha  occ. eigenvalues --  -10.22197 -10.22078 -10.21897 -10.21748 -10.21733
 Alpha  occ. eigenvalues --  -10.21182  -3.13779  -1.86638  -1.86141  -1.86022
 Alpha  occ. eigenvalues --   -1.10234  -1.10162  -1.03052  -1.02983  -1.02504
 Alpha  occ. eigenvalues --   -1.01206  -0.99705  -0.98978  -0.98273  -0.96803
 Alpha  occ. eigenvalues --   -0.86224  -0.84321  -0.84071  -0.83535  -0.83289
 Alpha  occ. eigenvalues --   -0.82889  -0.82736  -0.81954  -0.81585  -0.81020
 Alpha  occ. eigenvalues --   -0.80205  -0.79342  -0.78405  -0.77666  -0.77161
 Alpha  occ. eigenvalues --   -0.76481  -0.76018  -0.75498  -0.75033  -0.74656
 Alpha  occ. eigenvalues --   -0.74221  -0.72632  -0.72550  -0.71338  -0.70623
 Alpha  occ. eigenvalues --   -0.70039  -0.69879  -0.69805  -0.68674  -0.68431
 Alpha  occ. eigenvalues --   -0.67601  -0.66918  -0.66303  -0.64532  -0.64276
 Alpha  occ. eigenvalues --   -0.63027  -0.62510  -0.61771  -0.61252  -0.60638
 Alpha  occ. eigenvalues --   -0.60478  -0.59469  -0.59018  -0.58754  -0.57806
 Alpha  occ. eigenvalues --   -0.57680  -0.57307  -0.56768  -0.56306  -0.54536
 Alpha  occ. eigenvalues --   -0.54504  -0.53906  -0.53507  -0.52953  -0.51933
 Alpha  occ. eigenvalues --   -0.51876  -0.51389  -0.50860  -0.50621  -0.49827
 Alpha  occ. eigenvalues --   -0.49419  -0.49368  -0.49226  -0.48909  -0.48850
 Alpha  occ. eigenvalues --   -0.48433  -0.47646  -0.47551  -0.47448  -0.47264
 Alpha  occ. eigenvalues --   -0.47096  -0.46700  -0.46546  -0.46280  -0.46211
 Alpha  occ. eigenvalues --   -0.45785  -0.45705  -0.45410  -0.45321  -0.45153
 Alpha  occ. eigenvalues --   -0.44683  -0.44475  -0.44303  -0.44223  -0.44040
 Alpha  occ. eigenvalues --   -0.43618  -0.43556  -0.43272  -0.43153  -0.43011
 Alpha  occ. eigenvalues --   -0.42855  -0.42805  -0.42714  -0.42653  -0.42212
 Alpha  occ. eigenvalues --   -0.42064  -0.41828  -0.41652  -0.41590  -0.41409
 Alpha  occ. eigenvalues --   -0.41197  -0.41066  -0.40736  -0.40654  -0.40612
 Alpha  occ. eigenvalues --   -0.40356  -0.40249  -0.40006  -0.39875  -0.39616
 Alpha  occ. eigenvalues --   -0.39371  -0.39155  -0.39057  -0.38780  -0.38733
 Alpha  occ. eigenvalues --   -0.38650  -0.38451  -0.38214  -0.37898  -0.37847
 Alpha  occ. eigenvalues --   -0.37659  -0.37454  -0.37265  -0.37011  -0.36830
 Alpha  occ. eigenvalues --   -0.36612  -0.36482  -0.36410  -0.36356  -0.36120
 Alpha  occ. eigenvalues --   -0.35669  -0.35598  -0.35365  -0.35209  -0.35151
 Alpha  occ. eigenvalues --   -0.34705  -0.34418  -0.34166  -0.33836  -0.33290
 Alpha  occ. eigenvalues --   -0.33220  -0.32963  -0.32935  -0.32680  -0.32098
 Alpha  occ. eigenvalues --   -0.31928  -0.31375  -0.31265  -0.31185  -0.30833
 Alpha  occ. eigenvalues --   -0.30800  -0.30730  -0.30463  -0.30091  -0.29570
 Alpha  occ. eigenvalues --   -0.29442  -0.29051  -0.28229  -0.26535  -0.25678
 Alpha  occ. eigenvalues --   -0.25243  -0.25031  -0.24684  -0.24409  -0.20548
 Alpha  occ. eigenvalues --   -0.18907
 Alpha virt. eigenvalues --   -0.11036  -0.05248  -0.03989  -0.01781  -0.01394
 Alpha virt. eigenvalues --   -0.00022   0.00988   0.01349   0.01444   0.02513
 Alpha virt. eigenvalues --    0.03907   0.04220   0.04927   0.05027   0.05285

 Mulliken charges:
               1
     1  Mg   0.986297
     2  C   -0.076565
     3  C   -0.082477
     4  C   -0.046118
     5  C   -0.054208
     6  N   -0.369320
     7  C    0.031880
     8  C   -0.116386
     9  C   -0.125268
    10  C    0.071279
    11  C    0.013173
    12  C    0.027847
    13  C   -0.014051
    14  C    0.272623
    15  O   -0.257188
    16  O   -0.384560
    17  N   -0.569926
    18  C    0.202951
    19  C   -0.166730
    20  C   -0.066590
    21  C    0.181793
    22  C    0.040082
    23  C    0.009211
    24  O   -0.269237
    25  C    0.002383
    26  N   -0.358645
    27  C    0.037498
    28  C   -0.102009
    29  C   -0.082598
    30  C    0.079476
    31  C    0.019288
    32  C   -0.035129
    33  C   -0.060687
    34  N   -0.411819
    35  C    0.103105
    36  C   -0.170531
    37  C   -0.069035
    38  C    0.134715
    39  C    0.061174
    40  C    0.206900
    41  O   -0.228629
    42  C   -0.107733
    43  C    0.290619
    44  O   -0.263714
    45  O   -0.379341
    46  C    0.122255
    47  C    0.247130
    48  C   -0.142302
    49  C   -0.190834
    50  C   -0.016652
    51  C    0.022250
    52  C   -0.043368
    53  C    0.001214
    54  C   -0.200910
    55  C   -0.004579
    56  C   -0.023318
    57  C   -0.089263
    58  C    0.002428
    59  C   -0.220072
    60  C   -0.012904
    61  C   -0.007719
    62  C   -0.025908
    63  C   -0.042952
    64  C   -0.229805
    65  C   -0.002272
    66  C   -0.004715
    67  H   -0.002112
    68  H    0.027357
    69  H   -0.005187
    70  H    0.063119
    71  H    0.045517
    72  H    0.038791
    73  H    0.037486
    74  H    0.064903
    75  H    0.033988
    76  H    0.058976
    77  H    0.054015
    78  H    0.058068
    79  H    0.051568
    80  H    0.045833
    81  H    0.056258
    82  H    0.056213
    83  H    0.086256
    84  H    0.058032
    85  H    0.051723
    86  H    0.040492
    87  H    0.044990
    88  H    0.046719
    89  H    0.039234
    90  H    0.035428
    91  H    0.030509
    92  H    0.033978
    93  H    0.053038
    94  H    0.054884
    95  H    0.025432
    96  H    0.070791
    97  H    0.059735
    98  H    0.093197
    99  H    0.085334
   100  H    0.040935
   101  H    0.050760
   102  H    0.055072
   103  H    0.048586
   104  H    0.022316
   105  H    0.068458
   106  H    0.059106
   107  H    0.045763
   108  H    0.031599
   109  H    0.030016
   110  H    0.038841
   111  H    0.029003
   112  H    0.019057
   113  H    0.021459
   114  H    0.029602
   115  H    0.023034
   116  H    0.036464
   117  H    0.040106
   118  H    0.012630
   119  H    0.024301
   120  H    0.055885
   121  H    0.044393
   122  H    0.028355
   123  H    0.022453
   124  H    0.022784
   125  H    0.030942
   126  H    0.030834
   127  H    0.041790
   128  H    0.021144
   129  H    0.019343
   130  H    0.027987
   131  H    0.030094
   132  H    0.028157
   133  H    0.007711
   134  H    0.040767
   135  H    0.016322
   136  H    0.048185
   137  H    0.029093
   138  H    0.028514
   139  H    0.023160
   140  H    0.038913
 Sum of Mulliken charges =  -0.00000

 Dipole moment (field-independent basis, Debye):
    X=              3.4069    Y=              5.4004    Z=              1.6476  Tot=              6.5943
 Quadrupole moment (field-independent basis, Debye-Ang):
   XX=           -380.0150   YY=           -423.2430   ZZ=           -399.6790
   XY=             -1.8374   XZ=             10.7874   YZ=              6.1694

 Normal termination of Gaussian 16 at Thu May  5 07:17:39 2022.
