 Gaussian 16, Revision A.03,
 Gaussian 16:  ES64L-G16RevA.03 25-Dec-2016

 --------------------------------
 #p wB97XD/Def2SVP td=(nstates=5)
 --------------------------------

 ----------------------------------------------------
 step_751_chromophore_10 TDDFT with wB97XD functional
 ----------------------------------------------------
 Symbolic Z-matrix:
 Charge =  0 Multiplicity = 1

                         Standard orientation:
 ---------------------------------------------------------------------
 Center     Atomic      Atomic             Coordinates (Angstroms)
 Number     Number       Type             X           Y           Z
 ---------------------------------------------------------------------
      1         12           0       -5.858590    0.550662    0.032707
      2          6           0       -3.319874   -1.898098    0.237404
      3          6           0       -3.704513    2.836909    0.970030
      4          6           0       -8.469950    2.723031   -0.042333
      5          6           0       -8.059912   -2.040054   -0.801199
      6          7           0       -3.726134    0.405350    0.559614
      7          6           0       -2.871071   -0.601263    0.515536
      8          6           0       -1.525698   -0.181935    1.040103
      9          6           0       -1.737341    1.368606    1.498840
     10          6           0       -3.118038    1.561454    0.993083
     11          6           0       -1.499083    1.782921    3.034032
     12          6           0       -0.432304   -0.310368   -0.044556
     13          6           0        0.977983   -0.919888    0.316715
     14          6           0        1.561125   -2.053599   -0.589756
     15          8           0        0.878593   -2.751694   -1.348034
     16          8           0        2.990550   -1.989337   -0.614103
     17          7           0       -5.997667    2.507640    0.320620
     18          6           0       -4.946153    3.314597    0.632687
     19          6           0       -5.356555    4.690890    0.699560
     20          6           0       -6.743287    4.690910    0.314447
     21          6           0       -7.180274    3.291499    0.240699
     22          6           0       -4.471526    5.835674    1.233657
     23          6           0       -7.572316    5.920286    0.029367
     24          8           0       -8.777385    5.750771   -0.261881
     25          6           0       -7.021691    7.340434    0.163138
     26          7           0       -7.990914    0.340684   -0.319359
     27          6           0       -8.866821    1.354371   -0.245024
     28          6           0      -10.317035    0.950462   -0.446039
     29          6           0      -10.156322   -0.540861   -0.867248
     30          6           0       -8.620100   -0.785509   -0.701705
     31          6           0      -11.190803    1.070554    0.799149
     32          6           0      -10.691323   -0.782044   -2.252861
     33          6           0       -9.802113   -0.381322   -3.445643
     34          7           0       -5.717779   -1.554940   -0.350210
     35          6           0       -6.695895   -2.418273   -0.743292
     36          6           0       -6.260585   -3.776041   -0.783851
     37          6           0       -4.847425   -3.641819   -0.485356
     38          6           0       -4.640304   -2.269305   -0.123776
     39          6           0       -7.107492   -5.018282   -1.120105
     40          6           0       -3.551576   -4.331027   -0.277366
     41          8           0       -3.218084   -5.524211   -0.329514
     42          6           0       -2.533549   -3.237883    0.106007
     43          6           0       -2.044871   -3.525689    1.513649
     44          8           0       -2.731036   -4.019605    2.422051
     45          8           0       -0.701371   -3.216765    1.661370
     46          6           0       -0.070090   -3.434608    2.950742
     47          6           0        3.517840   -2.934931   -1.567538
     48          6           0        4.966972   -2.598493   -1.532413
     49          6           0        5.933172   -3.280874   -0.818275
     50          6           0        5.637727   -4.370107    0.212671
     51          6           0        7.385367   -2.837055   -0.802972
     52          6           0        7.572984   -1.551559    0.041248
     53          6           0        8.367394   -1.764820    1.362083
     54          6           0        9.831267   -1.137344    1.291527
     55          6           0       10.728514   -1.769054    2.346890
     56          6           0        9.922492    0.464681    1.275159
     57          6           0       11.161601    1.096678    0.547320
     58          6           0       10.795096    1.472356   -0.926256
     59          6           0       10.646067    2.974167   -1.229673
     60          6           0        9.335435    3.219021   -1.996842
     61          6           0       11.923323    3.543731   -1.976193
     62          6           0       13.207957    3.539238   -1.157539
     63          6           0       14.235765    2.336068   -1.403318
     64          6           0       14.754055    1.656367   -0.187650
     65          6           0       15.655989    2.681240    0.431739
     66          6           0       15.451388    0.329192   -0.521721
     67          1           0       -2.980396    3.644903    1.091532
     68          1           0       -9.335980    3.385609   -0.100081
     69          1           0       -8.658292   -2.894546   -1.122464
     70          1           0       -1.385240   -0.770116    1.947697
     71          1           0       -1.091717    2.074803    0.977966
     72          1           0       -0.746069    2.569962    2.991754
     73          1           0       -1.029997    0.897560    3.462933
     74          1           0       -2.356677    2.099341    3.627006
     75          1           0       -0.206610    0.686990   -0.423080
     76          1           0       -0.871626   -0.825024   -0.899143
     77          1           0        0.920515   -1.263705    1.349758
     78          1           0        1.615663   -0.037097    0.352454
     79          1           0       -3.976852    6.278278    0.368665
     80          1           0       -3.626928    5.522060    1.847209
     81          1           0       -4.938883    6.659503    1.772130
     82          1           0       -6.089575    7.288897   -0.400699
     83          1           0       -7.026851    7.591430    1.223766
     84          1           0       -7.735796    7.923640   -0.417528
     85          1           0      -10.732297    1.585090   -1.228132
     86          1           0      -10.651590   -1.239620   -0.193101
     87          1           0      -12.231480    1.168803    0.488550
     88          1           0      -10.909240    1.924043    1.415924
     89          1           0      -11.112871    0.181388    1.425872
     90          1           0      -11.655583   -0.277727   -2.311270
     91          1           0      -10.947297   -1.841712   -2.258531
     92          1           0       -9.642079   -1.320798   -3.974264
     93          1           0       -8.739241   -0.199231   -3.284713
     94          1           0      -10.228854    0.409039   -4.062843
     95          1           0       -8.168499   -4.804619   -1.250254
     96          1           0       -6.951175   -5.756064   -0.333118
     97          1           0       -6.879181   -5.524738   -2.057895
     98          1           0       -1.656852   -3.070235   -0.519096
     99          1           0       -0.499388   -4.154803    3.646397
    100          1           0        0.035903   -2.436864    3.377603
    101          1           0        0.955769   -3.738267    2.744433
    102          1           0        3.184853   -2.697779   -2.577722
    103          1           0        3.451473   -3.961289   -1.205861
    104          1           0        5.233508   -1.850848   -2.279922
    105          1           0        5.211673   -5.303979   -0.155406
    106          1           0        4.841726   -3.868445    0.761869
    107          1           0        6.456679   -4.566829    0.904635
    108          1           0        7.814659   -2.526948   -1.756395
    109          1           0        8.041619   -3.622029   -0.426580
    110          1           0        6.650760   -0.993770    0.203881
    111          1           0        8.099978   -0.876765   -0.632606
    112          1           0        8.438447   -2.797587    1.704982
    113          1           0        7.860046   -1.336120    2.226554
    114          1           0       10.254291   -1.252556    0.294149
    115          1           0       11.761095   -1.456398    2.190630
    116          1           0       10.750462   -2.849493    2.206774
    117          1           0       10.478062   -1.483996    3.368782
    118          1           0       10.093304    0.927903    2.246907
    119          1           0        8.938105    0.826750    0.979932
    120          1           0       11.951602    0.346960    0.597849
    121          1           0       11.410528    2.010435    1.088256
    122          1           0        9.840304    0.998296   -1.155789
    123          1           0       11.534758    1.078120   -1.622408
    124          1           0       10.492293    3.485401   -0.279460
    125          1           0        9.326105    4.226535   -2.413072
    126          1           0        8.527858    3.223167   -1.265794
    127          1           0        9.152269    2.423566   -2.719496
    128          1           0       11.770537    4.509622   -2.457397
    129          1           0       11.997634    2.869231   -2.829351
    130          1           0       12.980708    3.610328   -0.094226
    131          1           0       13.760610    4.434296   -1.443818
    132          1           0       15.064383    2.591957   -2.062213
    133          1           0       13.615358    1.670407   -2.003892
    134          1           0       13.903357    1.453101    0.463230
    135          1           0       15.281665    2.725655    1.453838
    136          1           0       15.660821    3.720990    0.105049
    137          1           0       16.683446    2.345843    0.575829
    138          1           0       15.006026   -0.377577    0.178699
    139          1           0       16.514616    0.319449   -0.280794
    140          1           0       15.438327   -0.123508   -1.513238
 ---------------------------------------------------------------------

 SCF Done:  E(RwB97XD) =  -3007.86579390     A.U. after   20 cycles

 Excitation energies and oscillator strengths:

 Excited State   1:      Singlet-A      1.6983 eV  730.05 nm  f=0.3728  <S**2>=0.000
     245 -> 248        0.20138
     246 -> 247        0.67775
     245 <- 248        0.11813
 This state for optimization and/or second-order correction.
 Total Energy, E(TD-HF/TD-DFT) =  -3007.80338253
 Copying the excited state density for this state as the 1-particle RhoCI density.

 Excited State   2:      Singlet-A      2.1299 eV  582.12 nm  f=0.1355  <S**2>=0.000
     245 -> 247        0.64474
     246 -> 248       -0.27278

 Excited State   3:      Singlet-A      3.3827 eV  366.53 nm  f=0.0029  <S**2>=0.000
     241 -> 247       -0.30681
     243 -> 247        0.57718
     244 -> 247       -0.13635

 Excited State   4:      Singlet-A      3.4326 eV  361.20 nm  f=0.0035  <S**2>=0.000
     239 -> 249       -0.11157
     240 -> 247        0.22177
     240 -> 249       -0.14455
     240 -> 250       -0.10287
     241 -> 247        0.24789
     241 -> 249       -0.17154
     242 -> 247        0.45142
     242 -> 249        0.13506
     242 -> 250       -0.16492
     243 -> 247        0.14443

 Excited State   5:      Singlet-A      3.4643 eV  357.89 nm  f=0.0109  <S**2>=0.000
     239 -> 247       -0.12377
     239 -> 249        0.10650
     240 -> 247       -0.22670
     240 -> 249        0.20269
     241 -> 247       -0.27864
     241 -> 250        0.10011
     242 -> 247        0.36517
     242 -> 249        0.18504
     242 -> 250       -0.15463
     243 -> 247       -0.18832
     246 -> 248       -0.14974

 The electronic state is 1-A.
 Alpha  occ. eigenvalues --  -46.94530 -19.30466 -19.30377 -19.26260 -19.23964
 Alpha  occ. eigenvalues --  -19.23692 -19.22730 -14.46689 -14.46441 -14.44177
 Alpha  occ. eigenvalues --  -14.43043 -10.44390 -10.43013 -10.39131 -10.38218
 Alpha  occ. eigenvalues --  -10.35779 -10.35380 -10.35138 -10.34939 -10.34909
 Alpha  occ. eigenvalues --  -10.34659 -10.33946 -10.33823 -10.33449 -10.32834
 Alpha  occ. eigenvalues --  -10.32755 -10.32568 -10.32272 -10.32117 -10.32092
 Alpha  occ. eigenvalues --  -10.31934 -10.31920 -10.31893 -10.31839 -10.31803
 Alpha  occ. eigenvalues --  -10.31363 -10.31232 -10.31182 -10.30854 -10.30815
 Alpha  occ. eigenvalues --  -10.30700 -10.30591 -10.30381 -10.30074 -10.30041
 Alpha  occ. eigenvalues --  -10.29877 -10.29821 -10.29589 -10.29566 -10.29543
 Alpha  occ. eigenvalues --  -10.29527 -10.29500 -10.29346 -10.29300 -10.29087
 Alpha  occ. eigenvalues --  -10.29043 -10.28970 -10.28816 -10.28772 -10.28760
 Alpha  occ. eigenvalues --  -10.28563 -10.28519 -10.28324 -10.28149 -10.28127
 Alpha  occ. eigenvalues --  -10.27606  -3.20554  -1.94166  -1.93667  -1.93543
 Alpha  occ. eigenvalues --   -1.17608  -1.17538  -1.10701  -1.10302  -1.09884
 Alpha  occ. eigenvalues --   -1.08567  -1.07059  -1.06333  -1.05509  -1.04321
 Alpha  occ. eigenvalues --   -0.93775  -0.91992  -0.91735  -0.91083  -0.90908
 Alpha  occ. eigenvalues --   -0.90546  -0.90397  -0.89546  -0.89249  -0.88834
 Alpha  occ. eigenvalues --   -0.87750  -0.86973  -0.86060  -0.85236  -0.84803
 Alpha  occ. eigenvalues --   -0.84131  -0.83831  -0.83194  -0.82676  -0.82290
 Alpha  occ. eigenvalues --   -0.81867  -0.80409  -0.80150  -0.78919  -0.78196
 Alpha  occ. eigenvalues --   -0.77724  -0.77552  -0.77390  -0.76343  -0.76105
 Alpha  occ. eigenvalues --   -0.75120  -0.74500  -0.73848  -0.72147  -0.71811
 Alpha  occ. eigenvalues --   -0.70606  -0.70142  -0.69288  -0.68888  -0.68292
 Alpha  occ. eigenvalues --   -0.68017  -0.66918  -0.66456  -0.66161  -0.65470
 Alpha  occ. eigenvalues --   -0.65137  -0.64983  -0.64141  -0.63928  -0.62071
 Alpha  occ. eigenvalues --   -0.62046  -0.61331  -0.60847  -0.60291  -0.59384
 Alpha  occ. eigenvalues --   -0.59313  -0.58848  -0.58272  -0.57951  -0.57281
 Alpha  occ. eigenvalues --   -0.56905  -0.56854  -0.56672  -0.56297  -0.56206
 Alpha  occ. eigenvalues --   -0.55786  -0.55295  -0.54941  -0.54801  -0.54660
 Alpha  occ. eigenvalues --   -0.54458  -0.53958  -0.53898  -0.53679  -0.53584
 Alpha  occ. eigenvalues --   -0.53168  -0.53076  -0.52762  -0.52658  -0.52406
 Alpha  occ. eigenvalues --   -0.52085  -0.51875  -0.51770  -0.51525  -0.51386
 Alpha  occ. eigenvalues --   -0.50907  -0.50862  -0.50589  -0.50526  -0.50317
 Alpha  occ. eigenvalues --   -0.50144  -0.50094  -0.49977  -0.49918  -0.49580
 Alpha  occ. eigenvalues --   -0.49314  -0.49088  -0.48912  -0.48816  -0.48657
 Alpha  occ. eigenvalues --   -0.48429  -0.48265  -0.47912  -0.47880  -0.47760
 Alpha  occ. eigenvalues --   -0.47529  -0.47487  -0.47192  -0.47073  -0.46773
 Alpha  occ. eigenvalues --   -0.46495  -0.46306  -0.46164  -0.46003  -0.45829
 Alpha  occ. eigenvalues --   -0.45700  -0.45600  -0.45432  -0.45070  -0.44968
 Alpha  occ. eigenvalues --   -0.44744  -0.44533  -0.44341  -0.44174  -0.44077
 Alpha  occ. eigenvalues --   -0.43764  -0.43585  -0.43517  -0.43423  -0.43183
 Alpha  occ. eigenvalues --   -0.42741  -0.42723  -0.42372  -0.42257  -0.42165
 Alpha  occ. eigenvalues --   -0.41640  -0.41408  -0.41115  -0.40878  -0.40303
 Alpha  occ. eigenvalues --   -0.40231  -0.39995  -0.39927  -0.39625  -0.39146
 Alpha  occ. eigenvalues --   -0.38977  -0.38356  -0.38220  -0.38080  -0.37886
 Alpha  occ. eigenvalues --   -0.37767  -0.37683  -0.37431  -0.37169  -0.36387
 Alpha  occ. eigenvalues --   -0.36315  -0.35947  -0.35089  -0.33250  -0.32682
 Alpha  occ. eigenvalues --   -0.32156  -0.31920  -0.31185  -0.31077  -0.25490
 Alpha  occ. eigenvalues --   -0.23104
 Alpha virt. eigenvalues --   -0.06918   0.00162   0.02229   0.04757   0.05426
 Alpha virt. eigenvalues --    0.06718   0.07056   0.07641   0.08154   0.08999
 Alpha virt. eigenvalues --    0.10535   0.10980   0.11677   0.11729   0.12135

 Mulliken charges:
               1
     1  Mg   0.974646
     2  C   -0.077791
     3  C   -0.101006
     4  C   -0.063106
     5  C   -0.066222
     6  N   -0.334011
     7  C   -0.000837
     8  C   -0.079414
     9  C   -0.104978
    10  C    0.060970
    11  C    0.024889
    12  C    0.035643
    13  C    0.006326
    14  C    0.265987
    15  O   -0.254734
    16  O   -0.384830
    17  N   -0.540240
    18  C    0.198764
    19  C   -0.156865
    20  C   -0.056562
    21  C    0.175249
    22  C    0.050788
    23  C    0.002841
    24  O   -0.263608
    25  C    0.015807
    26  N   -0.321293
    27  C    0.023675
    28  C   -0.078196
    29  C   -0.056680
    30  C    0.062738
    31  C    0.028543
    32  C   -0.020931
    33  C   -0.045731
    34  N   -0.372015
    35  C    0.092135
    36  C   -0.169738
    37  C   -0.065206
    38  C    0.110132
    39  C    0.073181
    40  C    0.186698
    41  O   -0.221047
    42  C   -0.062373
    43  C    0.267566
    44  O   -0.259163
    45  O   -0.375901
    46  C    0.135271
    47  C    0.260780
    48  C   -0.151577
    49  C   -0.175203
    50  C   -0.005631
    51  C    0.037665
    52  C   -0.024220
    53  C    0.014299
    54  C   -0.165329
    55  C    0.008729
    56  C   -0.012810
    57  C   -0.063580
    58  C    0.023992
    59  C   -0.193888
    60  C    0.001992
    61  C    0.013104
    62  C   -0.014908
    63  C   -0.020572
    64  C   -0.185622
    65  C    0.005274
    66  C    0.003758
    67  H   -0.010614
    68  H    0.023739
    69  H   -0.015023
    70  H    0.042750
    71  H    0.034850
    72  H    0.033669
    73  H    0.031009
    74  H    0.060250
    75  H    0.026108
    76  H    0.050099
    77  H    0.041154
    78  H    0.053726
    79  H    0.046946
    80  H    0.042846
    81  H    0.052084
    82  H    0.049502
    83  H    0.083035
    84  H    0.057195
    85  H    0.043064
    86  H    0.031023
    87  H    0.039820
    88  H    0.040393
    89  H    0.033441
    90  H    0.026423
    91  H    0.023327
    92  H    0.028114
    93  H    0.044359
    94  H    0.050691
    95  H    0.020105
    96  H    0.065594
    97  H    0.054533
    98  H    0.081431
    99  H    0.083495
   100  H    0.036347
   101  H    0.047058
   102  H    0.051252
   103  H    0.042186
   104  H    0.019634
   105  H    0.064225
   106  H    0.051954
   107  H    0.041114
   108  H    0.025756
   109  H    0.021296
   110  H    0.031185
   111  H    0.015747
   112  H    0.008840
   113  H    0.013666
   114  H    0.012467
   115  H    0.016490
   116  H    0.030309
   117  H    0.034059
   118  H    0.004195
   119  H    0.013552
   120  H    0.042168
   121  H    0.034006
   122  H    0.010271
   123  H    0.010956
   124  H    0.009793
   125  H    0.025215
   126  H    0.024107
   127  H    0.035430
   128  H    0.014721
   129  H    0.007084
   130  H    0.016451
   131  H    0.022758
   132  H    0.019941
   133  H   -0.007958
   134  H    0.019048
   135  H    0.010478
   136  H    0.041823
   137  H    0.023454
   138  H    0.022759
   139  H    0.016906
   140  H    0.034494
 Sum of Mulliken charges =  -0.00000

 Dipole moment (field-independent basis, Debye):
    X=              3.4203    Y=              5.9216    Z=              1.7324  Tot=              7.0545
 Quadrupole moment (field-independent basis, Debye-Ang):
   XX=           -380.8092   YY=           -420.8695   ZZ=           -399.2884
   XY=             -5.2516   XZ=             10.2522   YZ=              6.1607

 Normal termination of Gaussian 16 at Thu May  5 07:46:00 2022.
