 Gaussian 16, Revision A.03,
 Gaussian 16:  ES64L-G16RevA.03 25-Dec-2016

 --------------------
 #p ZINDO=(nstates=5)
 --------------------

 -----------------------------
 step_751_chromophore_10 ZINDO
 -----------------------------
 Symbolic Z-matrix:
 Charge =  0 Multiplicity = 1

                         Standard orientation:
 ---------------------------------------------------------------------
 Center     Atomic      Atomic             Coordinates (Angstroms)
 Number     Number       Type             X           Y           Z
 ---------------------------------------------------------------------
      1         12           0       -5.858590    0.550662    0.032707
      2          6           0       -3.319874   -1.898098    0.237404
      3          6           0       -3.704513    2.836909    0.970030
      4          6           0       -8.469950    2.723031   -0.042333
      5          6           0       -8.059912   -2.040054   -0.801199
      6          7           0       -3.726134    0.405350    0.559614
      7          6           0       -2.871071   -0.601263    0.515536
      8          6           0       -1.525698   -0.181935    1.040103
      9          6           0       -1.737341    1.368606    1.498840
     10          6           0       -3.118038    1.561454    0.993083
     11          6           0       -1.499083    1.782921    3.034032
     12          6           0       -0.432304   -0.310368   -0.044556
     13          6           0        0.977983   -0.919888    0.316715
     14          6           0        1.561125   -2.053599   -0.589756
     15          8           0        0.878593   -2.751694   -1.348034
     16          8           0        2.990550   -1.989337   -0.614103
     17          7           0       -5.997667    2.507640    0.320620
     18          6           0       -4.946153    3.314597    0.632687
     19          6           0       -5.356555    4.690890    0.699560
     20          6           0       -6.743287    4.690910    0.314447
     21          6           0       -7.180274    3.291499    0.240699
     22          6           0       -4.471526    5.835674    1.233657
     23          6           0       -7.572316    5.920286    0.029367
     24          8           0       -8.777385    5.750771   -0.261881
     25          6           0       -7.021691    7.340434    0.163138
     26          7           0       -7.990914    0.340684   -0.319359
     27          6           0       -8.866821    1.354371   -0.245024
     28          6           0      -10.317035    0.950462   -0.446039
     29          6           0      -10.156322   -0.540861   -0.867248
     30          6           0       -8.620100   -0.785509   -0.701705
     31          6           0      -11.190803    1.070554    0.799149
     32          6           0      -10.691323   -0.782044   -2.252861
     33          6           0       -9.802113   -0.381322   -3.445643
     34          7           0       -5.717779   -1.554940   -0.350210
     35          6           0       -6.695895   -2.418273   -0.743292
     36          6           0       -6.260585   -3.776041   -0.783851
     37          6           0       -4.847425   -3.641819   -0.485356
     38          6           0       -4.640304   -2.269305   -0.123776
     39          6           0       -7.107492   -5.018282   -1.120105
     40          6           0       -3.551576   -4.331027   -0.277366
     41          8           0       -3.218084   -5.524211   -0.329514
     42          6           0       -2.533549   -3.237883    0.106007
     43          6           0       -2.044871   -3.525689    1.513649
     44          8           0       -2.731036   -4.019605    2.422051
     45          8           0       -0.701371   -3.216765    1.661370
     46          6           0       -0.070090   -3.434608    2.950742
     47          6           0        3.517840   -2.934931   -1.567538
     48          6           0        4.966972   -2.598493   -1.532413
     49          6           0        5.933172   -3.280874   -0.818275
     50          6           0        5.637727   -4.370107    0.212671
     51          6           0        7.385367   -2.837055   -0.802972
     52          6           0        7.572984   -1.551559    0.041248
     53          6           0        8.367394   -1.764820    1.362083
     54          6           0        9.831267   -1.137344    1.291527
     55          6           0       10.728514   -1.769054    2.346890
     56          6           0        9.922492    0.464681    1.275159
     57          6           0       11.161601    1.096678    0.547320
     58          6           0       10.795096    1.472356   -0.926256
     59          6           0       10.646067    2.974167   -1.229673
     60          6           0        9.335435    3.219021   -1.996842
     61          6           0       11.923323    3.543731   -1.976193
     62          6           0       13.207957    3.539238   -1.157539
     63          6           0       14.235765    2.336068   -1.403318
     64          6           0       14.754055    1.656367   -0.187650
     65          6           0       15.655989    2.681240    0.431739
     66          6           0       15.451388    0.329192   -0.521721
     67          1           0       -2.980396    3.644903    1.091532
     68          1           0       -9.335980    3.385609   -0.100081
     69          1           0       -8.658292   -2.894546   -1.122464
     70          1           0       -1.385240   -0.770116    1.947697
     71          1           0       -1.091717    2.074803    0.977966
     72          1           0       -0.746069    2.569962    2.991754
     73          1           0       -1.029997    0.897560    3.462933
     74          1           0       -2.356677    2.099341    3.627006
     75          1           0       -0.206610    0.686990   -0.423080
     76          1           0       -0.871626   -0.825024   -0.899143
     77          1           0        0.920515   -1.263705    1.349758
     78          1           0        1.615663   -0.037097    0.352454
     79          1           0       -3.976852    6.278278    0.368665
     80          1           0       -3.626928    5.522060    1.847209
     81          1           0       -4.938883    6.659503    1.772130
     82          1           0       -6.089575    7.288897   -0.400699
     83          1           0       -7.026851    7.591430    1.223766
     84          1           0       -7.735796    7.923640   -0.417528
     85          1           0      -10.732297    1.585090   -1.228132
     86          1           0      -10.651590   -1.239620   -0.193101
     87          1           0      -12.231480    1.168803    0.488550
     88          1           0      -10.909240    1.924043    1.415924
     89          1           0      -11.112871    0.181388    1.425872
     90          1           0      -11.655583   -0.277727   -2.311270
     91          1           0      -10.947297   -1.841712   -2.258531
     92          1           0       -9.642079   -1.320798   -3.974264
     93          1           0       -8.739241   -0.199231   -3.284713
     94          1           0      -10.228854    0.409039   -4.062843
     95          1           0       -8.168499   -4.804619   -1.250254
     96          1           0       -6.951175   -5.756064   -0.333118
     97          1           0       -6.879181   -5.524738   -2.057895
     98          1           0       -1.656852   -3.070235   -0.519096
     99          1           0       -0.499388   -4.154803    3.646397
    100          1           0        0.035903   -2.436864    3.377603
    101          1           0        0.955769   -3.738267    2.744433
    102          1           0        3.184853   -2.697779   -2.577722
    103          1           0        3.451473   -3.961289   -1.205861
    104          1           0        5.233508   -1.850848   -2.279922
    105          1           0        5.211673   -5.303979   -0.155406
    106          1           0        4.841726   -3.868445    0.761869
    107          1           0        6.456679   -4.566829    0.904635
    108          1           0        7.814659   -2.526948   -1.756395
    109          1           0        8.041619   -3.622029   -0.426580
    110          1           0        6.650760   -0.993770    0.203881
    111          1           0        8.099978   -0.876765   -0.632606
    112          1           0        8.438447   -2.797587    1.704982
    113          1           0        7.860046   -1.336120    2.226554
    114          1           0       10.254291   -1.252556    0.294149
    115          1           0       11.761095   -1.456398    2.190630
    116          1           0       10.750462   -2.849493    2.206774
    117          1           0       10.478062   -1.483996    3.368782
    118          1           0       10.093304    0.927903    2.246907
    119          1           0        8.938105    0.826750    0.979932
    120          1           0       11.951602    0.346960    0.597849
    121          1           0       11.410528    2.010435    1.088256
    122          1           0        9.840304    0.998296   -1.155789
    123          1           0       11.534758    1.078120   -1.622408
    124          1           0       10.492293    3.485401   -0.279460
    125          1           0        9.326105    4.226535   -2.413072
    126          1           0        8.527858    3.223167   -1.265794
    127          1           0        9.152269    2.423566   -2.719496
    128          1           0       11.770537    4.509622   -2.457397
    129          1           0       11.997634    2.869231   -2.829351
    130          1           0       12.980708    3.610328   -0.094226
    131          1           0       13.760610    4.434296   -1.443818
    132          1           0       15.064383    2.591957   -2.062213
    133          1           0       13.615358    1.670407   -2.003892
    134          1           0       13.903357    1.453101    0.463230
    135          1           0       15.281665    2.725655    1.453838
    136          1           0       15.660821    3.720990    0.105049
    137          1           0       16.683446    2.345843    0.575829
    138          1           0       15.006026   -0.377577    0.178699
    139          1           0       16.514616    0.319449   -0.280794
    140          1           0       15.438327   -0.123508   -1.513238
 ---------------------------------------------------------------------

 SCF Done:  E(RZINDO/S) =  -474.159778388     A.U. after   20 cycles

 Excitation energies and oscillator strengths:

 Excited State   1:      Singlet-A      1.2838 eV  965.73 nm  f=0.5857  <S**2>=0.000
     175 ->178         0.19905
     176 ->177         0.66059
 This state for optimization and/or second-order correction.
 Total Energy, E(CIS/TDA) =  -474.112598030
 Copying the excited state density for this state as the 1-particle RhoCI density.

 Excited State   2:      Singlet-A      1.8953 eV  654.17 nm  f=0.0735  <S**2>=0.000
     175 ->177         0.56131
     176 ->178        -0.40278

 Excited State   3:      Singlet-A      2.8859 eV  429.62 nm  f=0.0015  <S**2>=0.000
     168 ->177         0.30810
     168 ->178        -0.12186
     168 ->179        -0.43590
     168 ->181         0.24031
     168 ->186        -0.22556
     171 ->177        -0.10885

 Excited State   4:      Singlet-A      3.0180 eV  410.81 nm  f=0.4916  <S**2>=0.000
     170 ->177        -0.26826
     170 ->179        -0.20642
     170 ->181        -0.29527
     170 ->186        -0.13526
     170 ->188         0.11160
     175 ->177         0.24422
     176 ->178         0.35217

 Excited State   5:      Singlet-A      3.0330 eV  408.78 nm  f=0.6665  <S**2>=0.000
     170 ->177         0.19005
     170 ->179         0.15385
     170 ->181         0.22450
     170 ->186         0.10695
     173 ->177         0.16288
     175 ->177         0.28554
     176 ->178         0.42107

 The electronic state is 1-A.
 Alpha  occ. eigenvalues --   -1.84517  -1.81836  -1.80767  -1.72289  -1.71459
 Alpha  occ. eigenvalues --   -1.70404  -1.66293  -1.60172  -1.57610  -1.57352
 Alpha  occ. eigenvalues --   -1.55448  -1.51808  -1.48062  -1.47039  -1.45556
 Alpha  occ. eigenvalues --   -1.42977  -1.42450  -1.39916  -1.38952  -1.36679
 Alpha  occ. eigenvalues --   -1.36181  -1.32693  -1.32525  -1.31599  -1.28572
 Alpha  occ. eigenvalues --   -1.28113  -1.23882  -1.21960  -1.21051  -1.18237
 Alpha  occ. eigenvalues --   -1.17562  -1.17047  -1.14621  -1.14052  -1.12838
 Alpha  occ. eigenvalues --   -1.11495  -1.11286  -1.10680  -1.05938  -1.04133
 Alpha  occ. eigenvalues --   -1.02000  -1.01000  -0.99092  -0.98313  -0.97549
 Alpha  occ. eigenvalues --   -0.96109  -0.95183  -0.94675  -0.93167  -0.92824
 Alpha  occ. eigenvalues --   -0.90959  -0.90256  -0.89981  -0.87832  -0.85783
 Alpha  occ. eigenvalues --   -0.85428  -0.83672  -0.82309  -0.81145  -0.80497
 Alpha  occ. eigenvalues --   -0.80217  -0.79352  -0.79265  -0.77511  -0.76284
 Alpha  occ. eigenvalues --   -0.75128  -0.74743  -0.74232  -0.73749  -0.73201
 Alpha  occ. eigenvalues --   -0.73093  -0.72588  -0.71852  -0.71250  -0.70758
 Alpha  occ. eigenvalues --   -0.70564  -0.69709  -0.69268  -0.68574  -0.67991
 Alpha  occ. eigenvalues --   -0.67768  -0.67730  -0.66372  -0.65827  -0.65579
 Alpha  occ. eigenvalues --   -0.65059  -0.64109  -0.64072  -0.63825  -0.63083
 Alpha  occ. eigenvalues --   -0.62610  -0.62256  -0.61955  -0.61813  -0.61401
 Alpha  occ. eigenvalues --   -0.61099  -0.60908  -0.60524  -0.60390  -0.60263
 Alpha  occ. eigenvalues --   -0.59606  -0.59430  -0.58731  -0.58559  -0.58385
 Alpha  occ. eigenvalues --   -0.57908  -0.57733  -0.57396  -0.56817  -0.56396
 Alpha  occ. eigenvalues --   -0.56261  -0.55405  -0.55024  -0.54671  -0.54563
 Alpha  occ. eigenvalues --   -0.54343  -0.54082  -0.53814  -0.53617  -0.53170
 Alpha  occ. eigenvalues --   -0.52657  -0.52416  -0.51985  -0.51834  -0.51342
 Alpha  occ. eigenvalues --   -0.51245  -0.50883  -0.50553  -0.50435  -0.49980
 Alpha  occ. eigenvalues --   -0.49912  -0.49712  -0.49474  -0.49304  -0.49216
 Alpha  occ. eigenvalues --   -0.48238  -0.48124  -0.48051  -0.47871  -0.47754
 Alpha  occ. eigenvalues --   -0.47617  -0.47247  -0.46968  -0.46853  -0.46433
 Alpha  occ. eigenvalues --   -0.46150  -0.45953  -0.45753  -0.44858  -0.44561
 Alpha  occ. eigenvalues --   -0.44522  -0.44379  -0.44244  -0.43776  -0.43609
 Alpha  occ. eigenvalues --   -0.43394  -0.43299  -0.43105  -0.42882  -0.42449
 Alpha  occ. eigenvalues --   -0.41748  -0.41705  -0.40593  -0.40080  -0.38706
 Alpha  occ. eigenvalues --   -0.37482  -0.36883  -0.35732  -0.34720  -0.34158
 Alpha  occ. eigenvalues --   -0.33290  -0.32026  -0.31448  -0.31222  -0.26221
 Alpha  occ. eigenvalues --   -0.21914
 Alpha virt. eigenvalues --   -0.08454  -0.02152  -0.00635   0.00412   0.01721
 Alpha virt. eigenvalues --    0.03098   0.03267   0.03603   0.04180   0.04942
 Alpha virt. eigenvalues --    0.06581   0.06629   0.06852   0.07372   0.08244

 Mulliken charges:
               1
     1  Mg   0.421607
     2  C   -0.046923
     3  C   -0.084807
     4  C   -0.069552
     5  C   -0.062337
     6  N   -0.275785
     7  C    0.127400
     8  C    0.009602
     9  C   -0.011388
    10  C    0.145674
    11  C   -0.052297
    12  C   -0.024535
    13  C    0.000605
    14  C    0.455717
    15  O   -0.491491
    16  O   -0.266211
    17  N   -0.337915
    18  C    0.134669
    19  C    0.006970
    20  C   -0.029772
    21  C    0.133070
    22  C   -0.041552
    23  C    0.315861
    24  O   -0.536057
    25  C   -0.032830
    26  N   -0.253195
    27  C    0.154098
    28  C    0.010800
    29  C    0.001937
    30  C    0.102819
    31  C   -0.045622
    32  C   -0.020271
    33  C   -0.061352
    34  N   -0.311673
    35  C    0.083613
    36  C    0.020191
    37  C   -0.069841
    38  C    0.118500
    39  C   -0.036847
    40  C    0.343413
    41  O   -0.521756
    42  C    0.058424
    43  C    0.480114
    44  O   -0.531364
    45  O   -0.279976
    46  C    0.078244
    47  C    0.104838
    48  C   -0.101034
    49  C   -0.000352
    50  C   -0.047091
    51  C   -0.019981
    52  C   -0.029987
    53  C   -0.033472
    54  C   -0.017336
    55  C   -0.051874
    56  C   -0.048001
    57  C   -0.037473
    58  C   -0.037066
    59  C   -0.011990
    60  C   -0.058041
    61  C   -0.032006
    62  C   -0.038689
    63  C   -0.032136
    64  C    0.007959
    65  C   -0.055198
    66  C   -0.060909
    67  H    0.013298
    68  H    0.044023
    69  H    0.026182
    70  H    0.043207
    71  H    0.031199
    72  H    0.019117
    73  H    0.021203
    74  H    0.038470
    75  H    0.017500
    76  H    0.034576
    77  H    0.045753
    78  H    0.034962
    79  H    0.026015
    80  H    0.025206
    81  H    0.030783
    82  H    0.038677
    83  H    0.056569
    84  H    0.040705
    85  H    0.038080
    86  H    0.027873
    87  H    0.019109
    88  H    0.023008
    89  H    0.021707
    90  H    0.013524
    91  H    0.013465
    92  H    0.014247
    93  H    0.028940
    94  H    0.027698
    95  H    0.020911
    96  H    0.036602
    97  H    0.031905
    98  H    0.068005
    99  H    0.064146
   100  H    0.025785
   101  H    0.025737
   102  H    0.054314
   103  H    0.056205
   104  H    0.028041
   105  H    0.035930
   106  H    0.024391
   107  H    0.025447
   108  H    0.019713
   109  H    0.020575
   110  H    0.023229
   111  H    0.014043
   112  H    0.021998
   113  H    0.013867
   114  H    0.021390
   115  H    0.009390
   116  H    0.015950
   117  H    0.024753
   118  H    0.006805
   119  H    0.020425
   120  H    0.027719
   121  H    0.023864
   122  H    0.017335
   123  H    0.018458
   124  H    0.016430
   125  H    0.015570
   126  H    0.011596
   127  H    0.025094
   128  H    0.018208
   129  H    0.013832
   130  H    0.023003
   131  H    0.010886
   132  H    0.021155
   133  H    0.000990
   134  H    0.026071
   135  H    0.001898
   136  H    0.027690
   137  H    0.017341
   138  H    0.009628
   139  H    0.014057
   140  H    0.026384
 Sum of Mulliken charges =  -0.00000

 Dipole moment (field-independent basis, Debye):
    X=              4.9845    Y=              9.8463    Z=              2.2941  Tot=             11.2720
 N-N= 4.296390379447D+03 E-N= 0.000000000000D+00  KE=-9.267246795737D+03
 Leave Link  601 at Thu May  5 07:58:48 2022, MaxMem=  6710886400 cpu:               0.7 elap:               0.0
 (Enter /sw/apps/gaussian-16.0/g16/l9999.exe)
 1\1\GINC-BP1-COMPUTE063\SP\RZINDO CIS\STO-3G\C55H74Mg1N4O6\OF15641\05-
 May-2022\0\\#p ZINDO=(nstates=5)\\step_751_chromophore_10 ZINDO\\0,1\M
 g,0,41.426,8.005,28.735\C,0,43.006,9.343,31.598\C,0,39.129,6.664,30.65
 1\C,0,40.159,6.651,25.888\C,0,44.045,9.37,26.856\N,0,41.167,8.026,30.9
 21\C,0,41.822,8.652,31.883\C,0,41.269,8.284,33.232\C,0,40.1,7.195,32.9
 05\C,0,40.121,7.287,31.425\C,0,40.208,5.708,33.507\C,0,40.705,9.521,33
 .967\C,0,40.998,9.735,35.503\C,0,41.535,11.125,35.979\O,0,42.076,11.94

 Normal termination of Gaussian 16 at Thu May  5 07:58:48 2022.
