 Gaussian 16, Revision A.03,
 Gaussian 16:  ES64L-G16RevA.03 25-Dec-2016

 ------------------------------
 #p blyp/Def2SVP td=(nstates=5)
 ------------------------------

 --------------------------------------------------
 step_501_chromophore_25 TDDFT with blyp functional
 --------------------------------------------------
 Symbolic Z-matrix:
 Charge =  0 Multiplicity = 1

                         Standard orientation:
 ---------------------------------------------------------------------
 Center     Atomic      Atomic             Coordinates (Angstroms)
 Number     Number       Type             X           Y           Z
 ---------------------------------------------------------------------
      1         12           0        6.037644    0.312060    0.165551
      2          6           0        3.483196   -1.997327    0.106864
      3          6           0        3.615824    2.854370   -0.497574
      4          6           0        8.445264    2.517903   -0.151146
      5          6           0        8.379962   -2.227129    0.644723
      6          7           0        3.819207    0.331222   -0.137377
      7          6           0        2.992311   -0.717072   -0.083548
      8          6           0        1.520459   -0.207917   -0.221698
      9          6           0        1.653989    1.349580   -0.549758
     10          6           0        3.179210    1.538081   -0.437543
     11          6           0        1.281908    1.792935   -1.951589
     12          6           0        0.608667   -0.540016    0.969101
     13          6           0       -0.681783   -1.199352    0.512256
     14          6           0       -1.968126   -1.083727    1.342960
     15          8           0       -2.037173   -0.881158    2.567757
     16          8           0       -3.121421   -1.101119    0.548629
     17          7           0        6.005344    2.408961   -0.187075
     18          6           0        4.962032    3.268177   -0.378902
     19          6           0        5.381282    4.592031   -0.507543
     20          6           0        6.818757    4.545439   -0.536330
     21          6           0        7.163145    3.106083   -0.269484
     22          6           0        4.436806    5.776302   -0.653631
     23          6           0        7.806646    5.665973   -0.817095
     24          8           0        9.009386    5.373536   -0.962850
     25          6           0        7.369165    7.056308   -1.038283
     26          7           0        8.061148    0.138424    0.271861
     27          6           0        8.910343    1.221217    0.170834
     28          6           0       10.440001    0.865929    0.275320
     29          6           0       10.319345   -0.625069    0.809220
     30          6           0        8.836309   -0.944112    0.545901
     31          6           0       11.397682    0.962148   -0.977284
     32          6           0       10.899592   -0.966275    2.256370
     33          6           0       10.039700   -0.541359    3.417292
     34          7           0        6.034073   -1.678436    0.209049
     35          6           0        7.025038   -2.621377    0.405227
     36          6           0        6.518011   -3.932272    0.426567
     37          6           0        5.138149   -3.710507    0.350367
     38          6           0        4.864951   -2.317507    0.221522
     39          6           0        7.376943   -5.102202    0.655588
     40          6           0        3.944710   -4.457085    0.237346
     41          8           0        3.826251   -5.681698    0.161740
     42          6           0        2.748381   -3.378404    0.095139
     43          6           0        2.020895   -3.636002   -1.135156
     44          8           0        2.387154   -3.385795   -2.260698
     45          8           0        0.904639   -4.307312   -0.879945
     46          6           0        0.103819   -4.767583   -1.973858
     47          6           0       -4.338646   -0.552869    1.141609
     48          6           0       -5.318366   -0.438714    0.081983
     49          6           0       -6.024228   -1.405846   -0.503584
     50          6           0       -6.016128   -2.907585   -0.171800
     51          6           0       -6.910381   -0.994591   -1.700043
     52          6           0       -8.379864   -0.577854   -1.407163
     53          6           0       -8.927027    0.478424   -2.365595
     54          6           0       -9.929148   -0.073489   -3.418158
     55          6           0       -9.435667    0.104677   -4.868702
     56          6           0      -11.345726    0.541482   -3.189743
     57          6           0      -11.949062   -0.042678   -1.844346
     58          6           0      -12.615558    1.035289   -0.937534
     59          6           0      -13.900094    0.450361   -0.223222
     60          6           0      -15.026722    0.317914   -1.165602
     61          6           0      -14.297273    1.440840    0.987406
     62          6           0      -13.781009    0.914054    2.318725
     63          6           0      -12.984732    1.966243    3.164104
     64          6           0      -11.916303    1.350856    4.057506
     65          6           0      -11.990589    1.752295    5.538837
     66          6           0      -10.474551    1.671821    3.617691
     67          1           0        2.875994    3.615910   -0.751167
     68          1           0        9.345759    3.129628   -0.233062
     69          1           0        9.146238   -2.990985    0.792692
     70          1           0        1.223801   -0.732585   -1.129334
     71          1           0        0.931061    1.841018    0.102328
     72          1           0        0.853123    1.008836   -2.576356
     73          1           0        2.170356    2.121307   -2.490303
     74          1           0        0.681739    2.702100   -1.904381
     75          1           0        0.361844    0.306438    1.610193
     76          1           0        1.159390   -1.213001    1.625870
     77          1           0       -0.489152   -2.272624    0.532166
     78          1           0       -0.877131   -0.811613   -0.487365
     79          1           0        3.406006    5.499378   -0.432337
     80          1           0        4.396891    6.063805   -1.704504
     81          1           0        4.808771    6.644536   -0.110936
     82          1           0        8.127435    7.619285   -1.583681
     83          1           0        7.286018    7.520693   -0.055178
     84          1           0        6.433735    7.075200   -1.596969
     85          1           0       10.925609    1.368793    1.112238
     86          1           0       10.962937   -1.260391    0.202012
     87          1           0       10.805176    1.317447   -1.819451
     88          1           0       11.637256   -0.047238   -1.314072
     89          1           0       12.315130    1.544049   -0.884442
     90          1           0       11.815280   -0.383759    2.354826
     91          1           0       11.209340   -2.003560    2.377791
     92          1           0       10.212158   -1.261975    4.215949
     93          1           0        8.968056   -0.387498    3.297137
     94          1           0       10.390947    0.447659    3.711560
     95          1           0        8.266000   -4.985734    1.274839
     96          1           0        7.606574   -5.706788   -0.220991
     97          1           0        6.687783   -5.758125    1.186887
     98          1           0        2.082762   -3.508516    0.948223
     99          1           0       -0.637445   -4.030344   -2.284367
    100          1           0       -0.458814   -5.627762   -1.611507
    101          1           0        0.740877   -4.998127   -2.827870
    102          1           0       -4.150721    0.446875    1.534190
    103          1           0       -4.617772   -1.184005    1.985543
    104          1           0       -5.313299    0.603164   -0.237994
    105          1           0       -5.453406   -3.154400    0.728215
    106          1           0       -5.385959   -3.345269   -0.945947
    107          1           0       -6.990929   -3.394251   -0.166427
    108          1           0       -6.992443   -1.869232   -2.345485
    109          1           0       -6.447141   -0.161342   -2.228449
    110          1           0       -8.466919   -0.114201   -0.424491
    111          1           0       -9.105778   -1.388147   -1.475661
    112          1           0       -8.128263    0.961198   -2.928511
    113          1           0       -9.339231    1.192834   -1.652680
    114          1           0       -9.969313   -1.161896   -3.368211
    115          1           0      -10.217800    0.665369   -5.380510
    116          1           0       -9.420735   -0.879006   -5.336781
    117          1           0       -8.450555    0.521485   -5.080294
    118          1           0      -11.953511    0.242480   -4.044385
    119          1           0      -11.328998    1.630390   -3.139691
    120          1           0      -11.122368   -0.415295   -1.239632
    121          1           0      -12.703080   -0.817355   -1.987361
    122          1           0      -12.731340    2.000468   -1.432134
    123          1           0      -11.889127    1.375565   -0.198413
    124          1           0      -13.618848   -0.536381    0.144292
    125          1           0      -15.130441   -0.744082   -1.390671
    126          1           0      -14.885185    0.787816   -2.139529
    127          1           0      -15.996547    0.762123   -0.939977
    128          1           0      -15.374316    1.377257    1.145342
    129          1           0      -14.056132    2.489596    0.816007
    130          1           0      -13.101474    0.069840    2.202710
    131          1           0      -14.641378    0.536431    2.871996
    132          1           0      -13.833322    2.330004    3.743605
    133          1           0      -12.654460    2.888943    2.687158
    134          1           0      -12.009612    0.265598    4.092231
    135          1           0      -11.161491    2.391088    5.843713
    136          1           0      -12.065047    0.833264    6.120852
    137          1           0      -12.914339    2.305855    5.708671
    138          1           0      -10.358875    1.650694    2.533838
    139          1           0       -9.676725    1.009898    3.955479
    140          1           0      -10.184505    2.678752    3.916816
 ---------------------------------------------------------------------

 SCF Done:  E(RB-LYP) =  -3007.37812703     A.U. after   20 cycles

 Excitation energies and oscillator strengths:

 Excited State   1:      Singlet-A      1.7628 eV  703.32 nm  f=0.0078  <S**2>=0.000
     244 -> 247        0.69425
     246 -> 247       -0.10393
 This state for optimization and/or second-order correction.
 Total Energy, E(TD-HF/TD-DFT) =  -3007.31334368
 Copying the excited state density for this state as the 1-particle RhoCI density.

 Excited State   2:      Singlet-A      1.8268 eV  678.69 nm  f=0.2979  <S**2>=0.000
     243 -> 247        0.13001
     244 -> 247        0.11393
     245 -> 248       -0.17633
     246 -> 247        0.66744
     246 <- 247       -0.14710

 Excited State   3:      Singlet-A      1.8874 eV  656.90 nm  f=0.0164  <S**2>=0.000
     243 -> 247        0.69420
     246 -> 247       -0.12717

 Excited State   4:      Singlet-A      2.0475 eV  605.54 nm  f=0.1200  <S**2>=0.000
     245 -> 247        0.64684
     246 -> 248        0.22739

 Excited State   5:      Singlet-A      2.3123 eV  536.19 nm  f=0.0001  <S**2>=0.000
     242 -> 247        0.70672

 The electronic state is 1-A.
 Alpha  occ. eigenvalues --  -46.26266 -18.82007 -18.80987 -18.76682 -18.75627
 Alpha  occ. eigenvalues --  -18.75613 -18.74952 -14.03504 -14.03287 -14.01246
 Alpha  occ. eigenvalues --  -14.00660 -10.04055 -10.03041  -9.99588  -9.99247
 Alpha  occ. eigenvalues --   -9.97391  -9.96942  -9.96755  -9.96731  -9.96698
 Alpha  occ. eigenvalues --   -9.96269  -9.95922  -9.95088  -9.94950  -9.94820
 Alpha  occ. eigenvalues --   -9.94564  -9.94090  -9.94039  -9.93938  -9.93820
 Alpha  occ. eigenvalues --   -9.93714  -9.93676  -9.93663  -9.93659  -9.93576
 Alpha  occ. eigenvalues --   -9.93114  -9.93099  -9.93093  -9.93025  -9.93022
 Alpha  occ. eigenvalues --   -9.92755  -9.92502  -9.92274  -9.92190  -9.92149
 Alpha  occ. eigenvalues --   -9.92148  -9.92140  -9.92106  -9.91985  -9.91953
 Alpha  occ. eigenvalues --   -9.91636  -9.91599  -9.91449  -9.91414  -9.91373
 Alpha  occ. eigenvalues --   -9.91047  -9.90993  -9.90941  -9.90884  -9.90851
 Alpha  occ. eigenvalues --   -9.90767  -9.90670  -9.90655  -9.90603  -9.90255
 Alpha  occ. eigenvalues --   -9.90170  -2.91133  -1.71558  -1.71024  -1.70837
 Alpha  occ. eigenvalues --   -0.99426  -0.96214  -0.90657  -0.90074  -0.89876
 Alpha  occ. eigenvalues --   -0.88514  -0.86967  -0.86093  -0.85733  -0.85074
 Alpha  occ. eigenvalues --   -0.75066  -0.73610  -0.73060  -0.72686  -0.72359
 Alpha  occ. eigenvalues --   -0.72020  -0.71837  -0.71161  -0.71029  -0.70962
 Alpha  occ. eigenvalues --   -0.70219  -0.68977  -0.68163  -0.67836  -0.67213
 Alpha  occ. eigenvalues --   -0.66801  -0.66268  -0.65731  -0.65291  -0.64802
 Alpha  occ. eigenvalues --   -0.64420  -0.62895  -0.62425  -0.61798  -0.61036
 Alpha  occ. eigenvalues --   -0.60704  -0.60224  -0.59641  -0.59405  -0.58966
 Alpha  occ. eigenvalues --   -0.58507  -0.57660  -0.56623  -0.55384  -0.55043
 Alpha  occ. eigenvalues --   -0.54140  -0.53393  -0.52900  -0.51813  -0.51421
 Alpha  occ. eigenvalues --   -0.50862  -0.50721  -0.50610  -0.50484  -0.50294
 Alpha  occ. eigenvalues --   -0.49485  -0.49355  -0.48972  -0.48712  -0.46778
 Alpha  occ. eigenvalues --   -0.46505  -0.46414  -0.45720  -0.45460  -0.44837
 Alpha  occ. eigenvalues --   -0.44258  -0.43524  -0.43227  -0.43212  -0.42685
 Alpha  occ. eigenvalues --   -0.41910  -0.41839  -0.41781  -0.41216  -0.41104
 Alpha  occ. eigenvalues --   -0.40919  -0.40588  -0.40300  -0.40250  -0.40175
 Alpha  occ. eigenvalues --   -0.40050  -0.39758  -0.39624  -0.39408  -0.39154
 Alpha  occ. eigenvalues --   -0.38844  -0.38523  -0.38480  -0.38157  -0.37994
 Alpha  occ. eigenvalues --   -0.37947  -0.37883  -0.37637  -0.37459  -0.37273
 Alpha  occ. eigenvalues --   -0.37065  -0.36978  -0.36810  -0.36625  -0.36455
 Alpha  occ. eigenvalues --   -0.36285  -0.36173  -0.36045  -0.35677  -0.35567
 Alpha  occ. eigenvalues --   -0.35531  -0.35153  -0.34942  -0.34879  -0.34653
 Alpha  occ. eigenvalues --   -0.34587  -0.34570  -0.34273  -0.34037  -0.33933
 Alpha  occ. eigenvalues --   -0.33653  -0.33578  -0.33501  -0.33096  -0.32953
 Alpha  occ. eigenvalues --   -0.32894  -0.32876  -0.32637  -0.32615  -0.32067
 Alpha  occ. eigenvalues --   -0.31960  -0.31706  -0.31617  -0.31434  -0.31151
 Alpha  occ. eigenvalues --   -0.30931  -0.30836  -0.30789  -0.30667  -0.30528
 Alpha  occ. eigenvalues --   -0.30402  -0.30059  -0.29989  -0.29967  -0.29638
 Alpha  occ. eigenvalues --   -0.29579  -0.29534  -0.29458  -0.29071  -0.28882
 Alpha  occ. eigenvalues --   -0.28391  -0.28108  -0.27917  -0.27813  -0.27571
 Alpha  occ. eigenvalues --   -0.27454  -0.27128  -0.26952  -0.26792  -0.26494
 Alpha  occ. eigenvalues --   -0.26325  -0.26250  -0.26117  -0.25466  -0.25337
 Alpha  occ. eigenvalues --   -0.24961  -0.24516  -0.24156  -0.23876  -0.23396
 Alpha  occ. eigenvalues --   -0.22843  -0.22297  -0.22196  -0.21409  -0.20886
 Alpha  occ. eigenvalues --   -0.20506  -0.20367  -0.18687  -0.18269  -0.17476
 Alpha  occ. eigenvalues --   -0.16160
 Alpha virt. eigenvalues --   -0.11871  -0.06844  -0.06014  -0.04473  -0.03762
 Alpha virt. eigenvalues --   -0.02161  -0.02076  -0.01688  -0.00817   0.00042
 Alpha virt. eigenvalues --    0.01371   0.01606   0.01795   0.02230   0.02742

 Mulliken charges:
               1
     1  Mg   0.714668
     2  C   -0.011783
     3  C   -0.100062
     4  C   -0.019449
     5  C   -0.104026
     6  N   -0.202598
     7  C   -0.117762
     8  C    0.072542
     9  C   -0.065342
    10  C    0.090463
    11  C    0.113282
    12  C    0.160993
    13  C    0.091426
    14  C    0.079902
    15  O   -0.210230
    16  O   -0.293341
    17  N   -0.253007
    18  C    0.141427
    19  C   -0.159269
    20  C    0.037646
    21  C    0.126147
    22  C    0.176209
    23  C   -0.089492
    24  O   -0.188855
    25  C    0.153653
    26  N   -0.246889
    27  C   -0.011439
    28  C    0.038092
    29  C    0.008211
    30  C    0.066689
    31  C    0.136565
    32  C    0.070856
    33  C    0.057350
    34  N   -0.281897
    35  C    0.115928
    36  C   -0.136518
    37  C    0.103136
    38  C    0.124151
    39  C    0.173010
    40  C   -0.074902
    41  O   -0.142476
    42  C    0.057802
    43  C    0.078522
    44  O   -0.183086
    45  O   -0.233559
    46  C    0.213534
    47  C    0.328087
    48  C   -0.121014
    49  C   -0.086431
    50  C    0.151050
    51  C    0.148346
    52  C    0.046722
    53  C    0.098237
    54  C   -0.103763
    55  C    0.114066
    56  C    0.124975
    57  C    0.076731
    58  C    0.058763
    59  C   -0.067643
    60  C    0.124616
    61  C    0.127953
    62  C    0.028823
    63  C    0.110423
    64  C   -0.069690
    65  C    0.111059
    66  C    0.080978
    67  H   -0.059621
    68  H   -0.046128
    69  H   -0.065465
    70  H   -0.021051
    71  H   -0.017902
    72  H   -0.005103
    73  H   -0.008197
    74  H   -0.010667
    75  H   -0.015040
    76  H   -0.023104
    77  H    0.019455
    78  H    0.004469
    79  H   -0.008969
    80  H    0.006883
    81  H    0.007135
    82  H   -0.007190
    83  H    0.015109
    84  H   -0.003885
    85  H   -0.024442
    86  H   -0.034335
    87  H   -0.007687
    88  H   -0.018766
    89  H    0.010498
    90  H   -0.023985
    91  H   -0.018186
    92  H   -0.009221
    93  H    0.004864
    94  H   -0.014548
    95  H   -0.000028
    96  H    0.002201
    97  H   -0.005158
    98  H   -0.006591
    99  H    0.005267
   100  H    0.013609
   101  H    0.024001
   102  H   -0.025043
   103  H   -0.011411
   104  H   -0.042258
   105  H   -0.014094
   106  H    0.001973
   107  H    0.007076
   108  H   -0.042290
   109  H   -0.024195
   110  H   -0.034907
   111  H   -0.013904
   112  H   -0.038219
   113  H   -0.029169
   114  H   -0.032576
   115  H   -0.028210
   116  H   -0.027603
   117  H   -0.013144
   118  H   -0.035470
   119  H   -0.022949
   120  H   -0.025411
   121  H   -0.025245
   122  H   -0.039995
   123  H   -0.042647
   124  H   -0.028021
   125  H   -0.019346
   126  H   -0.030785
   127  H   -0.019858
   128  H   -0.046441
   129  H   -0.024288
   130  H   -0.022386
   131  H   -0.024760
   132  H   -0.044968
   133  H   -0.033661
   134  H   -0.035688
   135  H   -0.015616
   136  H   -0.017365
   137  H   -0.031881
   138  H   -0.028196
   139  H   -0.016009
   140  H   -0.017768
 Sum of Mulliken charges =  -0.00000

 Dipole moment (field-independent basis, Debye):
    X=             -1.7679    Y=              2.7835    Z=             -0.1897  Tot=              3.3030
 Quadrupole moment (field-independent basis, Debye-Ang):
   XX=           -366.9802   YY=           -410.1655   ZZ=           -417.1011
   XY=             -1.0790   XZ=             25.7514   YZ=             -0.3788

 Normal termination of Gaussian 16 at Fri Apr 29 23:48:57 2022.
