 Gaussian 16, Revision A.03,
 Gaussian 16:  ES64L-G16RevA.03 25-Dec-2016

 -----------------------------------
 #p cam-b3lyp/Def2SVP td=(nstates=5)
 -----------------------------------

 -------------------------------------------------------
 step_501_chromophore_25 TDDFT with cam-b3lyp functional
 -------------------------------------------------------
 Symbolic Z-matrix:
 Charge =  0 Multiplicity = 1

                         Standard orientation:
 ---------------------------------------------------------------------
 Center     Atomic      Atomic             Coordinates (Angstroms)
 Number     Number       Type             X           Y           Z
 ---------------------------------------------------------------------
      1         12           0        6.037644    0.312060    0.165551
      2          6           0        3.483196   -1.997327    0.106864
      3          6           0        3.615824    2.854370   -0.497574
      4          6           0        8.445264    2.517903   -0.151146
      5          6           0        8.379962   -2.227129    0.644723
      6          7           0        3.819207    0.331222   -0.137377
      7          6           0        2.992311   -0.717072   -0.083548
      8          6           0        1.520459   -0.207917   -0.221698
      9          6           0        1.653989    1.349580   -0.549758
     10          6           0        3.179210    1.538081   -0.437543
     11          6           0        1.281908    1.792935   -1.951589
     12          6           0        0.608667   -0.540016    0.969101
     13          6           0       -0.681783   -1.199352    0.512256
     14          6           0       -1.968126   -1.083727    1.342960
     15          8           0       -2.037173   -0.881158    2.567757
     16          8           0       -3.121421   -1.101119    0.548629
     17          7           0        6.005344    2.408961   -0.187075
     18          6           0        4.962032    3.268177   -0.378902
     19          6           0        5.381282    4.592031   -0.507543
     20          6           0        6.818757    4.545439   -0.536330
     21          6           0        7.163145    3.106083   -0.269484
     22          6           0        4.436806    5.776302   -0.653631
     23          6           0        7.806646    5.665973   -0.817095
     24          8           0        9.009386    5.373536   -0.962850
     25          6           0        7.369165    7.056308   -1.038283
     26          7           0        8.061148    0.138424    0.271861
     27          6           0        8.910343    1.221217    0.170834
     28          6           0       10.440001    0.865929    0.275320
     29          6           0       10.319345   -0.625069    0.809220
     30          6           0        8.836309   -0.944112    0.545901
     31          6           0       11.397682    0.962148   -0.977284
     32          6           0       10.899592   -0.966275    2.256370
     33          6           0       10.039700   -0.541359    3.417292
     34          7           0        6.034073   -1.678436    0.209049
     35          6           0        7.025038   -2.621377    0.405227
     36          6           0        6.518011   -3.932272    0.426567
     37          6           0        5.138149   -3.710507    0.350367
     38          6           0        4.864951   -2.317507    0.221522
     39          6           0        7.376943   -5.102202    0.655588
     40          6           0        3.944710   -4.457085    0.237346
     41          8           0        3.826251   -5.681698    0.161740
     42          6           0        2.748381   -3.378404    0.095139
     43          6           0        2.020895   -3.636002   -1.135156
     44          8           0        2.387154   -3.385795   -2.260698
     45          8           0        0.904639   -4.307312   -0.879945
     46          6           0        0.103819   -4.767583   -1.973858
     47          6           0       -4.338646   -0.552869    1.141609
     48          6           0       -5.318366   -0.438714    0.081983
     49          6           0       -6.024228   -1.405846   -0.503584
     50          6           0       -6.016128   -2.907585   -0.171800
     51          6           0       -6.910381   -0.994591   -1.700043
     52          6           0       -8.379864   -0.577854   -1.407163
     53          6           0       -8.927027    0.478424   -2.365595
     54          6           0       -9.929148   -0.073489   -3.418158
     55          6           0       -9.435667    0.104677   -4.868702
     56          6           0      -11.345726    0.541482   -3.189743
     57          6           0      -11.949062   -0.042678   -1.844346
     58          6           0      -12.615558    1.035289   -0.937534
     59          6           0      -13.900094    0.450361   -0.223222
     60          6           0      -15.026722    0.317914   -1.165602
     61          6           0      -14.297273    1.440840    0.987406
     62          6           0      -13.781009    0.914054    2.318725
     63          6           0      -12.984732    1.966243    3.164104
     64          6           0      -11.916303    1.350856    4.057506
     65          6           0      -11.990589    1.752295    5.538837
     66          6           0      -10.474551    1.671821    3.617691
     67          1           0        2.875994    3.615910   -0.751167
     68          1           0        9.345759    3.129628   -0.233062
     69          1           0        9.146238   -2.990985    0.792692
     70          1           0        1.223801   -0.732585   -1.129334
     71          1           0        0.931061    1.841018    0.102328
     72          1           0        0.853123    1.008836   -2.576356
     73          1           0        2.170356    2.121307   -2.490303
     74          1           0        0.681739    2.702100   -1.904381
     75          1           0        0.361844    0.306438    1.610193
     76          1           0        1.159390   -1.213001    1.625870
     77          1           0       -0.489152   -2.272624    0.532166
     78          1           0       -0.877131   -0.811613   -0.487365
     79          1           0        3.406006    5.499378   -0.432337
     80          1           0        4.396891    6.063805   -1.704504
     81          1           0        4.808771    6.644536   -0.110936
     82          1           0        8.127435    7.619285   -1.583681
     83          1           0        7.286018    7.520693   -0.055178
     84          1           0        6.433735    7.075200   -1.596969
     85          1           0       10.925609    1.368793    1.112238
     86          1           0       10.962937   -1.260391    0.202012
     87          1           0       10.805176    1.317447   -1.819451
     88          1           0       11.637256   -0.047238   -1.314072
     89          1           0       12.315130    1.544049   -0.884442
     90          1           0       11.815280   -0.383759    2.354826
     91          1           0       11.209340   -2.003560    2.377791
     92          1           0       10.212158   -1.261975    4.215949
     93          1           0        8.968056   -0.387498    3.297137
     94          1           0       10.390947    0.447659    3.711560
     95          1           0        8.266000   -4.985734    1.274839
     96          1           0        7.606574   -5.706788   -0.220991
     97          1           0        6.687783   -5.758125    1.186887
     98          1           0        2.082762   -3.508516    0.948223
     99          1           0       -0.637445   -4.030344   -2.284367
    100          1           0       -0.458814   -5.627762   -1.611507
    101          1           0        0.740877   -4.998127   -2.827870
    102          1           0       -4.150721    0.446875    1.534190
    103          1           0       -4.617772   -1.184005    1.985543
    104          1           0       -5.313299    0.603164   -0.237994
    105          1           0       -5.453406   -3.154400    0.728215
    106          1           0       -5.385959   -3.345269   -0.945947
    107          1           0       -6.990929   -3.394251   -0.166427
    108          1           0       -6.992443   -1.869232   -2.345485
    109          1           0       -6.447141   -0.161342   -2.228449
    110          1           0       -8.466919   -0.114201   -0.424491
    111          1           0       -9.105778   -1.388147   -1.475661
    112          1           0       -8.128263    0.961198   -2.928511
    113          1           0       -9.339231    1.192834   -1.652680
    114          1           0       -9.969313   -1.161896   -3.368211
    115          1           0      -10.217800    0.665369   -5.380510
    116          1           0       -9.420735   -0.879006   -5.336781
    117          1           0       -8.450555    0.521485   -5.080294
    118          1           0      -11.953511    0.242480   -4.044385
    119          1           0      -11.328998    1.630390   -3.139691
    120          1           0      -11.122368   -0.415295   -1.239632
    121          1           0      -12.703080   -0.817355   -1.987361
    122          1           0      -12.731340    2.000468   -1.432134
    123          1           0      -11.889127    1.375565   -0.198413
    124          1           0      -13.618848   -0.536381    0.144292
    125          1           0      -15.130441   -0.744082   -1.390671
    126          1           0      -14.885185    0.787816   -2.139529
    127          1           0      -15.996547    0.762123   -0.939977
    128          1           0      -15.374316    1.377257    1.145342
    129          1           0      -14.056132    2.489596    0.816007
    130          1           0      -13.101474    0.069840    2.202710
    131          1           0      -14.641378    0.536431    2.871996
    132          1           0      -13.833322    2.330004    3.743605
    133          1           0      -12.654460    2.888943    2.687158
    134          1           0      -12.009612    0.265598    4.092231
    135          1           0      -11.161491    2.391088    5.843713
    136          1           0      -12.065047    0.833264    6.120852
    137          1           0      -12.914339    2.305855    5.708671
    138          1           0      -10.358875    1.650694    2.533838
    139          1           0       -9.676725    1.009898    3.955479
    140          1           0      -10.184505    2.678752    3.916816
 ---------------------------------------------------------------------

 SCF Done:  E(RCAM-B3LYP) =  -3007.17719298     A.U. after   16 cycles

 Excitation energies and oscillator strengths:

 Excited State   1:      Singlet-A      1.7074 eV  726.16 nm  f=0.4091  <S**2>=0.000
     245 -> 248        0.17310
     246 -> 247        0.68671
     245 <- 248        0.10557
 This state for optimization and/or second-order correction.
 Total Energy, E(TD-HF/TD-DFT) =  -3007.11444728
 Copying the excited state density for this state as the 1-particle RhoCI density.

 Excited State   2:      Singlet-A      2.2215 eV  558.12 nm  f=0.1685  <S**2>=0.000
     245 -> 247        0.65327
     246 -> 248       -0.25437

 Excited State   3:      Singlet-A      3.3260 eV  372.77 nm  f=0.0029  <S**2>=0.000
     244 -> 247        0.68145

 Excited State   4:      Singlet-A      3.4019 eV  364.45 nm  f=0.0022  <S**2>=0.000
     241 -> 247        0.44795
     241 -> 249       -0.21098
     241 -> 250        0.16221
     243 -> 247        0.42529

 Excited State   5:      Singlet-A      3.4979 eV  354.45 nm  f=0.0059  <S**2>=0.000
     241 -> 247       -0.41462
     241 -> 249        0.10971
     243 -> 247        0.50722
     246 -> 248        0.16761

 The electronic state is 1-A.
 Alpha  occ. eigenvalues --  -46.87715 -19.25008 -19.23896 -19.19730 -19.18756
 Alpha  occ. eigenvalues --  -19.18635 -19.18260 -14.42346 -14.42195 -14.39741
 Alpha  occ. eigenvalues --  -14.38993 -10.39522 -10.38433 -10.34887 -10.34563
 Alpha  occ. eigenvalues --  -10.31530 -10.31361 -10.31244 -10.31223 -10.30767
 Alpha  occ. eigenvalues --  -10.30765 -10.30176 -10.29419 -10.29090 -10.29012
 Alpha  occ. eigenvalues --  -10.28567 -10.28357 -10.28331 -10.28310 -10.28140
 Alpha  occ. eigenvalues --  -10.27825 -10.27761 -10.27738 -10.27675 -10.27596
 Alpha  occ. eigenvalues --  -10.27526 -10.27320 -10.27229 -10.27032 -10.26792
 Alpha  occ. eigenvalues --  -10.26371 -10.26316 -10.26301 -10.26215 -10.26179
 Alpha  occ. eigenvalues --  -10.25889 -10.25855 -10.25756 -10.25681 -10.25670
 Alpha  occ. eigenvalues --  -10.25338 -10.25256 -10.25083 -10.25056 -10.24957
 Alpha  occ. eigenvalues --  -10.24872 -10.24694 -10.24671 -10.24583 -10.24539
 Alpha  occ. eigenvalues --  -10.24535 -10.24317 -10.24255 -10.24191 -10.23784
 Alpha  occ. eigenvalues --  -10.23738  -3.16499  -1.91396  -1.90971  -1.90803
 Alpha  occ. eigenvalues --   -1.18093  -1.14675  -1.08901  -1.08521  -1.07935
 Alpha  occ. eigenvalues --   -1.06390  -1.04627  -1.03732  -1.03374  -1.02589
 Alpha  occ. eigenvalues --   -0.92152  -0.90464  -0.89881  -0.89461  -0.89139
 Alpha  occ. eigenvalues --   -0.88714  -0.88427  -0.87843  -0.87551  -0.87543
 Alpha  occ. eigenvalues --   -0.86817  -0.85401  -0.84403  -0.83973  -0.83312
 Alpha  occ. eigenvalues --   -0.82880  -0.82553  -0.81707  -0.81130  -0.80702
 Alpha  occ. eigenvalues --   -0.80247  -0.78603  -0.78182  -0.77281  -0.76439
 Alpha  occ. eigenvalues --   -0.76051  -0.75525  -0.74958  -0.74700  -0.74210
 Alpha  occ. eigenvalues --   -0.73586  -0.72665  -0.71496  -0.70201  -0.69632
 Alpha  occ. eigenvalues --   -0.68779  -0.67945  -0.67418  -0.66134  -0.65525
 Alpha  occ. eigenvalues --   -0.65008  -0.64793  -0.64632  -0.64449  -0.64356
 Alpha  occ. eigenvalues --   -0.63427  -0.63103  -0.62866  -0.62451  -0.60462
 Alpha  occ. eigenvalues --   -0.60171  -0.60009  -0.59217  -0.58805  -0.58452
 Alpha  occ. eigenvalues --   -0.57751  -0.56839  -0.56515  -0.56386  -0.56010
 Alpha  occ. eigenvalues --   -0.54932  -0.54765  -0.54702  -0.54422  -0.53960
 Alpha  occ. eigenvalues --   -0.53654  -0.53392  -0.53185  -0.52931  -0.52836
 Alpha  occ. eigenvalues --   -0.52645  -0.52557  -0.52364  -0.52140  -0.51679
 Alpha  occ. eigenvalues --   -0.51440  -0.51405  -0.50797  -0.50675  -0.50366
 Alpha  occ. eigenvalues --   -0.50331  -0.50191  -0.50042  -0.49924  -0.49674
 Alpha  occ. eigenvalues --   -0.49495  -0.49284  -0.49202  -0.49141  -0.48896
 Alpha  occ. eigenvalues --   -0.48489  -0.48435  -0.48194  -0.48024  -0.47751
 Alpha  occ. eigenvalues --   -0.47576  -0.47209  -0.46890  -0.46739  -0.46511
 Alpha  occ. eigenvalues --   -0.46480  -0.46313  -0.46112  -0.45842  -0.45634
 Alpha  occ. eigenvalues --   -0.45443  -0.45285  -0.45201  -0.44745  -0.44706
 Alpha  occ. eigenvalues --   -0.44642  -0.44600  -0.44429  -0.44331  -0.43907
 Alpha  occ. eigenvalues --   -0.43616  -0.43507  -0.43085  -0.42979  -0.42733
 Alpha  occ. eigenvalues --   -0.42655  -0.42289  -0.42135  -0.42082  -0.41855
 Alpha  occ. eigenvalues --   -0.41741  -0.41732  -0.41373  -0.41307  -0.41300
 Alpha  occ. eigenvalues --   -0.41044  -0.40869  -0.40551  -0.40464  -0.40070
 Alpha  occ. eigenvalues --   -0.39588  -0.39198  -0.38919  -0.38738  -0.38425
 Alpha  occ. eigenvalues --   -0.38400  -0.37953  -0.37738  -0.37727  -0.37583
 Alpha  occ. eigenvalues --   -0.37106  -0.37006  -0.36648  -0.36512  -0.36382
 Alpha  occ. eigenvalues --   -0.35918  -0.35642  -0.35031  -0.34396  -0.34047
 Alpha  occ. eigenvalues --   -0.33919  -0.33164  -0.33142  -0.31492  -0.30803
 Alpha  occ. eigenvalues --   -0.30581  -0.30487  -0.30089  -0.29797  -0.24160
 Alpha  occ. eigenvalues --   -0.21518
 Alpha virt. eigenvalues --   -0.09131  -0.01466   0.00446   0.02443   0.03190
 Alpha virt. eigenvalues --    0.03860   0.05526   0.05707   0.05938   0.06702
 Alpha virt. eigenvalues --    0.07660   0.08127   0.08593   0.08654   0.08911

 Mulliken charges:
               1
     1  Mg   0.851062
     2  C   -0.035856
     3  C   -0.103657
     4  C   -0.040259
     5  C   -0.102503
     6  N   -0.276363
     7  C   -0.069380
     8  C    0.020857
     9  C   -0.110185
    10  C    0.098103
    11  C    0.051622
    12  C    0.101541
    13  C    0.020533
    14  C    0.169206
    15  O   -0.251108
    16  O   -0.357424
    17  N   -0.341560
    18  C    0.146990
    19  C   -0.163234
    20  C   -0.029712
    21  C    0.149064
    22  C    0.116745
    23  C   -0.008203
    24  O   -0.229763
    25  C    0.068349
    26  N   -0.320711
    27  C    0.008234
    28  C   -0.016859
    29  C   -0.037930
    30  C    0.071406
    31  C    0.076346
    32  C    0.018559
    33  C   -0.003927
    34  N   -0.375144
    35  C    0.118466
    36  C   -0.127212
    37  C    0.017122
    38  C    0.159516
    39  C    0.116591
    40  C    0.022620
    41  O   -0.183490
    42  C   -0.015778
    43  C    0.166386
    44  O   -0.219808
    45  O   -0.296433
    46  C    0.173439
    47  C    0.291063
    48  C   -0.144035
    49  C   -0.108521
    50  C    0.089335
    51  C    0.090836
    52  C   -0.002957
    53  C    0.042123
    54  C   -0.158815
    55  C    0.055867
    56  C    0.071274
    57  C    0.022162
    58  C    0.018365
    59  C   -0.126380
    60  C    0.059074
    61  C    0.070788
    62  C   -0.015957
    63  C    0.050279
    64  C   -0.134956
    65  C    0.051938
    66  C    0.025667
    67  H   -0.024894
    68  H   -0.005791
    69  H   -0.029390
    70  H    0.012597
    71  H    0.016443
    72  H    0.020861
    73  H    0.020074
    74  H    0.013316
    75  H    0.018111
    76  H    0.009389
    77  H    0.047439
    78  H    0.036731
    79  H    0.019091
    80  H    0.033896
    81  H    0.033648
    82  H    0.029322
    83  H    0.043903
    84  H    0.024084
    85  H    0.010640
    86  H    0.001478
    87  H    0.018184
    88  H    0.006764
    89  H    0.034759
    90  H    0.004164
    91  H    0.008816
    92  H    0.015013
    93  H    0.027267
    94  H    0.007723
    95  H    0.025149
    96  H    0.030927
    97  H    0.022254
    98  H    0.036140
    99  H    0.026126
   100  H    0.037275
   101  H    0.050485
   102  H    0.005519
   103  H    0.018648
   104  H   -0.009242
   105  H    0.011598
   106  H    0.026417
   107  H    0.030538
   108  H   -0.012698
   109  H    0.005293
   110  H   -0.005746
   111  H    0.009966
   112  H   -0.009733
   113  H   -0.000867
   114  H   -0.000788
   115  H   -0.002836
   116  H   -0.002940
   117  H    0.011142
   118  H   -0.005975
   119  H    0.004764
   120  H    0.000163
   121  H    0.002229
   122  H   -0.011988
   123  H   -0.018035
   124  H    0.004171
   125  H    0.004516
   126  H   -0.005066
   127  H    0.006779
   128  H   -0.014893
   129  H    0.003281
   130  H    0.002346
   131  H    0.002689
   132  H   -0.013812
   133  H   -0.004781
   134  H   -0.002703
   135  H    0.008321
   136  H    0.007006
   137  H   -0.006544
   138  H   -0.006061
   139  H    0.009350
   140  H    0.004574
 Sum of Mulliken charges =  -0.00000

 Dipole moment (field-independent basis, Debye):
    X=             -1.8117    Y=              3.4800    Z=             -0.2988  Tot=              3.9347
 Quadrupole moment (field-independent basis, Debye-Ang):
   XX=           -365.5987   YY=           -405.3587   ZZ=           -417.3841
   XY=              1.9200   XZ=             26.2676   YZ=             -1.0328

 Normal termination of Gaussian 16 at Fri Apr 29 22:30:54 2022.
