 Gaussian 16, Revision A.03,
 Gaussian 16:  ES64L-G16RevA.03 25-Dec-2016

 ---------------------------------
 #p PBE1PBE/Def2SVP td=(nstates=5)
 ---------------------------------

 -----------------------------------------------------
 step_501_chromophore_25 TDDFT with PBE1PBE functional
 -----------------------------------------------------
 Symbolic Z-matrix:
 Charge =  0 Multiplicity = 1

                         Standard orientation:
 ---------------------------------------------------------------------
 Center     Atomic      Atomic             Coordinates (Angstroms)
 Number     Number       Type             X           Y           Z
 ---------------------------------------------------------------------
      1         12           0        6.037644    0.312060    0.165551
      2          6           0        3.483196   -1.997327    0.106864
      3          6           0        3.615824    2.854370   -0.497574
      4          6           0        8.445264    2.517903   -0.151146
      5          6           0        8.379962   -2.227129    0.644723
      6          7           0        3.819207    0.331222   -0.137377
      7          6           0        2.992311   -0.717072   -0.083548
      8          6           0        1.520459   -0.207917   -0.221698
      9          6           0        1.653989    1.349580   -0.549758
     10          6           0        3.179210    1.538081   -0.437543
     11          6           0        1.281908    1.792935   -1.951589
     12          6           0        0.608667   -0.540016    0.969101
     13          6           0       -0.681783   -1.199352    0.512256
     14          6           0       -1.968126   -1.083727    1.342960
     15          8           0       -2.037173   -0.881158    2.567757
     16          8           0       -3.121421   -1.101119    0.548629
     17          7           0        6.005344    2.408961   -0.187075
     18          6           0        4.962032    3.268177   -0.378902
     19          6           0        5.381282    4.592031   -0.507543
     20          6           0        6.818757    4.545439   -0.536330
     21          6           0        7.163145    3.106083   -0.269484
     22          6           0        4.436806    5.776302   -0.653631
     23          6           0        7.806646    5.665973   -0.817095
     24          8           0        9.009386    5.373536   -0.962850
     25          6           0        7.369165    7.056308   -1.038283
     26          7           0        8.061148    0.138424    0.271861
     27          6           0        8.910343    1.221217    0.170834
     28          6           0       10.440001    0.865929    0.275320
     29          6           0       10.319345   -0.625069    0.809220
     30          6           0        8.836309   -0.944112    0.545901
     31          6           0       11.397682    0.962148   -0.977284
     32          6           0       10.899592   -0.966275    2.256370
     33          6           0       10.039700   -0.541359    3.417292
     34          7           0        6.034073   -1.678436    0.209049
     35          6           0        7.025038   -2.621377    0.405227
     36          6           0        6.518011   -3.932272    0.426567
     37          6           0        5.138149   -3.710507    0.350367
     38          6           0        4.864951   -2.317507    0.221522
     39          6           0        7.376943   -5.102202    0.655588
     40          6           0        3.944710   -4.457085    0.237346
     41          8           0        3.826251   -5.681698    0.161740
     42          6           0        2.748381   -3.378404    0.095139
     43          6           0        2.020895   -3.636002   -1.135156
     44          8           0        2.387154   -3.385795   -2.260698
     45          8           0        0.904639   -4.307312   -0.879945
     46          6           0        0.103819   -4.767583   -1.973858
     47          6           0       -4.338646   -0.552869    1.141609
     48          6           0       -5.318366   -0.438714    0.081983
     49          6           0       -6.024228   -1.405846   -0.503584
     50          6           0       -6.016128   -2.907585   -0.171800
     51          6           0       -6.910381   -0.994591   -1.700043
     52          6           0       -8.379864   -0.577854   -1.407163
     53          6           0       -8.927027    0.478424   -2.365595
     54          6           0       -9.929148   -0.073489   -3.418158
     55          6           0       -9.435667    0.104677   -4.868702
     56          6           0      -11.345726    0.541482   -3.189743
     57          6           0      -11.949062   -0.042678   -1.844346
     58          6           0      -12.615558    1.035289   -0.937534
     59          6           0      -13.900094    0.450361   -0.223222
     60          6           0      -15.026722    0.317914   -1.165602
     61          6           0      -14.297273    1.440840    0.987406
     62          6           0      -13.781009    0.914054    2.318725
     63          6           0      -12.984732    1.966243    3.164104
     64          6           0      -11.916303    1.350856    4.057506
     65          6           0      -11.990589    1.752295    5.538837
     66          6           0      -10.474551    1.671821    3.617691
     67          1           0        2.875994    3.615910   -0.751167
     68          1           0        9.345759    3.129628   -0.233062
     69          1           0        9.146238   -2.990985    0.792692
     70          1           0        1.223801   -0.732585   -1.129334
     71          1           0        0.931061    1.841018    0.102328
     72          1           0        0.853123    1.008836   -2.576356
     73          1           0        2.170356    2.121307   -2.490303
     74          1           0        0.681739    2.702100   -1.904381
     75          1           0        0.361844    0.306438    1.610193
     76          1           0        1.159390   -1.213001    1.625870
     77          1           0       -0.489152   -2.272624    0.532166
     78          1           0       -0.877131   -0.811613   -0.487365
     79          1           0        3.406006    5.499378   -0.432337
     80          1           0        4.396891    6.063805   -1.704504
     81          1           0        4.808771    6.644536   -0.110936
     82          1           0        8.127435    7.619285   -1.583681
     83          1           0        7.286018    7.520693   -0.055178
     84          1           0        6.433735    7.075200   -1.596969
     85          1           0       10.925609    1.368793    1.112238
     86          1           0       10.962937   -1.260391    0.202012
     87          1           0       10.805176    1.317447   -1.819451
     88          1           0       11.637256   -0.047238   -1.314072
     89          1           0       12.315130    1.544049   -0.884442
     90          1           0       11.815280   -0.383759    2.354826
     91          1           0       11.209340   -2.003560    2.377791
     92          1           0       10.212158   -1.261975    4.215949
     93          1           0        8.968056   -0.387498    3.297137
     94          1           0       10.390947    0.447659    3.711560
     95          1           0        8.266000   -4.985734    1.274839
     96          1           0        7.606574   -5.706788   -0.220991
     97          1           0        6.687783   -5.758125    1.186887
     98          1           0        2.082762   -3.508516    0.948223
     99          1           0       -0.637445   -4.030344   -2.284367
    100          1           0       -0.458814   -5.627762   -1.611507
    101          1           0        0.740877   -4.998127   -2.827870
    102          1           0       -4.150721    0.446875    1.534190
    103          1           0       -4.617772   -1.184005    1.985543
    104          1           0       -5.313299    0.603164   -0.237994
    105          1           0       -5.453406   -3.154400    0.728215
    106          1           0       -5.385959   -3.345269   -0.945947
    107          1           0       -6.990929   -3.394251   -0.166427
    108          1           0       -6.992443   -1.869232   -2.345485
    109          1           0       -6.447141   -0.161342   -2.228449
    110          1           0       -8.466919   -0.114201   -0.424491
    111          1           0       -9.105778   -1.388147   -1.475661
    112          1           0       -8.128263    0.961198   -2.928511
    113          1           0       -9.339231    1.192834   -1.652680
    114          1           0       -9.969313   -1.161896   -3.368211
    115          1           0      -10.217800    0.665369   -5.380510
    116          1           0       -9.420735   -0.879006   -5.336781
    117          1           0       -8.450555    0.521485   -5.080294
    118          1           0      -11.953511    0.242480   -4.044385
    119          1           0      -11.328998    1.630390   -3.139691
    120          1           0      -11.122368   -0.415295   -1.239632
    121          1           0      -12.703080   -0.817355   -1.987361
    122          1           0      -12.731340    2.000468   -1.432134
    123          1           0      -11.889127    1.375565   -0.198413
    124          1           0      -13.618848   -0.536381    0.144292
    125          1           0      -15.130441   -0.744082   -1.390671
    126          1           0      -14.885185    0.787816   -2.139529
    127          1           0      -15.996547    0.762123   -0.939977
    128          1           0      -15.374316    1.377257    1.145342
    129          1           0      -14.056132    2.489596    0.816007
    130          1           0      -13.101474    0.069840    2.202710
    131          1           0      -14.641378    0.536431    2.871996
    132          1           0      -13.833322    2.330004    3.743605
    133          1           0      -12.654460    2.888943    2.687158
    134          1           0      -12.009612    0.265598    4.092231
    135          1           0      -11.161491    2.391088    5.843713
    136          1           0      -12.065047    0.833264    6.120852
    137          1           0      -12.914339    2.305855    5.708671
    138          1           0      -10.358875    1.650694    2.533838
    139          1           0       -9.676725    1.009898    3.955479
    140          1           0      -10.184505    2.678752    3.916816
 ---------------------------------------------------------------------

 SCF Done:  E(RPBE1PBE) =  -3005.36552723     A.U. after   15 cycles

 Excitation energies and oscillator strengths:

 Excited State   1:      Singlet-A      1.8687 eV  663.48 nm  f=0.3921  <S**2>=0.000
     245 -> 248       -0.16605
     246 -> 247        0.69326
     246 <- 247       -0.11096
 This state for optimization and/or second-order correction.
 Total Energy, E(TD-HF/TD-DFT) =  -3005.29685373
 Copying the excited state density for this state as the 1-particle RhoCI density.

 Excited State   2:      Singlet-A      2.2398 eV  553.54 nm  f=0.1585  <S**2>=0.000
     245 -> 247        0.65947
     246 -> 248        0.23559

 Excited State   3:      Singlet-A      2.8718 eV  431.72 nm  f=0.0002  <S**2>=0.000
     240 -> 247       -0.14473
     242 -> 247        0.23743
     244 -> 247        0.62040
     244 -> 249        0.11064

 Excited State   4:      Singlet-A      2.9081 eV  426.35 nm  f=0.0000  <S**2>=0.000
     242 -> 247        0.15974
     243 -> 247        0.65613
     243 -> 248       -0.10198
     243 -> 249       -0.14088

 Excited State   5:      Singlet-A      3.0255 eV  409.79 nm  f=0.0047  <S**2>=0.000
     240 -> 247       -0.17035
     242 -> 247        0.59901
     243 -> 247       -0.12401
     244 -> 247       -0.29551

 The electronic state is 1-A.
 Alpha  occ. eigenvalues --  -46.91133 -19.25593 -19.24573 -19.19999 -19.18957
 Alpha  occ. eigenvalues --  -19.18931 -19.18436 -14.41887 -14.41704 -14.39359
 Alpha  occ. eigenvalues --  -14.38703 -10.36555 -10.35349 -10.31957 -10.31750
 Alpha  occ. eigenvalues --  -10.29248 -10.28975 -10.28965 -10.28549 -10.28412
 Alpha  occ. eigenvalues --  -10.28096 -10.27963 -10.27020 -10.26834 -10.26820
 Alpha  occ. eigenvalues --  -10.26404 -10.26190 -10.25991 -10.25968 -10.25903
 Alpha  occ. eigenvalues --  -10.25621 -10.25487 -10.25412 -10.25223 -10.25216
 Alpha  occ. eigenvalues --  -10.25068 -10.25021 -10.24868 -10.24616 -10.24445
 Alpha  occ. eigenvalues --  -10.23944 -10.23855 -10.23756 -10.23671 -10.23601
 Alpha  occ. eigenvalues --  -10.23531 -10.23416 -10.23410 -10.23236 -10.23154
 Alpha  occ. eigenvalues --  -10.22923 -10.22909 -10.22645 -10.22627 -10.22485
 Alpha  occ. eigenvalues --  -10.22397 -10.22361 -10.22270 -10.22179 -10.22119
 Alpha  occ. eigenvalues --  -10.22070 -10.21871 -10.21669 -10.21573 -10.21153
 Alpha  occ. eigenvalues --  -10.21122  -3.13491  -1.86331  -1.85884  -1.85719
 Alpha  occ. eigenvalues --   -1.12850  -1.09452  -1.03699  -1.03179  -1.02706
 Alpha  occ. eigenvalues --   -1.01230  -0.99320  -0.98397  -0.97975  -0.97252
 Alpha  occ. eigenvalues --   -0.86509  -0.84601  -0.84083  -0.83591  -0.83401
 Alpha  occ. eigenvalues --   -0.82849  -0.82705  -0.82118  -0.81930  -0.81664
 Alpha  occ. eigenvalues --   -0.81107  -0.79652  -0.78611  -0.78245  -0.77554
 Alpha  occ. eigenvalues --   -0.77058  -0.76696  -0.75986  -0.75411  -0.75054
 Alpha  occ. eigenvalues --   -0.74391  -0.72891  -0.72426  -0.71606  -0.70786
 Alpha  occ. eigenvalues --   -0.70232  -0.69860  -0.69058  -0.68816  -0.68386
 Alpha  occ. eigenvalues --   -0.68054  -0.66981  -0.65929  -0.64496  -0.63989
 Alpha  occ. eigenvalues --   -0.63277  -0.62161  -0.61847  -0.60375  -0.59990
 Alpha  occ. eigenvalues --   -0.59519  -0.59184  -0.58995  -0.58947  -0.58452
 Alpha  occ. eigenvalues --   -0.57687  -0.57537  -0.57075  -0.57005  -0.54978
 Alpha  occ. eigenvalues --   -0.54723  -0.54357  -0.53775  -0.53458  -0.52935
 Alpha  occ. eigenvalues --   -0.52284  -0.51328  -0.50998  -0.50843  -0.50435
 Alpha  occ. eigenvalues --   -0.49477  -0.49230  -0.49197  -0.48953  -0.48528
 Alpha  occ. eigenvalues --   -0.48117  -0.47866  -0.47807  -0.47487  -0.47260
 Alpha  occ. eigenvalues --   -0.47050  -0.46964  -0.46801  -0.46716  -0.46228
 Alpha  occ. eigenvalues --   -0.46033  -0.45953  -0.45318  -0.45229  -0.44963
 Alpha  occ. eigenvalues --   -0.44896  -0.44750  -0.44614  -0.44502  -0.44251
 Alpha  occ. eigenvalues --   -0.44085  -0.43866  -0.43819  -0.43694  -0.43498
 Alpha  occ. eigenvalues --   -0.43114  -0.43083  -0.42789  -0.42678  -0.42409
 Alpha  occ. eigenvalues --   -0.42161  -0.41918  -0.41619  -0.41384  -0.41261
 Alpha  occ. eigenvalues --   -0.41201  -0.40961  -0.40833  -0.40606  -0.40276
 Alpha  occ. eigenvalues --   -0.40246  -0.39985  -0.39833  -0.39521  -0.39486
 Alpha  occ. eigenvalues --   -0.39356  -0.39269  -0.39109  -0.39087  -0.38651
 Alpha  occ. eigenvalues --   -0.38418  -0.38257  -0.37917  -0.37694  -0.37570
 Alpha  occ. eigenvalues --   -0.37496  -0.37062  -0.36949  -0.36831  -0.36643
 Alpha  occ. eigenvalues --   -0.36485  -0.36474  -0.36206  -0.36104  -0.36017
 Alpha  occ. eigenvalues --   -0.35920  -0.35722  -0.35408  -0.35316  -0.34870
 Alpha  occ. eigenvalues --   -0.34411  -0.34141  -0.33857  -0.33518  -0.33368
 Alpha  occ. eigenvalues --   -0.33173  -0.32741  -0.32703  -0.32518  -0.32397
 Alpha  occ. eigenvalues --   -0.31885  -0.31797  -0.31733  -0.31466  -0.31396
 Alpha  occ. eigenvalues --   -0.30821  -0.30550  -0.29949  -0.29584  -0.28943
 Alpha  occ. eigenvalues --   -0.28732  -0.28574  -0.28122  -0.27151  -0.25894
 Alpha  occ. eigenvalues --   -0.25776  -0.25527  -0.25449  -0.25316  -0.21129
 Alpha  occ. eigenvalues --   -0.19130
 Alpha virt. eigenvalues --   -0.11530  -0.05069  -0.03755  -0.01943  -0.00725
 Alpha virt. eigenvalues --    0.00281   0.01043   0.01346   0.01771   0.02929
 Alpha virt. eigenvalues --    0.04185   0.04532   0.04616   0.05133   0.05624

 Mulliken charges:
               1
     1  Mg   1.006628
     2  C   -0.042679
     3  C   -0.076616
     4  C   -0.038494
     5  C   -0.083352
     6  N   -0.386157
     7  C    0.006397
     8  C   -0.045399
     9  C   -0.182157
    10  C    0.115511
    11  C   -0.001952
    12  C    0.052251
    13  C   -0.063752
    14  C    0.238208
    15  O   -0.283520
    16  O   -0.387002
    17  N   -0.461189
    18  C    0.165935
    19  C   -0.181899
    20  C   -0.081046
    21  C    0.179465
    22  C    0.054079
    23  C    0.041461
    24  O   -0.265854
    25  C   -0.004807
    26  N   -0.429637
    27  C    0.041001
    28  C   -0.093005
    29  C   -0.097406
    30  C    0.099399
    31  C    0.017716
    32  C   -0.048793
    33  C   -0.072808
    34  N   -0.510295
    35  C    0.139255
    36  C   -0.136675
    37  C   -0.047328
    38  C    0.214535
    39  C    0.063633
    40  C    0.116526
    41  O   -0.228496
    42  C   -0.117911
    43  C    0.264504
    44  O   -0.257913
    45  O   -0.333309
    46  C    0.119581
    47  C    0.249003
    48  C   -0.154736
    49  C   -0.150332
    50  C    0.024839
    51  C    0.026952
    52  C   -0.065343
    53  C   -0.008684
    54  C   -0.245577
    55  C   -0.001243
    56  C    0.012856
    57  C   -0.046707
    58  C   -0.026974
    59  C   -0.221416
    60  C    0.005407
    61  C    0.015431
    62  C   -0.076477
    63  C   -0.001527
    64  C   -0.231880
    65  C   -0.006198
    66  C   -0.036086
    67  H    0.005455
    68  H    0.026986
    69  H    0.000950
    70  H    0.052698
    71  H    0.051310
    72  H    0.048275
    73  H    0.049261
    74  H    0.040587
    75  H    0.048894
    76  H    0.043566
    77  H    0.083075
    78  H    0.068049
    79  H    0.046439
    80  H    0.061886
    81  H    0.061926
    82  H    0.056564
    83  H    0.070714
    84  H    0.051055
    85  H    0.049304
    86  H    0.039520
    87  H    0.046443
    88  H    0.033719
    89  H    0.060759
    90  H    0.038183
    91  H    0.039349
    92  H    0.042957
    93  H    0.056345
    94  H    0.035192
    95  H    0.050472
    96  H    0.059190
    97  H    0.051347
    98  H    0.072493
    99  H    0.048014
   100  H    0.059018
   101  H    0.071041
   102  H    0.032485
   103  H    0.044460
   104  H    0.020337
   105  H    0.039351
   106  H    0.055052
   107  H    0.057112
   108  H    0.021355
   109  H    0.036606
   110  H    0.027375
   111  H    0.039894
   112  H    0.022492
   113  H    0.032287
   114  H    0.037273
   115  H    0.025046
   116  H    0.024853
   117  H    0.037057
   118  H    0.027416
   119  H    0.036622
   120  H    0.039110
   121  H    0.035268
   122  H    0.018630
   123  H    0.017078
   124  H    0.040927
   125  H    0.031213
   126  H    0.022669
   127  H    0.033332
   128  H    0.018956
   129  H    0.033879
   130  H    0.034752
   131  H    0.034709
   132  H    0.020141
   133  H    0.025118
   134  H    0.034826
   135  H    0.034687
   136  H    0.034416
   137  H    0.021233
   138  H    0.023334
   139  H    0.037499
   140  H    0.032170
 Sum of Mulliken charges =  -0.00000

 Dipole moment (field-independent basis, Debye):
    X=             -1.7665    Y=              3.3181    Z=             -0.2941  Tot=              3.7705
 Quadrupole moment (field-independent basis, Debye-Ang):
   XX=           -359.0540   YY=           -402.4787   ZZ=           -414.8393
   XY=              0.0865   XZ=             27.2202   YZ=             -1.2223

 Normal termination of Gaussian 16 at Fri Apr 29 22:56:26 2022.
