 Gaussian 16, Revision A.03,
 Gaussian 16:  ES64L-G16RevA.03 25-Dec-2016

 --------------------------------
 #p wB97XD/Def2SVP td=(nstates=5)
 --------------------------------

 ----------------------------------------------------
 step_501_chromophore_25 TDDFT with wB97XD functional
 ----------------------------------------------------
 Symbolic Z-matrix:
 Charge =  0 Multiplicity = 1

                         Standard orientation:
 ---------------------------------------------------------------------
 Center     Atomic      Atomic             Coordinates (Angstroms)
 Number     Number       Type             X           Y           Z
 ---------------------------------------------------------------------
      1         12           0        6.037644    0.312060    0.165551
      2          6           0        3.483196   -1.997327    0.106864
      3          6           0        3.615824    2.854370   -0.497574
      4          6           0        8.445264    2.517903   -0.151146
      5          6           0        8.379962   -2.227129    0.644723
      6          7           0        3.819207    0.331222   -0.137377
      7          6           0        2.992311   -0.717072   -0.083548
      8          6           0        1.520459   -0.207917   -0.221698
      9          6           0        1.653989    1.349580   -0.549758
     10          6           0        3.179210    1.538081   -0.437543
     11          6           0        1.281908    1.792935   -1.951589
     12          6           0        0.608667   -0.540016    0.969101
     13          6           0       -0.681783   -1.199352    0.512256
     14          6           0       -1.968126   -1.083727    1.342960
     15          8           0       -2.037173   -0.881158    2.567757
     16          8           0       -3.121421   -1.101119    0.548629
     17          7           0        6.005344    2.408961   -0.187075
     18          6           0        4.962032    3.268177   -0.378902
     19          6           0        5.381282    4.592031   -0.507543
     20          6           0        6.818757    4.545439   -0.536330
     21          6           0        7.163145    3.106083   -0.269484
     22          6           0        4.436806    5.776302   -0.653631
     23          6           0        7.806646    5.665973   -0.817095
     24          8           0        9.009386    5.373536   -0.962850
     25          6           0        7.369165    7.056308   -1.038283
     26          7           0        8.061148    0.138424    0.271861
     27          6           0        8.910343    1.221217    0.170834
     28          6           0       10.440001    0.865929    0.275320
     29          6           0       10.319345   -0.625069    0.809220
     30          6           0        8.836309   -0.944112    0.545901
     31          6           0       11.397682    0.962148   -0.977284
     32          6           0       10.899592   -0.966275    2.256370
     33          6           0       10.039700   -0.541359    3.417292
     34          7           0        6.034073   -1.678436    0.209049
     35          6           0        7.025038   -2.621377    0.405227
     36          6           0        6.518011   -3.932272    0.426567
     37          6           0        5.138149   -3.710507    0.350367
     38          6           0        4.864951   -2.317507    0.221522
     39          6           0        7.376943   -5.102202    0.655588
     40          6           0        3.944710   -4.457085    0.237346
     41          8           0        3.826251   -5.681698    0.161740
     42          6           0        2.748381   -3.378404    0.095139
     43          6           0        2.020895   -3.636002   -1.135156
     44          8           0        2.387154   -3.385795   -2.260698
     45          8           0        0.904639   -4.307312   -0.879945
     46          6           0        0.103819   -4.767583   -1.973858
     47          6           0       -4.338646   -0.552869    1.141609
     48          6           0       -5.318366   -0.438714    0.081983
     49          6           0       -6.024228   -1.405846   -0.503584
     50          6           0       -6.016128   -2.907585   -0.171800
     51          6           0       -6.910381   -0.994591   -1.700043
     52          6           0       -8.379864   -0.577854   -1.407163
     53          6           0       -8.927027    0.478424   -2.365595
     54          6           0       -9.929148   -0.073489   -3.418158
     55          6           0       -9.435667    0.104677   -4.868702
     56          6           0      -11.345726    0.541482   -3.189743
     57          6           0      -11.949062   -0.042678   -1.844346
     58          6           0      -12.615558    1.035289   -0.937534
     59          6           0      -13.900094    0.450361   -0.223222
     60          6           0      -15.026722    0.317914   -1.165602
     61          6           0      -14.297273    1.440840    0.987406
     62          6           0      -13.781009    0.914054    2.318725
     63          6           0      -12.984732    1.966243    3.164104
     64          6           0      -11.916303    1.350856    4.057506
     65          6           0      -11.990589    1.752295    5.538837
     66          6           0      -10.474551    1.671821    3.617691
     67          1           0        2.875994    3.615910   -0.751167
     68          1           0        9.345759    3.129628   -0.233062
     69          1           0        9.146238   -2.990985    0.792692
     70          1           0        1.223801   -0.732585   -1.129334
     71          1           0        0.931061    1.841018    0.102328
     72          1           0        0.853123    1.008836   -2.576356
     73          1           0        2.170356    2.121307   -2.490303
     74          1           0        0.681739    2.702100   -1.904381
     75          1           0        0.361844    0.306438    1.610193
     76          1           0        1.159390   -1.213001    1.625870
     77          1           0       -0.489152   -2.272624    0.532166
     78          1           0       -0.877131   -0.811613   -0.487365
     79          1           0        3.406006    5.499378   -0.432337
     80          1           0        4.396891    6.063805   -1.704504
     81          1           0        4.808771    6.644536   -0.110936
     82          1           0        8.127435    7.619285   -1.583681
     83          1           0        7.286018    7.520693   -0.055178
     84          1           0        6.433735    7.075200   -1.596969
     85          1           0       10.925609    1.368793    1.112238
     86          1           0       10.962937   -1.260391    0.202012
     87          1           0       10.805176    1.317447   -1.819451
     88          1           0       11.637256   -0.047238   -1.314072
     89          1           0       12.315130    1.544049   -0.884442
     90          1           0       11.815280   -0.383759    2.354826
     91          1           0       11.209340   -2.003560    2.377791
     92          1           0       10.212158   -1.261975    4.215949
     93          1           0        8.968056   -0.387498    3.297137
     94          1           0       10.390947    0.447659    3.711560
     95          1           0        8.266000   -4.985734    1.274839
     96          1           0        7.606574   -5.706788   -0.220991
     97          1           0        6.687783   -5.758125    1.186887
     98          1           0        2.082762   -3.508516    0.948223
     99          1           0       -0.637445   -4.030344   -2.284367
    100          1           0       -0.458814   -5.627762   -1.611507
    101          1           0        0.740877   -4.998127   -2.827870
    102          1           0       -4.150721    0.446875    1.534190
    103          1           0       -4.617772   -1.184005    1.985543
    104          1           0       -5.313299    0.603164   -0.237994
    105          1           0       -5.453406   -3.154400    0.728215
    106          1           0       -5.385959   -3.345269   -0.945947
    107          1           0       -6.990929   -3.394251   -0.166427
    108          1           0       -6.992443   -1.869232   -2.345485
    109          1           0       -6.447141   -0.161342   -2.228449
    110          1           0       -8.466919   -0.114201   -0.424491
    111          1           0       -9.105778   -1.388147   -1.475661
    112          1           0       -8.128263    0.961198   -2.928511
    113          1           0       -9.339231    1.192834   -1.652680
    114          1           0       -9.969313   -1.161896   -3.368211
    115          1           0      -10.217800    0.665369   -5.380510
    116          1           0       -9.420735   -0.879006   -5.336781
    117          1           0       -8.450555    0.521485   -5.080294
    118          1           0      -11.953511    0.242480   -4.044385
    119          1           0      -11.328998    1.630390   -3.139691
    120          1           0      -11.122368   -0.415295   -1.239632
    121          1           0      -12.703080   -0.817355   -1.987361
    122          1           0      -12.731340    2.000468   -1.432134
    123          1           0      -11.889127    1.375565   -0.198413
    124          1           0      -13.618848   -0.536381    0.144292
    125          1           0      -15.130441   -0.744082   -1.390671
    126          1           0      -14.885185    0.787816   -2.139529
    127          1           0      -15.996547    0.762123   -0.939977
    128          1           0      -15.374316    1.377257    1.145342
    129          1           0      -14.056132    2.489596    0.816007
    130          1           0      -13.101474    0.069840    2.202710
    131          1           0      -14.641378    0.536431    2.871996
    132          1           0      -13.833322    2.330004    3.743605
    133          1           0      -12.654460    2.888943    2.687158
    134          1           0      -12.009612    0.265598    4.092231
    135          1           0      -11.161491    2.391088    5.843713
    136          1           0      -12.065047    0.833264    6.120852
    137          1           0      -12.914339    2.305855    5.708671
    138          1           0      -10.358875    1.650694    2.533838
    139          1           0       -9.676725    1.009898    3.955479
    140          1           0      -10.184505    2.678752    3.916816
 ---------------------------------------------------------------------

 SCF Done:  E(RwB97XD) =  -3007.87222813     A.U. after   19 cycles

 Excitation energies and oscillator strengths:

 Excited State   1:      Singlet-A      1.6484 eV  752.16 nm  f=0.4075  <S**2>=0.000
     245 -> 248        0.17852
     246 -> 247        0.68442
     245 <- 248        0.11456
 This state for optimization and/or second-order correction.
 Total Energy, E(TD-HF/TD-DFT) =  -3007.81165113
 Copying the excited state density for this state as the 1-particle RhoCI density.

 Excited State   2:      Singlet-A      2.1651 eV  572.66 nm  f=0.1645  <S**2>=0.000
     245 -> 247        0.65106
     246 -> 248       -0.25737

 Excited State   3:      Singlet-A      3.3540 eV  369.66 nm  f=0.0034  <S**2>=0.000
     243 -> 249       -0.10378
     244 -> 247        0.67476

 Excited State   4:      Singlet-A      3.4424 eV  360.17 nm  f=0.0030  <S**2>=0.000
     241 -> 247        0.35999
     241 -> 249       -0.21071
     241 -> 250        0.16128
     243 -> 247        0.48645
     244 -> 249       -0.11745
     246 -> 248        0.10503

 Excited State   5:      Singlet-A      3.5280 eV  351.43 nm  f=0.0115  <S**2>=0.000
     241 -> 247        0.48520
     241 -> 249       -0.12460
     243 -> 247       -0.39662
     246 -> 248       -0.22220

 The electronic state is 1-A.
 Alpha  occ. eigenvalues --  -46.94070 -19.30193 -19.29148 -19.24684 -19.23697
 Alpha  occ. eigenvalues --  -19.23669 -19.23318 -14.46952 -14.46819 -14.44353
 Alpha  occ. eigenvalues --  -14.43592 -10.43354 -10.42223 -10.38866 -10.38580
 Alpha  occ. eigenvalues --  -10.35594 -10.35305 -10.35231 -10.35067 -10.34838
 Alpha  occ. eigenvalues --  -10.34635 -10.34163 -10.33454 -10.33090 -10.33005
 Alpha  occ. eigenvalues --  -10.32629 -10.32468 -10.32465 -10.32396 -10.32209
 Alpha  occ. eigenvalues --  -10.31872 -10.31756 -10.31669 -10.31666 -10.31657
 Alpha  occ. eigenvalues --  -10.31637 -10.31415 -10.31276 -10.30992 -10.30714
 Alpha  occ. eigenvalues --  -10.30324 -10.30294 -10.30198 -10.30184 -10.30039
 Alpha  occ. eigenvalues --  -10.29877 -10.29803 -10.29672 -10.29633 -10.29537
 Alpha  occ. eigenvalues --  -10.29286 -10.29187 -10.29024 -10.28992 -10.28779
 Alpha  occ. eigenvalues --  -10.28745 -10.28700 -10.28630 -10.28517 -10.28469
 Alpha  occ. eigenvalues --  -10.28437 -10.28231 -10.28082 -10.27998 -10.27595
 Alpha  occ. eigenvalues --  -10.27537  -3.20262  -1.93856  -1.93408  -1.93241
 Alpha  occ. eigenvalues --   -1.20255  -1.16853  -1.11131  -1.10746  -1.10096
 Alpha  occ. eigenvalues --   -1.08596  -1.06641  -1.05787  -1.05377  -1.04628
 Alpha  occ. eigenvalues --   -0.94111  -0.92270  -0.91720  -0.91253  -0.91053
 Alpha  occ. eigenvalues --   -0.90502  -0.90284  -0.89771  -0.89480  -0.89319
 Alpha  occ. eigenvalues --   -0.88762  -0.87311  -0.86268  -0.85871  -0.85183
 Alpha  occ. eigenvalues --   -0.84715  -0.84463  -0.83628  -0.83043  -0.82662
 Alpha  occ. eigenvalues --   -0.82060  -0.80538  -0.80133  -0.79199  -0.78379
 Alpha  occ. eigenvalues --   -0.77900  -0.77450  -0.76742  -0.76498  -0.76045
 Alpha  occ. eigenvalues --   -0.75573  -0.74592  -0.73468  -0.72119  -0.71539
 Alpha  occ. eigenvalues --   -0.70779  -0.69807  -0.69421  -0.68006  -0.67478
 Alpha  occ. eigenvalues --   -0.67011  -0.66640  -0.66603  -0.66411  -0.66145
 Alpha  occ. eigenvalues --   -0.65258  -0.65080  -0.64696  -0.64406  -0.62454
 Alpha  occ. eigenvalues --   -0.62149  -0.61898  -0.61204  -0.60798  -0.60400
 Alpha  occ. eigenvalues --   -0.59736  -0.58780  -0.58421  -0.58320  -0.57915
 Alpha  occ. eigenvalues --   -0.56903  -0.56656  -0.56626  -0.56344  -0.55903
 Alpha  occ. eigenvalues --   -0.55534  -0.55285  -0.55144  -0.54839  -0.54700
 Alpha  occ. eigenvalues --   -0.54560  -0.54417  -0.54251  -0.54064  -0.53573
 Alpha  occ. eigenvalues --   -0.53366  -0.53349  -0.52681  -0.52583  -0.52276
 Alpha  occ. eigenvalues --   -0.52264  -0.52103  -0.51964  -0.51875  -0.51581
 Alpha  occ. eigenvalues --   -0.51422  -0.51200  -0.51110  -0.51012  -0.50825
 Alpha  occ. eigenvalues --   -0.50375  -0.50370  -0.50077  -0.49928  -0.49685
 Alpha  occ. eigenvalues --   -0.49450  -0.49145  -0.48828  -0.48606  -0.48455
 Alpha  occ. eigenvalues --   -0.48407  -0.48185  -0.48032  -0.47765  -0.47497
 Alpha  occ. eigenvalues --   -0.47367  -0.47172  -0.47055  -0.46665  -0.46637
 Alpha  occ. eigenvalues --   -0.46546  -0.46489  -0.46301  -0.46244  -0.45816
 Alpha  occ. eigenvalues --   -0.45569  -0.45439  -0.45024  -0.44839  -0.44649
 Alpha  occ. eigenvalues --   -0.44619  -0.44193  -0.44027  -0.43976  -0.43765
 Alpha  occ. eigenvalues --   -0.43668  -0.43597  -0.43341  -0.43229  -0.43160
 Alpha  occ. eigenvalues --   -0.42989  -0.42780  -0.42411  -0.42371  -0.41947
 Alpha  occ. eigenvalues --   -0.41460  -0.41106  -0.40900  -0.40578  -0.40319
 Alpha  occ. eigenvalues --   -0.40252  -0.39778  -0.39646  -0.39575  -0.39428
 Alpha  occ. eigenvalues --   -0.38938  -0.38850  -0.38742  -0.38507  -0.38310
 Alpha  occ. eigenvalues --   -0.37765  -0.37638  -0.36868  -0.36389  -0.35961
 Alpha  occ. eigenvalues --   -0.35834  -0.35422  -0.34980  -0.33718  -0.32738
 Alpha  occ. eigenvalues --   -0.32597  -0.32506  -0.32251  -0.31975  -0.26081
 Alpha  occ. eigenvalues --   -0.23327
 Alpha virt. eigenvalues --   -0.07495   0.00458   0.02495   0.04547   0.06019
 Alpha virt. eigenvalues --    0.06258   0.07792   0.08132   0.08258   0.09352
 Alpha virt. eigenvalues --    0.10751   0.11202   0.11458   0.11913   0.12388

 Mulliken charges:
               1
     1  Mg   0.993646
     2  C   -0.047204
     3  C   -0.104560
     4  C   -0.051314
     5  C   -0.103454
     6  N   -0.349605
     7  C   -0.024164
     8  C   -0.021273
     9  C   -0.159579
    10  C    0.115910
    11  C    0.006401
    12  C    0.059841
    13  C   -0.039916
    14  C    0.228419
    15  O   -0.280739
    16  O   -0.386162
    17  N   -0.425542
    18  C    0.160389
    19  C   -0.175029
    20  C   -0.073981
    21  C    0.171577
    22  C    0.066580
    23  C    0.038255
    24  O   -0.260073
    25  C    0.004630
    26  N   -0.396086
    27  C    0.027712
    28  C   -0.070238
    29  C   -0.076113
    30  C    0.086868
    31  C    0.029241
    32  C   -0.031284
    33  C   -0.058374
    34  N   -0.470059
    35  C    0.131956
    36  C   -0.134161
    37  C   -0.038041
    38  C    0.195340
    39  C    0.072279
    40  C    0.096969
    41  O   -0.219108
    42  C   -0.080442
    43  C    0.235151
    44  O   -0.250570
    45  O   -0.329405
    46  C    0.134394
    47  C    0.259209
    48  C   -0.162658
    49  C   -0.139775
    50  C    0.038831
    51  C    0.047139
    52  C   -0.048175
    53  C    0.004803
    54  C   -0.212922
    55  C    0.009198
    56  C    0.027660
    57  C   -0.024141
    58  C   -0.014883
    59  C   -0.184364
    60  C    0.010966
    61  C    0.028269
    62  C   -0.056100
    63  C    0.007978
    64  C   -0.201170
    65  C    0.005645
    66  C   -0.022563
    67  H   -0.002100
    68  H    0.022082
    69  H   -0.004485
    70  H    0.036212
    71  H    0.042721
    72  H    0.043892
    73  H    0.041039
    74  H    0.035361
    75  H    0.042767
    76  H    0.034690
    77  H    0.072787
    78  H    0.060882
    79  H    0.042681
    80  H    0.056922
    81  H    0.056674
    82  H    0.055925
    83  H    0.067292
    84  H    0.044905
    85  H    0.038656
    86  H    0.027429
    87  H    0.039801
    88  H    0.027365
    89  H    0.056895
    90  H    0.029245
    91  H    0.033026
    92  H    0.038072
    93  H    0.047895
    94  H    0.028857
    95  H    0.046253
    96  H    0.055540
    97  H    0.045713
    98  H    0.065862
    99  H    0.043725
   100  H    0.055755
   101  H    0.067368
   102  H    0.028818
   103  H    0.040337
   104  H    0.017558
   105  H    0.034181
   106  H    0.048536
   107  H    0.052653
   108  H    0.013169
   109  H    0.027845
   110  H    0.018989
   111  H    0.029283
   112  H    0.011521
   113  H    0.022624
   114  H    0.023611
   115  H    0.018371
   116  H    0.019380
   117  H    0.032076
   118  H    0.019350
   119  H    0.027431
   120  H    0.022906
   121  H    0.025969
   122  H    0.009301
   123  H    0.004870
   124  H    0.028737
   125  H    0.026020
   126  H    0.015822
   127  H    0.028443
   128  H    0.010148
   129  H    0.026116
   130  H    0.021100
   131  H    0.028033
   132  H    0.010453
   133  H    0.017952
   134  H    0.023962
   135  H    0.028605
   136  H    0.029369
   137  H    0.014346
   138  H    0.015825
   139  H    0.032274
   140  H    0.024281
 Sum of Mulliken charges =  -0.00000

 Dipole moment (field-independent basis, Debye):
    X=             -1.8141    Y=              3.5892    Z=             -0.3376  Tot=              4.0358
 Quadrupole moment (field-independent basis, Debye-Ang):
   XX=           -360.3074   YY=           -400.6094   ZZ=           -414.4997
   XY=              2.0925   XZ=             26.8697   YZ=             -1.3394

 Normal termination of Gaussian 16 at Fri Apr 29 23:31:16 2022.
