 Gaussian 16, Revision A.03,
 Gaussian 16:  ES64L-G16RevA.03 25-Dec-2016

 --------------------
 #p ZINDO=(nstates=5)
 --------------------

 -----------------------------
 step_501_chromophore_25 ZINDO
 -----------------------------
 Symbolic Z-matrix:
 Charge =  0 Multiplicity = 1

                         Standard orientation:
 ---------------------------------------------------------------------
 Center     Atomic      Atomic             Coordinates (Angstroms)
 Number     Number       Type             X           Y           Z
 ---------------------------------------------------------------------
      1         12           0        6.037644    0.312060    0.165551
      2          6           0        3.483196   -1.997327    0.106864
      3          6           0        3.615824    2.854370   -0.497574
      4          6           0        8.445264    2.517903   -0.151146
      5          6           0        8.379962   -2.227129    0.644723
      6          7           0        3.819207    0.331222   -0.137377
      7          6           0        2.992311   -0.717072   -0.083548
      8          6           0        1.520459   -0.207917   -0.221698
      9          6           0        1.653989    1.349580   -0.549758
     10          6           0        3.179210    1.538081   -0.437543
     11          6           0        1.281908    1.792935   -1.951589
     12          6           0        0.608667   -0.540016    0.969101
     13          6           0       -0.681783   -1.199352    0.512256
     14          6           0       -1.968126   -1.083727    1.342960
     15          8           0       -2.037173   -0.881158    2.567757
     16          8           0       -3.121421   -1.101119    0.548629
     17          7           0        6.005344    2.408961   -0.187075
     18          6           0        4.962032    3.268177   -0.378902
     19          6           0        5.381282    4.592031   -0.507543
     20          6           0        6.818757    4.545439   -0.536330
     21          6           0        7.163145    3.106083   -0.269484
     22          6           0        4.436806    5.776302   -0.653631
     23          6           0        7.806646    5.665973   -0.817095
     24          8           0        9.009386    5.373536   -0.962850
     25          6           0        7.369165    7.056308   -1.038283
     26          7           0        8.061148    0.138424    0.271861
     27          6           0        8.910343    1.221217    0.170834
     28          6           0       10.440001    0.865929    0.275320
     29          6           0       10.319345   -0.625069    0.809220
     30          6           0        8.836309   -0.944112    0.545901
     31          6           0       11.397682    0.962148   -0.977284
     32          6           0       10.899592   -0.966275    2.256370
     33          6           0       10.039700   -0.541359    3.417292
     34          7           0        6.034073   -1.678436    0.209049
     35          6           0        7.025038   -2.621377    0.405227
     36          6           0        6.518011   -3.932272    0.426567
     37          6           0        5.138149   -3.710507    0.350367
     38          6           0        4.864951   -2.317507    0.221522
     39          6           0        7.376943   -5.102202    0.655588
     40          6           0        3.944710   -4.457085    0.237346
     41          8           0        3.826251   -5.681698    0.161740
     42          6           0        2.748381   -3.378404    0.095139
     43          6           0        2.020895   -3.636002   -1.135156
     44          8           0        2.387154   -3.385795   -2.260698
     45          8           0        0.904639   -4.307312   -0.879945
     46          6           0        0.103819   -4.767583   -1.973858
     47          6           0       -4.338646   -0.552869    1.141609
     48          6           0       -5.318366   -0.438714    0.081983
     49          6           0       -6.024228   -1.405846   -0.503584
     50          6           0       -6.016128   -2.907585   -0.171800
     51          6           0       -6.910381   -0.994591   -1.700043
     52          6           0       -8.379864   -0.577854   -1.407163
     53          6           0       -8.927027    0.478424   -2.365595
     54          6           0       -9.929148   -0.073489   -3.418158
     55          6           0       -9.435667    0.104677   -4.868702
     56          6           0      -11.345726    0.541482   -3.189743
     57          6           0      -11.949062   -0.042678   -1.844346
     58          6           0      -12.615558    1.035289   -0.937534
     59          6           0      -13.900094    0.450361   -0.223222
     60          6           0      -15.026722    0.317914   -1.165602
     61          6           0      -14.297273    1.440840    0.987406
     62          6           0      -13.781009    0.914054    2.318725
     63          6           0      -12.984732    1.966243    3.164104
     64          6           0      -11.916303    1.350856    4.057506
     65          6           0      -11.990589    1.752295    5.538837
     66          6           0      -10.474551    1.671821    3.617691
     67          1           0        2.875994    3.615910   -0.751167
     68          1           0        9.345759    3.129628   -0.233062
     69          1           0        9.146238   -2.990985    0.792692
     70          1           0        1.223801   -0.732585   -1.129334
     71          1           0        0.931061    1.841018    0.102328
     72          1           0        0.853123    1.008836   -2.576356
     73          1           0        2.170356    2.121307   -2.490303
     74          1           0        0.681739    2.702100   -1.904381
     75          1           0        0.361844    0.306438    1.610193
     76          1           0        1.159390   -1.213001    1.625870
     77          1           0       -0.489152   -2.272624    0.532166
     78          1           0       -0.877131   -0.811613   -0.487365
     79          1           0        3.406006    5.499378   -0.432337
     80          1           0        4.396891    6.063805   -1.704504
     81          1           0        4.808771    6.644536   -0.110936
     82          1           0        8.127435    7.619285   -1.583681
     83          1           0        7.286018    7.520693   -0.055178
     84          1           0        6.433735    7.075200   -1.596969
     85          1           0       10.925609    1.368793    1.112238
     86          1           0       10.962937   -1.260391    0.202012
     87          1           0       10.805176    1.317447   -1.819451
     88          1           0       11.637256   -0.047238   -1.314072
     89          1           0       12.315130    1.544049   -0.884442
     90          1           0       11.815280   -0.383759    2.354826
     91          1           0       11.209340   -2.003560    2.377791
     92          1           0       10.212158   -1.261975    4.215949
     93          1           0        8.968056   -0.387498    3.297137
     94          1           0       10.390947    0.447659    3.711560
     95          1           0        8.266000   -4.985734    1.274839
     96          1           0        7.606574   -5.706788   -0.220991
     97          1           0        6.687783   -5.758125    1.186887
     98          1           0        2.082762   -3.508516    0.948223
     99          1           0       -0.637445   -4.030344   -2.284367
    100          1           0       -0.458814   -5.627762   -1.611507
    101          1           0        0.740877   -4.998127   -2.827870
    102          1           0       -4.150721    0.446875    1.534190
    103          1           0       -4.617772   -1.184005    1.985543
    104          1           0       -5.313299    0.603164   -0.237994
    105          1           0       -5.453406   -3.154400    0.728215
    106          1           0       -5.385959   -3.345269   -0.945947
    107          1           0       -6.990929   -3.394251   -0.166427
    108          1           0       -6.992443   -1.869232   -2.345485
    109          1           0       -6.447141   -0.161342   -2.228449
    110          1           0       -8.466919   -0.114201   -0.424491
    111          1           0       -9.105778   -1.388147   -1.475661
    112          1           0       -8.128263    0.961198   -2.928511
    113          1           0       -9.339231    1.192834   -1.652680
    114          1           0       -9.969313   -1.161896   -3.368211
    115          1           0      -10.217800    0.665369   -5.380510
    116          1           0       -9.420735   -0.879006   -5.336781
    117          1           0       -8.450555    0.521485   -5.080294
    118          1           0      -11.953511    0.242480   -4.044385
    119          1           0      -11.328998    1.630390   -3.139691
    120          1           0      -11.122368   -0.415295   -1.239632
    121          1           0      -12.703080   -0.817355   -1.987361
    122          1           0      -12.731340    2.000468   -1.432134
    123          1           0      -11.889127    1.375565   -0.198413
    124          1           0      -13.618848   -0.536381    0.144292
    125          1           0      -15.130441   -0.744082   -1.390671
    126          1           0      -14.885185    0.787816   -2.139529
    127          1           0      -15.996547    0.762123   -0.939977
    128          1           0      -15.374316    1.377257    1.145342
    129          1           0      -14.056132    2.489596    0.816007
    130          1           0      -13.101474    0.069840    2.202710
    131          1           0      -14.641378    0.536431    2.871996
    132          1           0      -13.833322    2.330004    3.743605
    133          1           0      -12.654460    2.888943    2.687158
    134          1           0      -12.009612    0.265598    4.092231
    135          1           0      -11.161491    2.391088    5.843713
    136          1           0      -12.065047    0.833264    6.120852
    137          1           0      -12.914339    2.305855    5.708671
    138          1           0      -10.358875    1.650694    2.533838
    139          1           0       -9.676725    1.009898    3.955479
    140          1           0      -10.184505    2.678752    3.916816
 ---------------------------------------------------------------------

 SCF Done:  E(RZINDO/S) =  -474.503044785     A.U. after   20 cycles

 Excitation energies and oscillator strengths:

 Excited State   1:      Singlet-A      1.2391 eV 1000.62 nm  f=0.6562  <S**2>=0.000
     175 ->178        -0.18649
     176 ->177         0.66429
 This state for optimization and/or second-order correction.
 Total Energy, E(CIS/TDA) =  -474.457509886
 Copying the excited state density for this state as the 1-particle RhoCI density.

 Excited State   2:      Singlet-A      1.9378 eV  639.81 nm  f=0.1052  <S**2>=0.000
     175 ->177         0.57664
     176 ->178         0.38194

 Excited State   3:      Singlet-A      2.9155 eV  425.26 nm  f=0.0007  <S**2>=0.000
     168 ->177         0.30728
     168 ->178         0.15751
     168 ->179         0.38230
     168 ->181        -0.28302
     168 ->186         0.24683
     168 ->194        -0.11126

 Excited State   4:      Singlet-A      2.9268 eV  423.61 nm  f=0.0007  <S**2>=0.000
     169 ->179        -0.10401
     170 ->177         0.35997
     170 ->178         0.10767
     170 ->179        -0.33117
     170 ->181        -0.29653
     170 ->186        -0.13736
     170 ->187         0.11526
     170 ->201         0.12175

 Excited State   5:      Singlet-A      3.0757 eV  403.11 nm  f=0.9249  <S**2>=0.000
     171 ->177        -0.12378
     175 ->177        -0.33326
     176 ->178         0.54293
     176 ->179         0.17499
     176 ->181        -0.10649

 The electronic state is 1-A.
 Alpha  occ. eigenvalues --   -1.86045  -1.80933  -1.79767  -1.76093  -1.72109
 Alpha  occ. eigenvalues --   -1.70474  -1.65020  -1.60848  -1.58016  -1.57915
 Alpha  occ. eigenvalues --   -1.54956  -1.52366  -1.49036  -1.48128  -1.46533
 Alpha  occ. eigenvalues --   -1.44741  -1.42951  -1.40838  -1.40042  -1.38318
 Alpha  occ. eigenvalues --   -1.36576  -1.34992  -1.33612  -1.31420  -1.29560
 Alpha  occ. eigenvalues --   -1.28459  -1.24306  -1.23213  -1.22276  -1.19143
 Alpha  occ. eigenvalues --   -1.18203  -1.15656  -1.14669  -1.14289  -1.12759
 Alpha  occ. eigenvalues --   -1.12634  -1.11125  -1.09974  -1.05411  -1.04075
 Alpha  occ. eigenvalues --   -1.02301  -1.01355  -0.98671  -0.97700  -0.97027
 Alpha  occ. eigenvalues --   -0.96292  -0.94733  -0.93979  -0.93762  -0.92528
 Alpha  occ. eigenvalues --   -0.91523  -0.90345  -0.88812  -0.88320  -0.87467
 Alpha  occ. eigenvalues --   -0.85493  -0.84657  -0.83120  -0.82074  -0.80537
 Alpha  occ. eigenvalues --   -0.80060  -0.79362  -0.78086  -0.77080  -0.76091
 Alpha  occ. eigenvalues --   -0.75393  -0.75003  -0.74847  -0.74397  -0.73756
 Alpha  occ. eigenvalues --   -0.73429  -0.73339  -0.72710  -0.71844  -0.71234
 Alpha  occ. eigenvalues --   -0.70197  -0.69152  -0.68921  -0.68514  -0.68007
 Alpha  occ. eigenvalues --   -0.67895  -0.67536  -0.67218  -0.66047  -0.65663
 Alpha  occ. eigenvalues --   -0.65469  -0.64878  -0.64701  -0.63587  -0.63337
 Alpha  occ. eigenvalues --   -0.62886  -0.62532  -0.62291  -0.61764  -0.61560
 Alpha  occ. eigenvalues --   -0.61413  -0.61353  -0.60673  -0.60618  -0.60493
 Alpha  occ. eigenvalues --   -0.59984  -0.59713  -0.59070  -0.58457  -0.57996
 Alpha  occ. eigenvalues --   -0.57606  -0.57355  -0.56896  -0.56710  -0.56052
 Alpha  occ. eigenvalues --   -0.55538  -0.55490  -0.55070  -0.54900  -0.54541
 Alpha  occ. eigenvalues --   -0.53992  -0.53892  -0.53557  -0.53182  -0.52803
 Alpha  occ. eigenvalues --   -0.52693  -0.52550  -0.52134  -0.52089  -0.51891
 Alpha  occ. eigenvalues --   -0.51047  -0.50676  -0.50449  -0.50257  -0.49942
 Alpha  occ. eigenvalues --   -0.49764  -0.49554  -0.48901  -0.48665  -0.48556
 Alpha  occ. eigenvalues --   -0.48442  -0.48261  -0.48000  -0.47580  -0.47260
 Alpha  occ. eigenvalues --   -0.47134  -0.47038  -0.46977  -0.46523  -0.46124
 Alpha  occ. eigenvalues --   -0.46044  -0.45970  -0.45565  -0.45482  -0.45082
 Alpha  occ. eigenvalues --   -0.45008  -0.44463  -0.44400  -0.44190  -0.44097
 Alpha  occ. eigenvalues --   -0.43865  -0.43338  -0.42824  -0.42757  -0.41930
 Alpha  occ. eigenvalues --   -0.41546  -0.41303  -0.40925  -0.39382  -0.38997
 Alpha  occ. eigenvalues --   -0.38080  -0.36853  -0.35249  -0.34918  -0.34386
 Alpha  occ. eigenvalues --   -0.33202  -0.33075  -0.32773  -0.32524  -0.26782
 Alpha  occ. eigenvalues --   -0.22129
 Alpha virt. eigenvalues --   -0.09036  -0.01835  -0.00513   0.01212   0.01339
 Alpha virt. eigenvalues --    0.02882   0.03164   0.03431   0.04714   0.04894
 Alpha virt. eigenvalues --    0.06410   0.06812   0.07159   0.07593   0.08304

 Mulliken charges:
               1
     1  Mg   0.427284
     2  C   -0.050470
     3  C   -0.075260
     4  C   -0.055235
     5  C   -0.067386
     6  N   -0.286146
     7  C    0.140143
     8  C   -0.004236
     9  C   -0.009387
    10  C    0.132074
    11  C   -0.050925
    12  C   -0.015405
    13  C    0.009687
    14  C    0.457182
    15  O   -0.520805
    16  O   -0.279731
    17  N   -0.318682
    18  C    0.115274
    19  C    0.005355
    20  C   -0.055384
    21  C    0.146161
    22  C   -0.043187
    23  C    0.328873
    24  O   -0.540028
    25  C   -0.024667
    26  N   -0.258747
    27  C    0.132052
    28  C    0.003165
    29  C   -0.013254
    30  C    0.127298
    31  C   -0.050096
    32  C   -0.023520
    33  C   -0.054887
    34  N   -0.312778
    35  C    0.087355
    36  C    0.044475
    37  C   -0.050194
    38  C    0.124431
    39  C   -0.038180
    40  C    0.324800
    41  O   -0.530116
    42  C    0.051856
    43  C    0.499782
    44  O   -0.537778
    45  O   -0.263389
    46  C    0.078386
    47  C    0.113430
    48  C   -0.078098
    49  C    0.001551
    50  C   -0.040015
    51  C   -0.025717
    52  C   -0.035273
    53  C   -0.038316
    54  C   -0.012069
    55  C   -0.065329
    56  C   -0.032737
    57  C   -0.047386
    58  C   -0.044471
    59  C   -0.002975
    60  C   -0.052499
    61  C   -0.042545
    62  C   -0.034408
    63  C   -0.037009
    64  C   -0.004026
    65  C   -0.059959
    66  C   -0.055346
    67  H    0.035604
    68  H    0.040346
    69  H    0.029373
    70  H    0.034466
    71  H    0.038470
    72  H    0.025387
    73  H    0.019358
    74  H    0.017384
    75  H    0.033646
    76  H    0.022195
    77  H    0.049947
    78  H    0.040047
    79  H    0.028623
    80  H    0.027623
    81  H    0.031552
    82  H    0.037961
    83  H    0.044046
    84  H    0.034382
    85  H    0.032449
    86  H    0.020012
    87  H    0.022615
    88  H    0.019019
    89  H    0.035157
    90  H    0.014331
    91  H    0.024228
    92  H    0.016339
    93  H    0.027355
    94  H    0.013032
    95  H    0.031276
    96  H    0.041042
    97  H    0.024519
    98  H    0.049493
    99  H    0.031665
   100  H    0.032845
   101  H    0.054999
   102  H    0.034969
   103  H    0.046647
   104  H    0.026028
   105  H    0.024330
   106  H    0.027210
   107  H    0.033317
   108  H    0.017524
   109  H    0.026622
   110  H    0.015990
   111  H    0.024403
   112  H    0.018227
   113  H    0.019362
   114  H    0.022498
   115  H    0.015457
   116  H    0.009504
   117  H    0.025478
   118  H    0.015949
   119  H    0.028057
   120  H    0.022869
   121  H    0.026943
   122  H    0.022418
   123  H    0.005649
   124  H    0.029600
   125  H    0.011575
   126  H    0.009566
   127  H    0.020709
   128  H    0.011078
   129  H    0.030351
   130  H    0.015570
   131  H    0.019838
   132  H    0.006946
   133  H    0.029457
   134  H    0.019679
   135  H    0.024431
   136  H    0.017805
   137  H    0.012600
   138  H    0.003512
   139  H    0.018173
   140  H    0.016309
 Sum of Mulliken charges =  -0.00000

 Dipole moment (field-independent basis, Debye):
    X=             -3.2349    Y=              5.6046    Z=              0.1022  Tot=              6.4720
 N-N= 4.250913421051D+03 E-N= 0.000000000000D+00  KE=-9.176353608022D+03
 Leave Link  601 at Fri Apr 29 23:49:04 2022, MaxMem=  6710886400 cpu:               0.7 elap:               0.0
 (Enter /sw/apps/gaussian-16.0/g16/l9999.exe)
 1\1\GINC-BP1-COMPUTE147\SP\RZINDO CIS\STO-3G\C55H74Mg1N4O6\OF15641\29-
 Apr-2022\0\\#p ZINDO=(nstates=5)\\step_501_chromophore_25 ZINDO\\0,1\M
 g,0,-2.331,34.278,27.067\C,0,-3.293,32.735,29.992\C,0,-0.779,36.821,29
 .04\C,0,-1.689,35.993,24.345\C,0,-4.005,31.861,25.191\N,0,-2.106,34.64
 7,29.264\C,0,-2.548,33.871,30.258\C,0,-2.044,34.455,31.618\C,0,-1.357,
 35.846,31.238\C,0,-1.46,35.808,29.701\C,0,-2.074,37.11,31.672\C,0,-1.1
 62,33.504,32.441\C,0,-1.659,33.386,33.872\C,0,-0.699,33.035,35.018\O,0

 Normal termination of Gaussian 16 at Fri Apr 29 23:49:04 2022.
