 Gaussian 16, Revision A.03,
 Gaussian 16:  ES64L-G16RevA.03 25-Dec-2016

 ------------------------------
 #p blyp/Def2SVP td=(nstates=5)
 ------------------------------

 ---------------------------------------------------
 step_1751_chromophore_16 TDDFT with blyp functional
 ---------------------------------------------------
 Symbolic Z-matrix:
 Charge =  0 Multiplicity = 1

                         Standard orientation:
 ---------------------------------------------------------------------
 Center     Atomic      Atomic             Coordinates (Angstroms)
 Number     Number       Type             X           Y           Z
 ---------------------------------------------------------------------
      1         12           0        6.411567    0.679764   -0.070187
      2          6           0        4.173021   -2.150387   -0.065765
      3          6           0        3.934906    2.414201   -1.549572
      4          6           0        8.467887    2.969146   -0.004996
      5          6           0        8.865144   -1.671787    1.059878
      6          7           0        4.331462    0.132099   -0.860655
      7          6           0        3.590405   -0.997024   -0.670949
      8          6           0        2.141908   -0.811411   -1.144481
      9          6           0        2.290956    0.513299   -2.031168
     10          6           0        3.586191    1.094096   -1.457536
     11          6           0        2.291766    0.393030   -3.589457
     12          6           0        1.100249   -0.761693   -0.005029
     13          6           0       -0.321955   -1.116232   -0.468887
     14          6           0       -1.279698   -2.141357    0.356774
     15          8           0       -1.095649   -2.892383    1.315198
     16          8           0       -2.565579   -1.996877   -0.117142
     17          7           0        6.238681    2.579857   -0.572468
     18          6           0        5.116353    3.159521   -1.062320
     19          6           0        5.370550    4.571905   -1.159529
     20          6           0        6.727007    4.748481   -0.694474
     21          6           0        7.227683    3.368833   -0.456709
     22          6           0        4.406451    5.565067   -1.748428
     23          6           0        7.491316    6.022831   -0.446610
     24          8           0        8.704906    6.030593   -0.092603
     25          6           0        6.783822    7.388388   -0.658881
     26          7           0        8.396897    0.682841    0.571007
     27          6           0        9.032842    1.830728    0.415830
     28          6           0       10.530355    1.760448    0.875812
     29          6           0       10.572623    0.274110    1.489181
     30          6           0        9.215516   -0.266111    0.977473
     31          6           0       11.556440    2.212834   -0.121803
     32          6           0       10.698928    0.089434    3.048088
     33          6           0        9.569025    0.662997    3.923596
     34          7           0        6.538354   -1.477972    0.534930
     35          6           0        7.643078   -2.266653    0.797080
     36          6           0        7.251700   -3.602268    0.879666
     37          6           0        5.874358   -3.600059    0.601783
     38          6           0        5.531741   -2.257479    0.415410
     39          6           0        8.243364   -4.793426    1.057919
     40          6           0        4.676522   -4.411894    0.581039
     41          8           0        4.484765   -5.575973    0.866464
     42          6           0        3.501083   -3.446947    0.246503
     43          6           0        2.585354   -4.074980   -0.826144
     44          8           0        2.738957   -3.962111   -2.043051
     45          8           0        1.683734   -4.863575   -0.195710
     46          6           0        0.624594   -5.336144   -1.121598
     47          6           0       -3.741742   -2.577510    0.525685
     48          6           0       -4.990750   -2.098419   -0.170873
     49          6           0       -6.143035   -2.740234   -0.463071
     50          6           0       -6.496594   -4.175986   -0.122440
     51          6           0       -7.292724   -2.019622   -1.263256
     52          6           0       -7.873388   -0.719121   -0.555588
     53          6           0       -9.398617   -0.517600   -0.695726
     54          6           0       -9.882808    0.772732   -1.385514
     55          6           0      -10.219222    1.848749   -0.394323
     56          6           0      -10.953776    0.566688   -2.416829
     57          6           0      -12.241861    0.128215   -1.736666
     58          6           0      -13.523056    0.930646   -1.974325
     59          6           0      -14.584663    0.543557   -0.961824
     60          6           0      -15.935631    0.295315   -1.588087
     61          6           0      -14.771138    1.633461    0.136747
     62          6           0      -15.313933    1.123238    1.504135
     63          6           0      -14.402109    1.253705    2.742288
     64          6           0      -14.369084    2.727277    3.227215
     65          6           0      -14.970998    3.054346    4.641082
     66          6           0      -12.877862    3.200251    3.293916
     67          1           0        3.199227    3.033824   -2.066537
     68          1           0        9.221403    3.752457    0.098944
     69          1           0        9.704612   -2.329480    1.294387
     70          1           0        1.847242   -1.616652   -1.815951
     71          1           0        1.515128    1.236589   -1.783552
     72          1           0        3.265536    0.593201   -4.036020
     73          1           0        1.553117    1.062105   -4.031011
     74          1           0        2.081571   -0.664290   -3.752063
     75          1           0        1.059087    0.195768    0.514632
     76          1           0        1.366082   -1.465159    0.783804
     77          1           0       -0.338562   -1.456729   -1.504478
     78          1           0       -0.890011   -0.212158   -0.688661
     79          1           0        3.397961    5.213841   -1.966021
     80          1           0        4.873662    5.983798   -2.640020
     81          1           0        4.254469    6.419726   -1.089164
     82          1           0        6.121090    7.468696    0.202025
     83          1           0        6.230548    7.588145   -1.576707
     84          1           0        7.595182    8.111983   -0.585045
     85          1           0       10.633583    2.450592    1.713030
     86          1           0       11.368082   -0.204504    0.918144
     87          1           0       11.128930    2.907830   -0.844933
     88          1           0       11.928109    1.375687   -0.711985
     89          1           0       12.388677    2.808395    0.253191
     90          1           0       11.629250    0.580375    3.333161
     91          1           0       10.901623   -0.928790    3.377245
     92          1           0        9.997246    1.492304    4.486282
     93          1           0        9.196057   -0.083437    4.624224
     94          1           0        8.659064    0.901478    3.371721
     95          1           0        8.109732   -5.368336    0.142478
     96          1           0        7.986094   -5.517618    1.830602
     97          1           0        9.303550   -4.560029    1.159233
     98          1           0        3.002953   -3.371927    1.212970
     99          1           0        0.097869   -6.106374   -0.558020
    100          1           0        1.069084   -5.724485   -2.037994
    101          1           0        0.119462   -4.475863   -1.561480
    102          1           0       -3.928514   -2.523407    1.597021
    103          1           0       -3.631905   -3.645690    0.334616
    104          1           0       -4.885873   -1.120010   -0.641423
    105          1           0       -5.611289   -4.640769    0.312193
    106          1           0       -6.704065   -4.720149   -1.043567
    107          1           0       -7.354549   -4.326581    0.533317
    108          1           0       -8.058821   -2.735575   -1.561152
    109          1           0       -6.750944   -1.645643   -2.132005
    110          1           0       -7.387272    0.126017   -1.043235
    111          1           0       -7.624671   -0.749058    0.505528
    112          1           0       -9.698641   -0.379327    0.342289
    113          1           0       -9.862780   -1.314796   -1.278061
    114          1           0       -9.066786    1.091428   -2.034752
    115          1           0      -10.612309    1.449456    0.539715
    116          1           0      -10.936236    2.482326   -0.918351
    117          1           0       -9.374436    2.514377   -0.221232
    118          1           0      -10.590332   -0.147399   -3.157135
    119          1           0      -11.010289    1.502253   -2.971515
    120          1           0      -12.199983   -0.051773   -0.662886
    121          1           0      -12.462696   -0.812186   -2.242056
    122          1           0      -13.988460    0.741470   -2.941584
    123          1           0      -13.296719    1.996290   -1.940782
    124          1           0      -14.420893   -0.363589   -0.379169
    125          1           0      -16.665763    1.030128   -1.249186
    126          1           0      -16.368955   -0.645499   -1.250618
    127          1           0      -15.996872    0.299065   -2.675980
    128          1           0      -15.236726    2.537116   -0.254660
    129          1           0      -13.775792    2.034963    0.330308
    130          1           0      -15.518309    0.052487    1.494750
    131          1           0      -16.265796    1.623571    1.680682
    132          1           0      -13.384789    0.927583    2.525353
    133          1           0      -14.810605    0.721652    3.600838
    134          1           0      -14.798376    3.331535    2.426999
    135          1           0      -14.612667    4.023270    4.989515
    136          1           0      -14.639102    2.315678    5.369869
    137          1           0      -16.049485    3.207946    4.596498
    138          1           0      -12.426546    2.905023    2.346049
    139          1           0      -12.426544    2.671330    4.132840
    140          1           0      -12.758511    4.274079    3.436377
 ---------------------------------------------------------------------

 SCF Done:  E(RB-LYP) =  -3007.36377661     A.U. after   21 cycles

 Excitation energies and oscillator strengths:

 Excited State   1:      Singlet-A      1.7989 eV  689.24 nm  f=0.0831  <S**2>=0.000
     243 -> 247        0.36885
     245 -> 247        0.37821
     245 -> 248        0.11064
     246 -> 247        0.44967
 This state for optimization and/or second-order correction.
 Total Energy, E(TD-HF/TD-DFT) =  -3007.29766972
 Copying the excited state density for this state as the 1-particle RhoCI density.

 Excited State   2:      Singlet-A      1.8619 eV  665.89 nm  f=0.0016  <S**2>=0.000
     244 -> 247        0.70078

 Excited State   3:      Singlet-A      1.8897 eV  656.11 nm  f=0.2616  <S**2>=0.000
     243 -> 247       -0.31598
     245 -> 247       -0.32090
     245 -> 248        0.13338
     246 -> 247        0.51812
     246 <- 247       -0.11110

 Excited State   4:      Singlet-A      2.0750 eV  597.51 nm  f=0.0955  <S**2>=0.000
     243 -> 247        0.50371
     245 -> 247       -0.45439
     246 -> 248        0.13362
     246 -> 249       -0.12219

 Excited State   5:      Singlet-A      2.3269 eV  532.83 nm  f=0.0000  <S**2>=0.000
     242 -> 247        0.70711

 The electronic state is 1-A.
 Alpha  occ. eigenvalues --  -46.27820 -18.82105 -18.81887 -18.77507 -18.76815
 Alpha  occ. eigenvalues --  -18.75341 -18.75216 -14.03034 -14.02975 -14.01105
 Alpha  occ. eigenvalues --  -14.00012 -10.05463 -10.03831  -9.99843  -9.99170
 Alpha  occ. eigenvalues --   -9.98584  -9.97368  -9.96678  -9.96622  -9.95903
 Alpha  occ. eigenvalues --   -9.95826  -9.95500  -9.95259  -9.94983  -9.94631
 Alpha  occ. eigenvalues --   -9.94336  -9.94280  -9.94101  -9.93975  -9.93941
 Alpha  occ. eigenvalues --   -9.93817  -9.93728  -9.93519  -9.93455  -9.93350
 Alpha  occ. eigenvalues --   -9.93257  -9.93184  -9.93106  -9.93051  -9.92771
 Alpha  occ. eigenvalues --   -9.92624  -9.92583  -9.92522  -9.92394  -9.92389
 Alpha  occ. eigenvalues --   -9.91943  -9.91934  -9.91839  -9.91798  -9.91754
 Alpha  occ. eigenvalues --   -9.91747  -9.91440  -9.91375  -9.91191  -9.91109
 Alpha  occ. eigenvalues --   -9.91101  -9.90945  -9.90936  -9.90907  -9.90851
 Alpha  occ. eigenvalues --   -9.90841  -9.90758  -9.90746  -9.90676  -9.90503
 Alpha  occ. eigenvalues --   -9.90154  -2.92465  -1.72901  -1.72359  -1.72167
 Alpha  occ. eigenvalues --   -0.97651  -0.97610  -0.91445  -0.89466  -0.89335
 Alpha  occ. eigenvalues --   -0.89148  -0.88414  -0.87784  -0.87308  -0.85742
 Alpha  occ. eigenvalues --   -0.75271  -0.74233  -0.73022  -0.72722  -0.72531
 Alpha  occ. eigenvalues --   -0.72296  -0.71688  -0.71102  -0.70833  -0.70372
 Alpha  occ. eigenvalues --   -0.69688  -0.68881  -0.68062  -0.67562  -0.67159
 Alpha  occ. eigenvalues --   -0.66570  -0.65683  -0.65167  -0.64876  -0.64333
 Alpha  occ. eigenvalues --   -0.63944  -0.62412  -0.62264  -0.61999  -0.60948
 Alpha  occ. eigenvalues --   -0.60526  -0.60300  -0.60107  -0.59609  -0.59203
 Alpha  occ. eigenvalues --   -0.58652  -0.58091  -0.56618  -0.55763  -0.55216
 Alpha  occ. eigenvalues --   -0.54459  -0.53731  -0.52862  -0.52440  -0.52002
 Alpha  occ. eigenvalues --   -0.51642  -0.51280  -0.50819  -0.50441  -0.50126
 Alpha  occ. eigenvalues --   -0.49980  -0.48485  -0.48356  -0.47212  -0.47106
 Alpha  occ. eigenvalues --   -0.46559  -0.46222  -0.45697  -0.45124  -0.44416
 Alpha  occ. eigenvalues --   -0.44220  -0.43324  -0.43112  -0.42844  -0.42593
 Alpha  occ. eigenvalues --   -0.42180  -0.41926  -0.41665  -0.41379  -0.41200
 Alpha  occ. eigenvalues --   -0.41096  -0.40829  -0.40500  -0.40226  -0.39967
 Alpha  occ. eigenvalues --   -0.39714  -0.39664  -0.39440  -0.39421  -0.39225
 Alpha  occ. eigenvalues --   -0.38827  -0.38426  -0.38371  -0.38304  -0.38044
 Alpha  occ. eigenvalues --   -0.37986  -0.37585  -0.37512  -0.37301  -0.37127
 Alpha  occ. eigenvalues --   -0.37024  -0.36970  -0.36841  -0.36546  -0.36455
 Alpha  occ. eigenvalues --   -0.36428  -0.36141  -0.35823  -0.35706  -0.35651
 Alpha  occ. eigenvalues --   -0.35265  -0.35099  -0.35039  -0.34783  -0.34670
 Alpha  occ. eigenvalues --   -0.34499  -0.34413  -0.34275  -0.33985  -0.33959
 Alpha  occ. eigenvalues --   -0.33860  -0.33755  -0.33556  -0.33485  -0.33330
 Alpha  occ. eigenvalues --   -0.32952  -0.32701  -0.32645  -0.32553  -0.32510
 Alpha  occ. eigenvalues --   -0.32414  -0.32052  -0.31839  -0.31563  -0.31362
 Alpha  occ. eigenvalues --   -0.31278  -0.31081  -0.30798  -0.30671  -0.30614
 Alpha  occ. eigenvalues --   -0.30358  -0.30166  -0.30080  -0.30042  -0.29977
 Alpha  occ. eigenvalues --   -0.29785  -0.29556  -0.29202  -0.29080  -0.29011
 Alpha  occ. eigenvalues --   -0.28752  -0.28495  -0.28414  -0.28364  -0.27737
 Alpha  occ. eigenvalues --   -0.27642  -0.27245  -0.27068  -0.26706  -0.26366
 Alpha  occ. eigenvalues --   -0.26361  -0.25894  -0.25636  -0.25415  -0.25065
 Alpha  occ. eigenvalues --   -0.24809  -0.24730  -0.24513  -0.23990  -0.23975
 Alpha  occ. eigenvalues --   -0.23199  -0.22271  -0.22225  -0.21823  -0.20688
 Alpha  occ. eigenvalues --   -0.20477  -0.20147  -0.18543  -0.18344  -0.16801
 Alpha  occ. eigenvalues --   -0.16088
 Alpha virt. eigenvalues --   -0.11596  -0.06639  -0.05464  -0.04444  -0.03613
 Alpha virt. eigenvalues --   -0.02512  -0.01865  -0.01604  -0.01002   0.00179
 Alpha virt. eigenvalues --    0.00885   0.01650   0.02165   0.02275   0.02812

 Mulliken charges:
               1
     1  Mg   0.687333
     2  C    0.016488
     3  C   -0.042765
     4  C   -0.036875
     5  C   -0.071524
     6  N   -0.188621
     7  C   -0.060333
     8  C   -0.004741
     9  C   -0.014003
    10  C    0.014849
    11  C    0.147408
    12  C    0.173967
    13  C    0.051451
    14  C    0.121437
    15  O   -0.183731
    16  O   -0.289990
    17  N   -0.274955
    18  C    0.098640
    19  C   -0.131568
    20  C    0.053490
    21  C    0.106757
    22  C    0.167260
    23  C   -0.077080
    24  O   -0.198772
    25  C    0.103867
    26  N   -0.180272
    27  C   -0.020560
    28  C    0.024015
    29  C    0.071738
    30  C   -0.051768
    31  C    0.143334
    32  C    0.092148
    33  C    0.055105
    34  N   -0.156074
    35  C    0.110929
    36  C   -0.145726
    37  C    0.058829
    38  C    0.019551
    39  C    0.154738
    40  C   -0.074188
    41  O   -0.112245
    42  C    0.054875
    43  C    0.114165
    44  O   -0.199529
    45  O   -0.240229
    46  C    0.244553
    47  C    0.338221
    48  C   -0.102974
    49  C   -0.166186
    50  C    0.141361
    51  C    0.113719
    52  C    0.081899
    53  C    0.136228
    54  C   -0.127116
    55  C    0.137470
    56  C    0.121539
    57  C    0.039656
    58  C    0.169725
    59  C   -0.092962
    60  C    0.118440
    61  C    0.082962
    62  C    0.071722
    63  C    0.127637
    64  C   -0.099939
    65  C    0.112329
    66  C    0.055437
    67  H   -0.077639
    68  H   -0.047846
    69  H   -0.068057
    70  H   -0.010496
    71  H   -0.042449
    72  H   -0.001750
    73  H   -0.001286
    74  H   -0.001813
    75  H   -0.019552
    76  H   -0.008780
    77  H   -0.005606
    78  H   -0.006619
    79  H   -0.011534
    80  H    0.010089
    81  H   -0.007788
    82  H    0.012147
    83  H    0.006275
    84  H   -0.007142
    85  H   -0.021538
    86  H   -0.041248
    87  H   -0.009649
    88  H   -0.018959
    89  H   -0.009793
    90  H   -0.026376
    91  H   -0.019789
    92  H    0.001666
    93  H   -0.012062
    94  H    0.010111
    95  H    0.006405
    96  H    0.003098
    97  H   -0.011364
    98  H    0.022194
    99  H    0.033378
   100  H    0.004183
   101  H   -0.003773
   102  H    0.016404
   103  H   -0.010745
   104  H   -0.038353
   105  H   -0.029380
   106  H   -0.002584
   107  H    0.006114
   108  H   -0.030186
   109  H   -0.015737
   110  H   -0.030104
   111  H   -0.021978
   112  H   -0.041904
   113  H   -0.032123
   114  H   -0.058138
   115  H    0.004128
   116  H   -0.029411
   117  H   -0.018226
   118  H   -0.043343
   119  H   -0.039804
   120  H   -0.008856
   121  H   -0.032675
   122  H   -0.050300
   123  H   -0.038911
   124  H   -0.038028
   125  H   -0.031400
   126  H   -0.026126
   127  H   -0.021402
   128  H   -0.033170
   129  H   -0.047836
   130  H   -0.035055
   131  H   -0.027102
   132  H   -0.031110
   133  H   -0.041721
   134  H   -0.034037
   135  H   -0.023888
   136  H   -0.008718
   137  H   -0.017360
   138  H   -0.010580
   139  H   -0.018006
   140  H   -0.015536
 Sum of Mulliken charges =  -0.00000

 Dipole moment (field-independent basis, Debye):
    X=             -3.2431    Y=              2.6343    Z=             -1.3657  Tot=              4.3958
 Quadrupole moment (field-independent basis, Debye-Ang):
   XX=           -380.7258   YY=           -431.4588   ZZ=           -403.8716
   XY=             -2.0119   XZ=             12.1794   YZ=             -0.0143

 Normal termination of Gaussian 16 at Wed May  4 13:29:59 2022.
