 Gaussian 16, Revision A.03,
 Gaussian 16:  ES64L-G16RevA.03 25-Dec-2016

 -----------------------------------
 #p cam-b3lyp/Def2SVP td=(nstates=5)
 -----------------------------------

 --------------------------------------------------------
 step_1751_chromophore_16 TDDFT with cam-b3lyp functional
 --------------------------------------------------------
 Symbolic Z-matrix:
 Charge =  0 Multiplicity = 1

                         Standard orientation:
 ---------------------------------------------------------------------
 Center     Atomic      Atomic             Coordinates (Angstroms)
 Number     Number       Type             X           Y           Z
 ---------------------------------------------------------------------
      1         12           0        6.411567    0.679764   -0.070187
      2          6           0        4.173021   -2.150387   -0.065765
      3          6           0        3.934906    2.414201   -1.549572
      4          6           0        8.467887    2.969146   -0.004996
      5          6           0        8.865144   -1.671787    1.059878
      6          7           0        4.331462    0.132099   -0.860655
      7          6           0        3.590405   -0.997024   -0.670949
      8          6           0        2.141908   -0.811411   -1.144481
      9          6           0        2.290956    0.513299   -2.031168
     10          6           0        3.586191    1.094096   -1.457536
     11          6           0        2.291766    0.393030   -3.589457
     12          6           0        1.100249   -0.761693   -0.005029
     13          6           0       -0.321955   -1.116232   -0.468887
     14          6           0       -1.279698   -2.141357    0.356774
     15          8           0       -1.095649   -2.892383    1.315198
     16          8           0       -2.565579   -1.996877   -0.117142
     17          7           0        6.238681    2.579857   -0.572468
     18          6           0        5.116353    3.159521   -1.062320
     19          6           0        5.370550    4.571905   -1.159529
     20          6           0        6.727007    4.748481   -0.694474
     21          6           0        7.227683    3.368833   -0.456709
     22          6           0        4.406451    5.565067   -1.748428
     23          6           0        7.491316    6.022831   -0.446610
     24          8           0        8.704906    6.030593   -0.092603
     25          6           0        6.783822    7.388388   -0.658881
     26          7           0        8.396897    0.682841    0.571007
     27          6           0        9.032842    1.830728    0.415830
     28          6           0       10.530355    1.760448    0.875812
     29          6           0       10.572623    0.274110    1.489181
     30          6           0        9.215516   -0.266111    0.977473
     31          6           0       11.556440    2.212834   -0.121803
     32          6           0       10.698928    0.089434    3.048088
     33          6           0        9.569025    0.662997    3.923596
     34          7           0        6.538354   -1.477972    0.534930
     35          6           0        7.643078   -2.266653    0.797080
     36          6           0        7.251700   -3.602268    0.879666
     37          6           0        5.874358   -3.600059    0.601783
     38          6           0        5.531741   -2.257479    0.415410
     39          6           0        8.243364   -4.793426    1.057919
     40          6           0        4.676522   -4.411894    0.581039
     41          8           0        4.484765   -5.575973    0.866464
     42          6           0        3.501083   -3.446947    0.246503
     43          6           0        2.585354   -4.074980   -0.826144
     44          8           0        2.738957   -3.962111   -2.043051
     45          8           0        1.683734   -4.863575   -0.195710
     46          6           0        0.624594   -5.336144   -1.121598
     47          6           0       -3.741742   -2.577510    0.525685
     48          6           0       -4.990750   -2.098419   -0.170873
     49          6           0       -6.143035   -2.740234   -0.463071
     50          6           0       -6.496594   -4.175986   -0.122440
     51          6           0       -7.292724   -2.019622   -1.263256
     52          6           0       -7.873388   -0.719121   -0.555588
     53          6           0       -9.398617   -0.517600   -0.695726
     54          6           0       -9.882808    0.772732   -1.385514
     55          6           0      -10.219222    1.848749   -0.394323
     56          6           0      -10.953776    0.566688   -2.416829
     57          6           0      -12.241861    0.128215   -1.736666
     58          6           0      -13.523056    0.930646   -1.974325
     59          6           0      -14.584663    0.543557   -0.961824
     60          6           0      -15.935631    0.295315   -1.588087
     61          6           0      -14.771138    1.633461    0.136747
     62          6           0      -15.313933    1.123238    1.504135
     63          6           0      -14.402109    1.253705    2.742288
     64          6           0      -14.369084    2.727277    3.227215
     65          6           0      -14.970998    3.054346    4.641082
     66          6           0      -12.877862    3.200251    3.293916
     67          1           0        3.199227    3.033824   -2.066537
     68          1           0        9.221403    3.752457    0.098944
     69          1           0        9.704612   -2.329480    1.294387
     70          1           0        1.847242   -1.616652   -1.815951
     71          1           0        1.515128    1.236589   -1.783552
     72          1           0        3.265536    0.593201   -4.036020
     73          1           0        1.553117    1.062105   -4.031011
     74          1           0        2.081571   -0.664290   -3.752063
     75          1           0        1.059087    0.195768    0.514632
     76          1           0        1.366082   -1.465159    0.783804
     77          1           0       -0.338562   -1.456729   -1.504478
     78          1           0       -0.890011   -0.212158   -0.688661
     79          1           0        3.397961    5.213841   -1.966021
     80          1           0        4.873662    5.983798   -2.640020
     81          1           0        4.254469    6.419726   -1.089164
     82          1           0        6.121090    7.468696    0.202025
     83          1           0        6.230548    7.588145   -1.576707
     84          1           0        7.595182    8.111983   -0.585045
     85          1           0       10.633583    2.450592    1.713030
     86          1           0       11.368082   -0.204504    0.918144
     87          1           0       11.128930    2.907830   -0.844933
     88          1           0       11.928109    1.375687   -0.711985
     89          1           0       12.388677    2.808395    0.253191
     90          1           0       11.629250    0.580375    3.333161
     91          1           0       10.901623   -0.928790    3.377245
     92          1           0        9.997246    1.492304    4.486282
     93          1           0        9.196057   -0.083437    4.624224
     94          1           0        8.659064    0.901478    3.371721
     95          1           0        8.109732   -5.368336    0.142478
     96          1           0        7.986094   -5.517618    1.830602
     97          1           0        9.303550   -4.560029    1.159233
     98          1           0        3.002953   -3.371927    1.212970
     99          1           0        0.097869   -6.106374   -0.558020
    100          1           0        1.069084   -5.724485   -2.037994
    101          1           0        0.119462   -4.475863   -1.561480
    102          1           0       -3.928514   -2.523407    1.597021
    103          1           0       -3.631905   -3.645690    0.334616
    104          1           0       -4.885873   -1.120010   -0.641423
    105          1           0       -5.611289   -4.640769    0.312193
    106          1           0       -6.704065   -4.720149   -1.043567
    107          1           0       -7.354549   -4.326581    0.533317
    108          1           0       -8.058821   -2.735575   -1.561152
    109          1           0       -6.750944   -1.645643   -2.132005
    110          1           0       -7.387272    0.126017   -1.043235
    111          1           0       -7.624671   -0.749058    0.505528
    112          1           0       -9.698641   -0.379327    0.342289
    113          1           0       -9.862780   -1.314796   -1.278061
    114          1           0       -9.066786    1.091428   -2.034752
    115          1           0      -10.612309    1.449456    0.539715
    116          1           0      -10.936236    2.482326   -0.918351
    117          1           0       -9.374436    2.514377   -0.221232
    118          1           0      -10.590332   -0.147399   -3.157135
    119          1           0      -11.010289    1.502253   -2.971515
    120          1           0      -12.199983   -0.051773   -0.662886
    121          1           0      -12.462696   -0.812186   -2.242056
    122          1           0      -13.988460    0.741470   -2.941584
    123          1           0      -13.296719    1.996290   -1.940782
    124          1           0      -14.420893   -0.363589   -0.379169
    125          1           0      -16.665763    1.030128   -1.249186
    126          1           0      -16.368955   -0.645499   -1.250618
    127          1           0      -15.996872    0.299065   -2.675980
    128          1           0      -15.236726    2.537116   -0.254660
    129          1           0      -13.775792    2.034963    0.330308
    130          1           0      -15.518309    0.052487    1.494750
    131          1           0      -16.265796    1.623571    1.680682
    132          1           0      -13.384789    0.927583    2.525353
    133          1           0      -14.810605    0.721652    3.600838
    134          1           0      -14.798376    3.331535    2.426999
    135          1           0      -14.612667    4.023270    4.989515
    136          1           0      -14.639102    2.315678    5.369869
    137          1           0      -16.049485    3.207946    4.596498
    138          1           0      -12.426546    2.905023    2.346049
    139          1           0      -12.426544    2.671330    4.132840
    140          1           0      -12.758511    4.274079    3.436377
 ---------------------------------------------------------------------

 SCF Done:  E(RCAM-B3LYP) =  -3007.16196245     A.U. after   19 cycles

 Excitation energies and oscillator strengths:

 Excited State   1:      Singlet-A      1.7817 eV  695.89 nm  f=0.3845  <S**2>=0.000
     245 -> 248       -0.16411
     246 -> 247        0.68585
 This state for optimization and/or second-order correction.
 Total Energy, E(TD-HF/TD-DFT) =  -3007.09648743
 Copying the excited state density for this state as the 1-particle RhoCI density.

 Excited State   2:      Singlet-A      2.1534 eV  575.77 nm  f=0.2045  <S**2>=0.000
     245 -> 247        0.66686
     246 -> 248        0.21408

 Excited State   3:      Singlet-A      3.3321 eV  372.09 nm  f=0.0005  <S**2>=0.000
     239 -> 247        0.10994
     240 -> 247        0.16446
     241 -> 247        0.36105
     241 -> 249        0.14649
     241 -> 250        0.12057
     242 -> 247        0.41389
     244 -> 247       -0.24585
     246 -> 248       -0.11881

 Excited State   4:      Singlet-A      3.4130 eV  363.27 nm  f=0.0053  <S**2>=0.000
     239 -> 247        0.10734
     241 -> 247        0.44448
     241 -> 249        0.12940
     242 -> 247       -0.41291
     244 -> 247        0.25028

 Excited State   5:      Singlet-A      3.5117 eV  353.06 nm  f=0.0058  <S**2>=0.000
     240 -> 247       -0.32123
     240 -> 248        0.18341
     240 -> 249        0.20163
     240 -> 250       -0.17713
     242 -> 247        0.28277
     244 -> 247        0.38957

 The electronic state is 1-A.
 Alpha  occ. eigenvalues --  -46.89410 -19.25099 -19.24678 -19.20465 -19.19981
 Alpha  occ. eigenvalues --  -19.18684 -19.18183 -14.42020 -14.41680 -14.39408
 Alpha  occ. eigenvalues --  -14.38489 -10.40888 -10.39422 -10.34981 -10.34609
 Alpha  occ. eigenvalues --  -10.32574 -10.31460 -10.31404 -10.31367 -10.29955
 Alpha  occ. eigenvalues --  -10.29803 -10.29682 -10.29221 -10.29173 -10.29146
 Alpha  occ. eigenvalues --  -10.28538 -10.28467 -10.28392 -10.28359 -10.28164
 Alpha  occ. eigenvalues --  -10.28030 -10.27782 -10.27681 -10.27668 -10.27637
 Alpha  occ. eigenvalues --  -10.27524 -10.27200 -10.26941 -10.26915 -10.26870
 Alpha  occ. eigenvalues --  -10.26565 -10.26530 -10.26220 -10.26157 -10.26026
 Alpha  occ. eigenvalues --  -10.25908 -10.25852 -10.25547 -10.25489 -10.25489
 Alpha  occ. eigenvalues --  -10.25366 -10.25101 -10.25058 -10.25032 -10.24863
 Alpha  occ. eigenvalues --  -10.24780 -10.24731 -10.24728 -10.24581 -10.24570
 Alpha  occ. eigenvalues --  -10.24536 -10.24479 -10.24476 -10.24337 -10.24128
 Alpha  occ. eigenvalues --  -10.23712  -3.17961  -1.92873  -1.92423  -1.92260
 Alpha  occ. eigenvalues --   -1.16248  -1.16007  -1.10016  -1.07482  -1.07197
 Alpha  occ. eigenvalues --   -1.07118  -1.06210  -1.05502  -1.05072  -1.03323
 Alpha  occ. eigenvalues --   -0.92539  -0.91122  -0.89823  -0.89501  -0.89220
 Alpha  occ. eigenvalues --   -0.89042  -0.88344  -0.87715  -0.87348  -0.87046
 Alpha  occ. eigenvalues --   -0.86216  -0.85141  -0.84280  -0.83830  -0.83296
 Alpha  occ. eigenvalues --   -0.82583  -0.81660  -0.81104  -0.80737  -0.80144
 Alpha  occ. eigenvalues --   -0.79816  -0.78002  -0.77948  -0.77554  -0.76291
 Alpha  occ. eigenvalues --   -0.75864  -0.75651  -0.75542  -0.74909  -0.74481
 Alpha  occ. eigenvalues --   -0.73786  -0.73123  -0.71474  -0.70526  -0.69904
 Alpha  occ. eigenvalues --   -0.69110  -0.68417  -0.67252  -0.66799  -0.66343
 Alpha  occ. eigenvalues --   -0.65714  -0.65385  -0.64904  -0.64285  -0.64039
 Alpha  occ. eigenvalues --   -0.63977  -0.62323  -0.62219  -0.60791  -0.60769
 Alpha  occ. eigenvalues --   -0.60175  -0.59865  -0.59312  -0.58489  -0.58027
 Alpha  occ. eigenvalues --   -0.57691  -0.56623  -0.56251  -0.55826  -0.55652
 Alpha  occ. eigenvalues --   -0.55349  -0.55059  -0.54784  -0.54319  -0.54234
 Alpha  occ. eigenvalues --   -0.53926  -0.53610  -0.53148  -0.53067  -0.52884
 Alpha  occ. eigenvalues --   -0.52555  -0.52431  -0.52251  -0.52122  -0.51976
 Alpha  occ. eigenvalues --   -0.51190  -0.51096  -0.51016  -0.50829  -0.50678
 Alpha  occ. eigenvalues --   -0.50275  -0.49921  -0.49761  -0.49729  -0.49468
 Alpha  occ. eigenvalues --   -0.49384  -0.49097  -0.48982  -0.48755  -0.48649
 Alpha  occ. eigenvalues --   -0.48535  -0.48420  -0.48043  -0.47888  -0.47655
 Alpha  occ. eigenvalues --   -0.47610  -0.47154  -0.46866  -0.46758  -0.46637
 Alpha  occ. eigenvalues --   -0.46488  -0.46309  -0.46269  -0.46034  -0.45664
 Alpha  occ. eigenvalues --   -0.45637  -0.45514  -0.45435  -0.45366  -0.44969
 Alpha  occ. eigenvalues --   -0.44955  -0.44596  -0.44236  -0.44220  -0.44078
 Alpha  occ. eigenvalues --   -0.44000  -0.43738  -0.43589  -0.43004  -0.42955
 Alpha  occ. eigenvalues --   -0.42858  -0.42666  -0.42413  -0.42251  -0.42013
 Alpha  occ. eigenvalues --   -0.41816  -0.41756  -0.41439  -0.41250  -0.41196
 Alpha  occ. eigenvalues --   -0.41034  -0.40956  -0.40604  -0.40288  -0.40062
 Alpha  occ. eigenvalues --   -0.39828  -0.39578  -0.39459  -0.39325  -0.38774
 Alpha  occ. eigenvalues --   -0.38535  -0.38056  -0.37880  -0.37466  -0.37266
 Alpha  occ. eigenvalues --   -0.37110  -0.36823  -0.36643  -0.36497  -0.36264
 Alpha  occ. eigenvalues --   -0.35913  -0.35349  -0.34978  -0.34491  -0.34444
 Alpha  occ. eigenvalues --   -0.34404  -0.34081  -0.33277  -0.31517  -0.30531
 Alpha  occ. eigenvalues --   -0.30384  -0.30125  -0.29789  -0.29609  -0.23454
 Alpha  occ. eigenvalues --   -0.21588
 Alpha virt. eigenvalues --   -0.08825  -0.01095   0.00876   0.02464   0.03434
 Alpha virt. eigenvalues --    0.04178   0.04706   0.05266   0.05651   0.07076
 Alpha virt. eigenvalues --    0.07738   0.08179   0.08633   0.08840   0.09162

 Mulliken charges:
               1
     1  Mg   0.822936
     2  C   -0.015680
     3  C   -0.054263
     4  C   -0.056367
     5  C   -0.073351
     6  N   -0.261107
     7  C   -0.010444
     8  C   -0.057503
     9  C   -0.062443
    10  C    0.027228
    11  C    0.090612
    12  C    0.118209
    13  C   -0.012422
    14  C    0.198906
    15  O   -0.225198
    16  O   -0.356508
    17  N   -0.368364
    18  C    0.104335
    19  C   -0.141004
    20  C   -0.017263
    21  C    0.132157
    22  C    0.109247
    23  C    0.000793
    24  O   -0.244058
    25  C    0.027207
    26  N   -0.253606
    27  C   -0.005166
    28  C   -0.025606
    29  C    0.016708
    30  C   -0.035318
    31  C    0.081313
    32  C    0.037490
    33  C   -0.007867
    34  N   -0.246756
    35  C    0.113126
    36  C   -0.139889
    37  C   -0.017876
    38  C    0.065069
    39  C    0.107703
    40  C    0.028511
    41  O   -0.149481
    42  C   -0.022527
    43  C    0.198562
    44  O   -0.238125
    45  O   -0.301474
    46  C    0.200759
    47  C    0.308284
    48  C   -0.126357
    49  C   -0.188082
    50  C    0.080659
    51  C    0.058050
    52  C    0.031249
    53  C    0.075057
    54  C   -0.177985
    55  C    0.076907
    56  C    0.070141
    57  C   -0.021321
    58  C    0.119224
    59  C   -0.150443
    60  C    0.058165
    61  C    0.033752
    62  C    0.014213
    63  C    0.073843
    64  C   -0.159771
    65  C    0.052358
    66  C    0.004801
    67  H   -0.043922
    68  H   -0.007364
    69  H   -0.030973
    70  H    0.023627
    71  H   -0.007299
    72  H    0.024940
    73  H    0.021733
    74  H    0.020569
    75  H    0.013142
    76  H    0.023435
    77  H    0.025957
    78  H    0.028156
    79  H    0.015677
    80  H    0.034463
    81  H    0.016742
    82  H    0.038738
    83  H    0.033775
    84  H    0.027281
    85  H    0.013866
    86  H   -0.004246
    87  H    0.017600
    88  H    0.005181
    89  H    0.016410
    90  H    0.003559
    91  H    0.008898
    92  H    0.025189
    93  H    0.013261
    94  H    0.030713
    95  H    0.033235
    96  H    0.031463
    97  H    0.014266
    98  H    0.062890
    99  H    0.058908
   100  H    0.031897
   101  H    0.016461
   102  H    0.043540
   103  H    0.016488
   104  H   -0.004055
   105  H   -0.005242
   106  H    0.021446
   107  H    0.030441
   108  H   -0.000929
   109  H    0.013598
   110  H   -0.003165
   111  H    0.007763
   112  H   -0.012369
   113  H   -0.003813
   114  H   -0.024024
   115  H    0.021813
   116  H   -0.005684
   117  H    0.008552
   118  H   -0.012314
   119  H   -0.009907
   120  H    0.015683
   121  H   -0.003150
   122  H   -0.019476
   123  H   -0.012016
   124  H   -0.004917
   125  H   -0.005919
   126  H   -0.001110
   127  H    0.003549
   128  H   -0.003827
   129  H   -0.024222
   130  H   -0.006259
   131  H    0.001023
   132  H   -0.003039
   133  H   -0.010803
   134  H   -0.003663
   135  H    0.001013
   136  H    0.013710
   137  H    0.007493
   138  H    0.007809
   139  H    0.004593
   140  H    0.009219
 Sum of Mulliken charges =  -0.00000

 Dipole moment (field-independent basis, Debye):
    X=             -3.1410    Y=              2.6086    Z=             -1.3588  Tot=              4.3032
 Quadrupole moment (field-independent basis, Debye-Ang):
   XX=           -376.5260   YY=           -428.0311   ZZ=           -403.8371
   XY=             -4.0934   XZ=             13.8423   YZ=             -0.3736

 Normal termination of Gaussian 16 at Wed May  4 12:36:15 2022.
