 Gaussian 16, Revision A.03,
 Gaussian 16:  ES64L-G16RevA.03 25-Dec-2016

 ---------------------------------
 #p PBE1PBE/Def2SVP td=(nstates=5)
 ---------------------------------

 ------------------------------------------------------
 step_1751_chromophore_16 TDDFT with PBE1PBE functional
 ------------------------------------------------------
 Symbolic Z-matrix:
 Charge =  0 Multiplicity = 1

                         Standard orientation:
 ---------------------------------------------------------------------
 Center     Atomic      Atomic             Coordinates (Angstroms)
 Number     Number       Type             X           Y           Z
 ---------------------------------------------------------------------
      1         12           0        6.411567    0.679764   -0.070187
      2          6           0        4.173021   -2.150387   -0.065765
      3          6           0        3.934906    2.414201   -1.549572
      4          6           0        8.467887    2.969146   -0.004996
      5          6           0        8.865144   -1.671787    1.059878
      6          7           0        4.331462    0.132099   -0.860655
      7          6           0        3.590405   -0.997024   -0.670949
      8          6           0        2.141908   -0.811411   -1.144481
      9          6           0        2.290956    0.513299   -2.031168
     10          6           0        3.586191    1.094096   -1.457536
     11          6           0        2.291766    0.393030   -3.589457
     12          6           0        1.100249   -0.761693   -0.005029
     13          6           0       -0.321955   -1.116232   -0.468887
     14          6           0       -1.279698   -2.141357    0.356774
     15          8           0       -1.095649   -2.892383    1.315198
     16          8           0       -2.565579   -1.996877   -0.117142
     17          7           0        6.238681    2.579857   -0.572468
     18          6           0        5.116353    3.159521   -1.062320
     19          6           0        5.370550    4.571905   -1.159529
     20          6           0        6.727007    4.748481   -0.694474
     21          6           0        7.227683    3.368833   -0.456709
     22          6           0        4.406451    5.565067   -1.748428
     23          6           0        7.491316    6.022831   -0.446610
     24          8           0        8.704906    6.030593   -0.092603
     25          6           0        6.783822    7.388388   -0.658881
     26          7           0        8.396897    0.682841    0.571007
     27          6           0        9.032842    1.830728    0.415830
     28          6           0       10.530355    1.760448    0.875812
     29          6           0       10.572623    0.274110    1.489181
     30          6           0        9.215516   -0.266111    0.977473
     31          6           0       11.556440    2.212834   -0.121803
     32          6           0       10.698928    0.089434    3.048088
     33          6           0        9.569025    0.662997    3.923596
     34          7           0        6.538354   -1.477972    0.534930
     35          6           0        7.643078   -2.266653    0.797080
     36          6           0        7.251700   -3.602268    0.879666
     37          6           0        5.874358   -3.600059    0.601783
     38          6           0        5.531741   -2.257479    0.415410
     39          6           0        8.243364   -4.793426    1.057919
     40          6           0        4.676522   -4.411894    0.581039
     41          8           0        4.484765   -5.575973    0.866464
     42          6           0        3.501083   -3.446947    0.246503
     43          6           0        2.585354   -4.074980   -0.826144
     44          8           0        2.738957   -3.962111   -2.043051
     45          8           0        1.683734   -4.863575   -0.195710
     46          6           0        0.624594   -5.336144   -1.121598
     47          6           0       -3.741742   -2.577510    0.525685
     48          6           0       -4.990750   -2.098419   -0.170873
     49          6           0       -6.143035   -2.740234   -0.463071
     50          6           0       -6.496594   -4.175986   -0.122440
     51          6           0       -7.292724   -2.019622   -1.263256
     52          6           0       -7.873388   -0.719121   -0.555588
     53          6           0       -9.398617   -0.517600   -0.695726
     54          6           0       -9.882808    0.772732   -1.385514
     55          6           0      -10.219222    1.848749   -0.394323
     56          6           0      -10.953776    0.566688   -2.416829
     57          6           0      -12.241861    0.128215   -1.736666
     58          6           0      -13.523056    0.930646   -1.974325
     59          6           0      -14.584663    0.543557   -0.961824
     60          6           0      -15.935631    0.295315   -1.588087
     61          6           0      -14.771138    1.633461    0.136747
     62          6           0      -15.313933    1.123238    1.504135
     63          6           0      -14.402109    1.253705    2.742288
     64          6           0      -14.369084    2.727277    3.227215
     65          6           0      -14.970998    3.054346    4.641082
     66          6           0      -12.877862    3.200251    3.293916
     67          1           0        3.199227    3.033824   -2.066537
     68          1           0        9.221403    3.752457    0.098944
     69          1           0        9.704612   -2.329480    1.294387
     70          1           0        1.847242   -1.616652   -1.815951
     71          1           0        1.515128    1.236589   -1.783552
     72          1           0        3.265536    0.593201   -4.036020
     73          1           0        1.553117    1.062105   -4.031011
     74          1           0        2.081571   -0.664290   -3.752063
     75          1           0        1.059087    0.195768    0.514632
     76          1           0        1.366082   -1.465159    0.783804
     77          1           0       -0.338562   -1.456729   -1.504478
     78          1           0       -0.890011   -0.212158   -0.688661
     79          1           0        3.397961    5.213841   -1.966021
     80          1           0        4.873662    5.983798   -2.640020
     81          1           0        4.254469    6.419726   -1.089164
     82          1           0        6.121090    7.468696    0.202025
     83          1           0        6.230548    7.588145   -1.576707
     84          1           0        7.595182    8.111983   -0.585045
     85          1           0       10.633583    2.450592    1.713030
     86          1           0       11.368082   -0.204504    0.918144
     87          1           0       11.128930    2.907830   -0.844933
     88          1           0       11.928109    1.375687   -0.711985
     89          1           0       12.388677    2.808395    0.253191
     90          1           0       11.629250    0.580375    3.333161
     91          1           0       10.901623   -0.928790    3.377245
     92          1           0        9.997246    1.492304    4.486282
     93          1           0        9.196057   -0.083437    4.624224
     94          1           0        8.659064    0.901478    3.371721
     95          1           0        8.109732   -5.368336    0.142478
     96          1           0        7.986094   -5.517618    1.830602
     97          1           0        9.303550   -4.560029    1.159233
     98          1           0        3.002953   -3.371927    1.212970
     99          1           0        0.097869   -6.106374   -0.558020
    100          1           0        1.069084   -5.724485   -2.037994
    101          1           0        0.119462   -4.475863   -1.561480
    102          1           0       -3.928514   -2.523407    1.597021
    103          1           0       -3.631905   -3.645690    0.334616
    104          1           0       -4.885873   -1.120010   -0.641423
    105          1           0       -5.611289   -4.640769    0.312193
    106          1           0       -6.704065   -4.720149   -1.043567
    107          1           0       -7.354549   -4.326581    0.533317
    108          1           0       -8.058821   -2.735575   -1.561152
    109          1           0       -6.750944   -1.645643   -2.132005
    110          1           0       -7.387272    0.126017   -1.043235
    111          1           0       -7.624671   -0.749058    0.505528
    112          1           0       -9.698641   -0.379327    0.342289
    113          1           0       -9.862780   -1.314796   -1.278061
    114          1           0       -9.066786    1.091428   -2.034752
    115          1           0      -10.612309    1.449456    0.539715
    116          1           0      -10.936236    2.482326   -0.918351
    117          1           0       -9.374436    2.514377   -0.221232
    118          1           0      -10.590332   -0.147399   -3.157135
    119          1           0      -11.010289    1.502253   -2.971515
    120          1           0      -12.199983   -0.051773   -0.662886
    121          1           0      -12.462696   -0.812186   -2.242056
    122          1           0      -13.988460    0.741470   -2.941584
    123          1           0      -13.296719    1.996290   -1.940782
    124          1           0      -14.420893   -0.363589   -0.379169
    125          1           0      -16.665763    1.030128   -1.249186
    126          1           0      -16.368955   -0.645499   -1.250618
    127          1           0      -15.996872    0.299065   -2.675980
    128          1           0      -15.236726    2.537116   -0.254660
    129          1           0      -13.775792    2.034963    0.330308
    130          1           0      -15.518309    0.052487    1.494750
    131          1           0      -16.265796    1.623571    1.680682
    132          1           0      -13.384789    0.927583    2.525353
    133          1           0      -14.810605    0.721652    3.600838
    134          1           0      -14.798376    3.331535    2.426999
    135          1           0      -14.612667    4.023270    4.989515
    136          1           0      -14.639102    2.315678    5.369869
    137          1           0      -16.049485    3.207946    4.596498
    138          1           0      -12.426546    2.905023    2.346049
    139          1           0      -12.426544    2.671330    4.132840
    140          1           0      -12.758511    4.274079    3.436377
 ---------------------------------------------------------------------

 SCF Done:  E(RPBE1PBE) =  -3005.35095524     A.U. after   16 cycles

 Excitation energies and oscillator strengths:

 Excited State   1:      Singlet-A      1.9193 eV  646.00 nm  f=0.3538  <S**2>=0.000
     245 -> 248        0.15655
     246 -> 247        0.69109
     246 <- 247       -0.10237
 This state for optimization and/or second-order correction.
 Total Energy, E(TD-HF/TD-DFT) =  -3005.28042380
 Copying the excited state density for this state as the 1-particle RhoCI density.

 Excited State   2:      Singlet-A      2.1667 eV  572.23 nm  f=0.2041  <S**2>=0.000
     245 -> 247        0.67313
     246 -> 248       -0.17999

 Excited State   3:      Singlet-A      2.8866 eV  429.52 nm  f=0.0010  <S**2>=0.000
     242 -> 247        0.64791
     242 -> 249       -0.11295
     243 -> 247        0.18015

 Excited State   4:      Singlet-A      2.9683 eV  417.70 nm  f=0.0016  <S**2>=0.000
     240 -> 247        0.15622
     241 -> 247       -0.15202
     242 -> 247       -0.18617
     243 -> 247        0.61048
     243 -> 248        0.10825

 Excited State   5:      Singlet-A      3.0984 eV  400.16 nm  f=0.0026  <S**2>=0.000
     240 -> 247        0.10776
     241 -> 247        0.67433
     243 -> 247        0.14815

 The electronic state is 1-A.
 Alpha  occ. eigenvalues --  -46.92776 -19.25704 -19.25405 -19.20744 -19.20194
 Alpha  occ. eigenvalues --  -19.18774 -19.18595 -14.41377 -14.41284 -14.39091
 Alpha  occ. eigenvalues --  -14.38013 -10.37963 -10.36400 -10.32278 -10.31628
 Alpha  occ. eigenvalues --  -10.29986 -10.29017 -10.28924 -10.28641 -10.27819
 Alpha  occ. eigenvalues --  -10.27809 -10.27485 -10.27072 -10.26673 -10.26570
 Alpha  occ. eigenvalues --  -10.26285 -10.26157 -10.26099 -10.25968 -10.25910
 Alpha  occ. eigenvalues --  -10.25771 -10.25527 -10.25484 -10.25354 -10.25236
 Alpha  occ. eigenvalues --  -10.25212 -10.24770 -10.24646 -10.24567 -10.24479
 Alpha  occ. eigenvalues --  -10.24447 -10.23804 -10.23756 -10.23754 -10.23465
 Alpha  occ. eigenvalues --  -10.23411 -10.23236 -10.23162 -10.23063 -10.23022
 Alpha  occ. eigenvalues --  -10.22796 -10.22715 -10.22575 -10.22568 -10.22405
 Alpha  occ. eigenvalues --  -10.22358 -10.22352 -10.22263 -10.22161 -10.22119
 Alpha  occ. eigenvalues --  -10.22072 -10.22032 -10.22023 -10.21734 -10.21531
 Alpha  occ. eigenvalues --  -10.21099  -3.14912  -1.87765  -1.87293  -1.87133
 Alpha  occ. eigenvalues --   -1.10973  -1.10843  -1.04640  -1.02258  -1.02047
 Alpha  occ. eigenvalues --   -1.02000  -1.00901  -1.00224  -0.99723  -0.97986
 Alpha  occ. eigenvalues --   -0.86816  -0.85228  -0.83959  -0.83669  -0.83600
 Alpha  occ. eigenvalues --   -0.83203  -0.82560  -0.81818  -0.81722  -0.81325
 Alpha  occ. eigenvalues --   -0.80555  -0.79405  -0.78493  -0.78025  -0.77572
 Alpha  occ. eigenvalues --   -0.76801  -0.75901  -0.75355  -0.74972  -0.74317
 Alpha  occ. eigenvalues --   -0.74100  -0.72370  -0.72163  -0.71839  -0.70661
 Alpha  occ. eigenvalues --   -0.70037  -0.69831  -0.69799  -0.69020  -0.68597
 Alpha  occ. eigenvalues --   -0.68162  -0.67482  -0.65916  -0.64868  -0.64168
 Alpha  occ. eigenvalues --   -0.63313  -0.62846  -0.61805  -0.61048  -0.60521
 Alpha  occ. eigenvalues --   -0.60197  -0.59905  -0.59382  -0.58803  -0.58543
 Alpha  occ. eigenvalues --   -0.58152  -0.56849  -0.56386  -0.55430  -0.55049
 Alpha  occ. eigenvalues --   -0.54589  -0.54398  -0.53822  -0.53090  -0.52444
 Alpha  occ. eigenvalues --   -0.52227  -0.51079  -0.50887  -0.50248  -0.50037
 Alpha  occ. eigenvalues --   -0.49719  -0.49527  -0.49308  -0.48855  -0.48778
 Alpha  occ. eigenvalues --   -0.48334  -0.48110  -0.47757  -0.47602  -0.47416
 Alpha  occ. eigenvalues --   -0.47074  -0.46999  -0.46774  -0.46572  -0.46490
 Alpha  occ. eigenvalues --   -0.45679  -0.45633  -0.45520  -0.45431  -0.45207
 Alpha  occ. eigenvalues --   -0.44860  -0.44562  -0.44282  -0.44248  -0.44052
 Alpha  occ. eigenvalues --   -0.43946  -0.43676  -0.43567  -0.43405  -0.43344
 Alpha  occ. eigenvalues --   -0.43145  -0.43090  -0.42708  -0.42565  -0.42288
 Alpha  occ. eigenvalues --   -0.42198  -0.41891  -0.41528  -0.41452  -0.41349
 Alpha  occ. eigenvalues --   -0.41161  -0.40900  -0.40867  -0.40668  -0.40432
 Alpha  occ. eigenvalues --   -0.40260  -0.40185  -0.40179  -0.40106  -0.39680
 Alpha  occ. eigenvalues --   -0.39594  -0.39259  -0.38971  -0.38876  -0.38820
 Alpha  occ. eigenvalues --   -0.38749  -0.38484  -0.38403  -0.37853  -0.37803
 Alpha  occ. eigenvalues --   -0.37619  -0.37466  -0.37202  -0.37054  -0.36865
 Alpha  occ. eigenvalues --   -0.36643  -0.36513  -0.36242  -0.36081  -0.35961
 Alpha  occ. eigenvalues --   -0.35849  -0.35797  -0.35435  -0.35213  -0.34848
 Alpha  occ. eigenvalues --   -0.34714  -0.34507  -0.34251  -0.34066  -0.33714
 Alpha  occ. eigenvalues --   -0.33367  -0.32829  -0.32747  -0.32294  -0.32253
 Alpha  occ. eigenvalues --   -0.31934  -0.31881  -0.31673  -0.31471  -0.31173
 Alpha  occ. eigenvalues --   -0.30810  -0.30241  -0.29892  -0.29417  -0.29376
 Alpha  occ. eigenvalues --   -0.29346  -0.29096  -0.28721  -0.27087  -0.25747
 Alpha  occ. eigenvalues --   -0.25540  -0.25255  -0.25163  -0.25074  -0.20452
 Alpha  occ. eigenvalues --   -0.19135
 Alpha virt. eigenvalues --   -0.11246  -0.04768  -0.03289  -0.01898  -0.00381
 Alpha virt. eigenvalues --    0.00492   0.00786   0.01158   0.01455   0.02931
 Alpha virt. eigenvalues --    0.03822   0.04750   0.04962   0.05149   0.05827

 Mulliken charges:
               1
     1  Mg   0.971191
     2  C   -0.018136
     3  C   -0.048954
     4  C   -0.062705
     5  C   -0.062129
     6  N   -0.361377
     7  C    0.064265
     8  C   -0.131661
     9  C   -0.132307
    10  C    0.059235
    11  C    0.032909
    12  C    0.068299
    13  C   -0.077948
    14  C    0.260668
    15  O   -0.259668
    16  O   -0.387878
    17  N   -0.500330
    18  C    0.140434
    19  C   -0.176070
    20  C   -0.063691
    21  C    0.180903
    22  C    0.051344
    23  C    0.049800
    24  O   -0.278626
    25  C   -0.044272
    26  N   -0.365704
    27  C    0.032325
    28  C   -0.095074
    29  C   -0.057931
    30  C    0.001077
    31  C    0.023509
    32  C   -0.022995
    33  C   -0.081099
    34  N   -0.376480
    35  C    0.125192
    36  C   -0.151542
    37  C   -0.066304
    38  C    0.120167
    39  C    0.056910
    40  C    0.123700
    41  O   -0.196917
    42  C   -0.133993
    43  C    0.281527
    44  O   -0.272813
    45  O   -0.332439
    46  C    0.142515
    47  C    0.271117
    48  C   -0.140610
    49  C   -0.231231
    50  C    0.016854
    51  C   -0.002745
    52  C   -0.029431
    53  C    0.019649
    54  C   -0.261902
    55  C    0.015236
    56  C    0.011424
    57  C   -0.088398
    58  C    0.067237
    59  C   -0.240954
    60  C    0.005562
    61  C   -0.021115
    62  C   -0.051130
    63  C    0.016790
    64  C   -0.246066
    65  C   -0.011163
    66  C   -0.064451
    67  H   -0.009555
    68  H    0.025175
    69  H    0.000486
    70  H    0.063095
    71  H    0.030408
    72  H    0.052407
    73  H    0.048322
    74  H    0.049235
    75  H    0.044577
    76  H    0.058525
    77  H    0.055704
    78  H    0.058594
    79  H    0.042879
    80  H    0.063428
    81  H    0.045670
    82  H    0.066432
    83  H    0.058763
    84  H    0.055298
    85  H    0.052451
    86  H    0.033419
    87  H    0.044530
    88  H    0.033484
    89  H    0.043735
    90  H    0.036608
    91  H    0.040605
    92  H    0.051384
    93  H    0.041433
    94  H    0.061226
    95  H    0.060296
    96  H    0.057540
    97  H    0.038939
    98  H    0.099872
    99  H    0.079527
   100  H    0.054086
   101  H    0.040775
   102  H    0.069442
   103  H    0.043670
   104  H    0.026206
   105  H    0.023171
   106  H    0.049524
   107  H    0.057886
   108  H    0.028999
   109  H    0.047497
   110  H    0.028089
   111  H    0.040167
   112  H    0.021227
   113  H    0.028914
   114  H    0.015534
   115  H    0.047189
   116  H    0.023766
   117  H    0.037481
   118  H    0.020984
   119  H    0.022772
   120  H    0.047341
   121  H    0.031594
   122  H    0.013580
   123  H    0.019694
   124  H    0.032522
   125  H    0.021762
   126  H    0.026195
   127  H    0.029846
   128  H    0.027354
   129  H    0.013660
   130  H    0.025914
   131  H    0.034291
   132  H    0.029568
   133  H    0.022775
   134  H    0.035195
   135  H    0.029075
   136  H    0.040397
   137  H    0.035811
   138  H    0.039039
   139  H    0.033555
   140  H    0.037361
 Sum of Mulliken charges =  -0.00000

 Dipole moment (field-independent basis, Debye):
    X=             -3.2296    Y=              2.9940    Z=             -1.5039  Tot=              4.6536
 Quadrupole moment (field-independent basis, Debye-Ang):
   XX=           -372.3159   YY=           -424.8090   ZZ=           -400.9328
   XY=             -1.8923   XZ=             14.0559   YZ=             -0.8004

 Normal termination of Gaussian 16 at Wed May  4 12:53:09 2022.
