 Gaussian 16, Revision A.03,
 Gaussian 16:  ES64L-G16RevA.03 25-Dec-2016

 --------------------------------
 #p wB97XD/Def2SVP td=(nstates=5)
 --------------------------------

 -----------------------------------------------------
 step_1751_chromophore_16 TDDFT with wB97XD functional
 -----------------------------------------------------
 Symbolic Z-matrix:
 Charge =  0 Multiplicity = 1

                         Standard orientation:
 ---------------------------------------------------------------------
 Center     Atomic      Atomic             Coordinates (Angstroms)
 Number     Number       Type             X           Y           Z
 ---------------------------------------------------------------------
      1         12           0        6.411567    0.679764   -0.070187
      2          6           0        4.173021   -2.150387   -0.065765
      3          6           0        3.934906    2.414201   -1.549572
      4          6           0        8.467887    2.969146   -0.004996
      5          6           0        8.865144   -1.671787    1.059878
      6          7           0        4.331462    0.132099   -0.860655
      7          6           0        3.590405   -0.997024   -0.670949
      8          6           0        2.141908   -0.811411   -1.144481
      9          6           0        2.290956    0.513299   -2.031168
     10          6           0        3.586191    1.094096   -1.457536
     11          6           0        2.291766    0.393030   -3.589457
     12          6           0        1.100249   -0.761693   -0.005029
     13          6           0       -0.321955   -1.116232   -0.468887
     14          6           0       -1.279698   -2.141357    0.356774
     15          8           0       -1.095649   -2.892383    1.315198
     16          8           0       -2.565579   -1.996877   -0.117142
     17          7           0        6.238681    2.579857   -0.572468
     18          6           0        5.116353    3.159521   -1.062320
     19          6           0        5.370550    4.571905   -1.159529
     20          6           0        6.727007    4.748481   -0.694474
     21          6           0        7.227683    3.368833   -0.456709
     22          6           0        4.406451    5.565067   -1.748428
     23          6           0        7.491316    6.022831   -0.446610
     24          8           0        8.704906    6.030593   -0.092603
     25          6           0        6.783822    7.388388   -0.658881
     26          7           0        8.396897    0.682841    0.571007
     27          6           0        9.032842    1.830728    0.415830
     28          6           0       10.530355    1.760448    0.875812
     29          6           0       10.572623    0.274110    1.489181
     30          6           0        9.215516   -0.266111    0.977473
     31          6           0       11.556440    2.212834   -0.121803
     32          6           0       10.698928    0.089434    3.048088
     33          6           0        9.569025    0.662997    3.923596
     34          7           0        6.538354   -1.477972    0.534930
     35          6           0        7.643078   -2.266653    0.797080
     36          6           0        7.251700   -3.602268    0.879666
     37          6           0        5.874358   -3.600059    0.601783
     38          6           0        5.531741   -2.257479    0.415410
     39          6           0        8.243364   -4.793426    1.057919
     40          6           0        4.676522   -4.411894    0.581039
     41          8           0        4.484765   -5.575973    0.866464
     42          6           0        3.501083   -3.446947    0.246503
     43          6           0        2.585354   -4.074980   -0.826144
     44          8           0        2.738957   -3.962111   -2.043051
     45          8           0        1.683734   -4.863575   -0.195710
     46          6           0        0.624594   -5.336144   -1.121598
     47          6           0       -3.741742   -2.577510    0.525685
     48          6           0       -4.990750   -2.098419   -0.170873
     49          6           0       -6.143035   -2.740234   -0.463071
     50          6           0       -6.496594   -4.175986   -0.122440
     51          6           0       -7.292724   -2.019622   -1.263256
     52          6           0       -7.873388   -0.719121   -0.555588
     53          6           0       -9.398617   -0.517600   -0.695726
     54          6           0       -9.882808    0.772732   -1.385514
     55          6           0      -10.219222    1.848749   -0.394323
     56          6           0      -10.953776    0.566688   -2.416829
     57          6           0      -12.241861    0.128215   -1.736666
     58          6           0      -13.523056    0.930646   -1.974325
     59          6           0      -14.584663    0.543557   -0.961824
     60          6           0      -15.935631    0.295315   -1.588087
     61          6           0      -14.771138    1.633461    0.136747
     62          6           0      -15.313933    1.123238    1.504135
     63          6           0      -14.402109    1.253705    2.742288
     64          6           0      -14.369084    2.727277    3.227215
     65          6           0      -14.970998    3.054346    4.641082
     66          6           0      -12.877862    3.200251    3.293916
     67          1           0        3.199227    3.033824   -2.066537
     68          1           0        9.221403    3.752457    0.098944
     69          1           0        9.704612   -2.329480    1.294387
     70          1           0        1.847242   -1.616652   -1.815951
     71          1           0        1.515128    1.236589   -1.783552
     72          1           0        3.265536    0.593201   -4.036020
     73          1           0        1.553117    1.062105   -4.031011
     74          1           0        2.081571   -0.664290   -3.752063
     75          1           0        1.059087    0.195768    0.514632
     76          1           0        1.366082   -1.465159    0.783804
     77          1           0       -0.338562   -1.456729   -1.504478
     78          1           0       -0.890011   -0.212158   -0.688661
     79          1           0        3.397961    5.213841   -1.966021
     80          1           0        4.873662    5.983798   -2.640020
     81          1           0        4.254469    6.419726   -1.089164
     82          1           0        6.121090    7.468696    0.202025
     83          1           0        6.230548    7.588145   -1.576707
     84          1           0        7.595182    8.111983   -0.585045
     85          1           0       10.633583    2.450592    1.713030
     86          1           0       11.368082   -0.204504    0.918144
     87          1           0       11.128930    2.907830   -0.844933
     88          1           0       11.928109    1.375687   -0.711985
     89          1           0       12.388677    2.808395    0.253191
     90          1           0       11.629250    0.580375    3.333161
     91          1           0       10.901623   -0.928790    3.377245
     92          1           0        9.997246    1.492304    4.486282
     93          1           0        9.196057   -0.083437    4.624224
     94          1           0        8.659064    0.901478    3.371721
     95          1           0        8.109732   -5.368336    0.142478
     96          1           0        7.986094   -5.517618    1.830602
     97          1           0        9.303550   -4.560029    1.159233
     98          1           0        3.002953   -3.371927    1.212970
     99          1           0        0.097869   -6.106374   -0.558020
    100          1           0        1.069084   -5.724485   -2.037994
    101          1           0        0.119462   -4.475863   -1.561480
    102          1           0       -3.928514   -2.523407    1.597021
    103          1           0       -3.631905   -3.645690    0.334616
    104          1           0       -4.885873   -1.120010   -0.641423
    105          1           0       -5.611289   -4.640769    0.312193
    106          1           0       -6.704065   -4.720149   -1.043567
    107          1           0       -7.354549   -4.326581    0.533317
    108          1           0       -8.058821   -2.735575   -1.561152
    109          1           0       -6.750944   -1.645643   -2.132005
    110          1           0       -7.387272    0.126017   -1.043235
    111          1           0       -7.624671   -0.749058    0.505528
    112          1           0       -9.698641   -0.379327    0.342289
    113          1           0       -9.862780   -1.314796   -1.278061
    114          1           0       -9.066786    1.091428   -2.034752
    115          1           0      -10.612309    1.449456    0.539715
    116          1           0      -10.936236    2.482326   -0.918351
    117          1           0       -9.374436    2.514377   -0.221232
    118          1           0      -10.590332   -0.147399   -3.157135
    119          1           0      -11.010289    1.502253   -2.971515
    120          1           0      -12.199983   -0.051773   -0.662886
    121          1           0      -12.462696   -0.812186   -2.242056
    122          1           0      -13.988460    0.741470   -2.941584
    123          1           0      -13.296719    1.996290   -1.940782
    124          1           0      -14.420893   -0.363589   -0.379169
    125          1           0      -16.665763    1.030128   -1.249186
    126          1           0      -16.368955   -0.645499   -1.250618
    127          1           0      -15.996872    0.299065   -2.675980
    128          1           0      -15.236726    2.537116   -0.254660
    129          1           0      -13.775792    2.034963    0.330308
    130          1           0      -15.518309    0.052487    1.494750
    131          1           0      -16.265796    1.623571    1.680682
    132          1           0      -13.384789    0.927583    2.525353
    133          1           0      -14.810605    0.721652    3.600838
    134          1           0      -14.798376    3.331535    2.426999
    135          1           0      -14.612667    4.023270    4.989515
    136          1           0      -14.639102    2.315678    5.369869
    137          1           0      -16.049485    3.207946    4.596498
    138          1           0      -12.426546    2.905023    2.346049
    139          1           0      -12.426544    2.671330    4.132840
    140          1           0      -12.758511    4.274079    3.436377
 ---------------------------------------------------------------------

 SCF Done:  E(RwB97XD) =  -3007.85998003     A.U. after   19 cycles

 Excitation energies and oscillator strengths:

 Excited State   1:      Singlet-A      1.7346 eV  714.76 nm  f=0.3833  <S**2>=0.000
     245 -> 248       -0.16932
     246 -> 247        0.68388
     245 <- 248       -0.10644
 This state for optimization and/or second-order correction.
 Total Energy, E(TD-HF/TD-DFT) =  -3007.79623346
 Copying the excited state density for this state as the 1-particle RhoCI density.

 Excited State   2:      Singlet-A      2.1016 eV  589.95 nm  f=0.1992  <S**2>=0.000
     245 -> 247        0.66439
     246 -> 248        0.22070

 Excited State   3:      Singlet-A      3.3451 eV  370.65 nm  f=0.0004  <S**2>=0.000
     240 -> 247       -0.34739
     240 -> 249       -0.14546
     240 -> 250       -0.10722
     242 -> 247        0.47519
     242 -> 249        0.10330
     244 -> 247        0.19934
     246 -> 248        0.12490

 Excited State   4:      Singlet-A      3.4252 eV  361.98 nm  f=0.0060  <S**2>=0.000
     240 -> 247       -0.28367
     240 -> 249       -0.12459
     241 -> 247        0.50810
     241 -> 249        0.10539
     242 -> 247       -0.23471
     244 -> 247       -0.18043

 Excited State   5:      Singlet-A      3.5504 eV  349.21 nm  f=0.0034  <S**2>=0.000
     240 -> 247       -0.19968
     240 -> 248        0.12184
     240 -> 249        0.14093
     240 -> 250       -0.12822
     241 -> 248        0.10800
     241 -> 249        0.12627
     241 -> 250       -0.11046
     242 -> 247       -0.30046
     242 -> 248        0.12603
     242 -> 249        0.14708
     242 -> 250       -0.12458
     244 -> 247        0.39893
     244 -> 248       -0.10664
     244 -> 249       -0.13538

 The electronic state is 1-A.
 Alpha  occ. eigenvalues --  -46.95728 -19.30333 -19.29955 -19.25405 -19.24959
 Alpha  occ. eigenvalues --  -19.23797 -19.23179 -14.46595 -14.46253 -14.43933
 Alpha  occ. eigenvalues --  -14.43102 -10.44746 -10.43306 -10.38926 -10.38669
 Alpha  occ. eigenvalues --  -10.36481 -10.35495 -10.35430 -10.35212 -10.33927
 Alpha  occ. eigenvalues --  -10.33777 -10.33641 -10.33231 -10.33143 -10.33119
 Alpha  occ. eigenvalues --  -10.32587 -10.32574 -10.32570 -10.32464 -10.32240
 Alpha  occ. eigenvalues --  -10.32075 -10.31781 -10.31770 -10.31742 -10.31713
 Alpha  occ. eigenvalues --  -10.31551 -10.31278 -10.30959 -10.30863 -10.30759
 Alpha  occ. eigenvalues --  -10.30611 -10.30473 -10.30117 -10.30058 -10.29864
 Alpha  occ. eigenvalues --  -10.29859 -10.29685 -10.29434 -10.29429 -10.29385
 Alpha  occ. eigenvalues --  -10.29181 -10.29179 -10.29077 -10.28949 -10.28768
 Alpha  occ. eigenvalues --  -10.28744 -10.28723 -10.28545 -10.28525 -10.28516
 Alpha  occ. eigenvalues --  -10.28465 -10.28406 -10.28395 -10.28167 -10.27953
 Alpha  occ. eigenvalues --  -10.27529  -3.21725  -1.95328  -1.94857  -1.94690
 Alpha  occ. eigenvalues --   -1.18441  -1.18215  -1.12310  -1.09696  -1.09341
 Alpha  occ. eigenvalues --   -1.09340  -1.08234  -1.07574  -1.07109  -1.05328
 Alpha  occ. eigenvalues --   -0.94561  -0.92881  -0.91633  -0.91318  -0.91142
 Alpha  occ. eigenvalues --   -0.90868  -0.90189  -0.89478  -0.89263  -0.89023
 Alpha  occ. eigenvalues --   -0.88144  -0.87025  -0.86136  -0.85731  -0.85196
 Alpha  occ. eigenvalues --   -0.84439  -0.83543  -0.82997  -0.82674  -0.81971
 Alpha  occ. eigenvalues --   -0.81729  -0.79931  -0.79856  -0.79466  -0.78225
 Alpha  occ. eigenvalues --   -0.77708  -0.77498  -0.77474  -0.76706  -0.76285
 Alpha  occ. eigenvalues --   -0.75777  -0.75085  -0.73439  -0.72460  -0.71799
 Alpha  occ. eigenvalues --   -0.70960  -0.70438  -0.69223  -0.68678  -0.68182
 Alpha  occ. eigenvalues --   -0.67660  -0.67372  -0.66873  -0.66277  -0.65987
 Alpha  occ. eigenvalues --   -0.65830  -0.64321  -0.64033  -0.62734  -0.62648
 Alpha  occ. eigenvalues --   -0.62109  -0.61852  -0.61325  -0.60483  -0.59986
 Alpha  occ. eigenvalues --   -0.59678  -0.58550  -0.58228  -0.57751  -0.57529
 Alpha  occ. eigenvalues --   -0.57265  -0.56942  -0.56741  -0.56298  -0.56164
 Alpha  occ. eigenvalues --   -0.55788  -0.55534  -0.55071  -0.54987  -0.54804
 Alpha  occ. eigenvalues --   -0.54472  -0.54344  -0.54145  -0.54009  -0.53872
 Alpha  occ. eigenvalues --   -0.53102  -0.53052  -0.52952  -0.52734  -0.52560
 Alpha  occ. eigenvalues --   -0.52156  -0.51828  -0.51729  -0.51599  -0.51397
 Alpha  occ. eigenvalues --   -0.51288  -0.51001  -0.50896  -0.50680  -0.50561
 Alpha  occ. eigenvalues --   -0.50412  -0.50337  -0.49958  -0.49787  -0.49585
 Alpha  occ. eigenvalues --   -0.49495  -0.49081  -0.48723  -0.48685  -0.48592
 Alpha  occ. eigenvalues --   -0.48429  -0.48248  -0.48126  -0.47974  -0.47579
 Alpha  occ. eigenvalues --   -0.47461  -0.47426  -0.47352  -0.47278  -0.46876
 Alpha  occ. eigenvalues --   -0.46810  -0.46563  -0.46117  -0.46071  -0.45967
 Alpha  occ. eigenvalues --   -0.45880  -0.45698  -0.45541  -0.44939  -0.44870
 Alpha  occ. eigenvalues --   -0.44714  -0.44592  -0.44379  -0.44221  -0.43917
 Alpha  occ. eigenvalues --   -0.43694  -0.43630  -0.43341  -0.43179  -0.43060
 Alpha  occ. eigenvalues --   -0.42939  -0.42889  -0.42504  -0.42191  -0.41912
 Alpha  occ. eigenvalues --   -0.41735  -0.41479  -0.41298  -0.41174  -0.40700
 Alpha  occ. eigenvalues --   -0.40396  -0.39881  -0.39758  -0.39289  -0.39255
 Alpha  occ. eigenvalues --   -0.38949  -0.38905  -0.38633  -0.38456  -0.38267
 Alpha  occ. eigenvalues --   -0.37773  -0.37196  -0.36811  -0.36438  -0.36396
 Alpha  occ. eigenvalues --   -0.36286  -0.36059  -0.35521  -0.33727  -0.32480
 Alpha  occ. eigenvalues --   -0.32465  -0.32289  -0.31829  -0.31720  -0.25372
 Alpha  occ. eigenvalues --   -0.23423
 Alpha virt. eigenvalues --   -0.07175   0.00853   0.02909   0.04574   0.06446
 Alpha virt. eigenvalues --    0.06535   0.07284   0.07719   0.07880   0.09532
 Alpha virt. eigenvalues --    0.10511   0.11545   0.11610   0.11946   0.12554

 Mulliken charges:
               1
     1  Mg   0.962163
     2  C   -0.027854
     3  C   -0.063963
     4  C   -0.069411
     5  C   -0.079913
     6  N   -0.329837
     7  C    0.033233
     8  C   -0.096996
     9  C   -0.108795
    10  C    0.045854
    11  C    0.042302
    12  C    0.076858
    13  C   -0.063702
    14  C    0.250208
    15  O   -0.256009
    16  O   -0.386168
    17  N   -0.461020
    18  C    0.124010
    19  C   -0.163124
    20  C   -0.060574
    21  C    0.161525
    22  C    0.062548
    23  C    0.044931
    24  O   -0.274960
    25  C   -0.032901
    26  N   -0.328380
    27  C    0.016405
    28  C   -0.073322
    29  C   -0.032674
    30  C   -0.012495
    31  C    0.032689
    32  C   -0.011205
    33  C   -0.063378
    34  N   -0.335846
    35  C    0.124538
    36  C   -0.150464
    37  C   -0.061956
    38  C    0.105091
    39  C    0.068154
    40  C    0.106817
    41  O   -0.185964
    42  C   -0.093480
    43  C    0.261063
    44  O   -0.266719
    45  O   -0.332047
    46  C    0.160318
    47  C    0.282905
    48  C   -0.149815
    49  C   -0.217439
    50  C    0.031655
    51  C    0.013254
    52  C   -0.011591
    53  C    0.033133
    54  C   -0.229620
    55  C    0.029086
    56  C    0.027499
    57  C   -0.067408
    58  C    0.081365
    59  C   -0.207490
    60  C    0.013906
    61  C   -0.001634
    62  C   -0.032779
    63  C    0.031645
    64  C   -0.221638
    65  C    0.002556
    66  C   -0.043228
    67  H   -0.018374
    68  H    0.017455
    69  H   -0.004925
    70  H    0.043139
    71  H    0.019865
    72  H    0.047148
    73  H    0.043657
    74  H    0.042485
    75  H    0.039491
    76  H    0.047813
    77  H    0.048789
    78  H    0.053974
    79  H    0.038818
    80  H    0.056753
    81  H    0.038203
    82  H    0.060792
    83  H    0.054308
    84  H    0.052996
    85  H    0.041719
    86  H    0.024147
    87  H    0.038563
    88  H    0.026978
    89  H    0.039298
    90  H    0.029512
    91  H    0.033729
    92  H    0.047170
    93  H    0.036297
    94  H    0.050116
    95  H    0.055627
    96  H    0.054776
    97  H    0.035541
    98  H    0.092817
    99  H    0.078233
   100  H    0.049408
   101  H    0.033894
   102  H    0.065878
   103  H    0.036928
   104  H    0.023010
   105  H    0.016115
   106  H    0.043545
   107  H    0.053090
   108  H    0.022210
   109  H    0.038935
   110  H    0.018832
   111  H    0.031722
   112  H    0.011415
   113  H    0.017803
   114  H    0.002833
   115  H    0.038828
   116  H    0.013863
   117  H    0.032755
   118  H    0.013548
   119  H    0.014234
   120  H    0.032857
   121  H    0.022840
   122  H    0.005197
   123  H    0.009615
   124  H    0.018443
   125  H    0.014687
   126  H    0.021022
   127  H    0.024228
   128  H    0.019820
   129  H   -0.006861
   130  H    0.017656
   131  H    0.025525
   132  H    0.019222
   133  H    0.015214
   134  H    0.022516
   135  H    0.022391
   136  H    0.033799
   137  H    0.030350
   138  H    0.028712
   139  H    0.025376
   140  H    0.031725
 Sum of Mulliken charges =  -0.00000

 Dipole moment (field-independent basis, Debye):
    X=             -3.1794    Y=              2.5472    Z=             -1.3528  Tot=              4.2927
 Quadrupole moment (field-independent basis, Debye-Ang):
   XX=           -371.2433   YY=           -423.7947   ZZ=           -400.7327
   XY=             -4.8219   XZ=             14.7761   YZ=             -0.6423

 Normal termination of Gaussian 16 at Wed May  4 13:18:54 2022.
