 Gaussian 16, Revision A.03,
 Gaussian 16:  ES64L-G16RevA.03 25-Dec-2016

 --------------------
 #p ZINDO=(nstates=5)
 --------------------

 ------------------------------
 step_1751_chromophore_16 ZINDO
 ------------------------------
 Symbolic Z-matrix:
 Charge =  0 Multiplicity = 1

                         Standard orientation:
 ---------------------------------------------------------------------
 Center     Atomic      Atomic             Coordinates (Angstroms)
 Number     Number       Type             X           Y           Z
 ---------------------------------------------------------------------
      1         12           0        6.411567    0.679764   -0.070187
      2          6           0        4.173021   -2.150387   -0.065765
      3          6           0        3.934906    2.414201   -1.549572
      4          6           0        8.467887    2.969146   -0.004996
      5          6           0        8.865144   -1.671787    1.059878
      6          7           0        4.331462    0.132099   -0.860655
      7          6           0        3.590405   -0.997024   -0.670949
      8          6           0        2.141908   -0.811411   -1.144481
      9          6           0        2.290956    0.513299   -2.031168
     10          6           0        3.586191    1.094096   -1.457536
     11          6           0        2.291766    0.393030   -3.589457
     12          6           0        1.100249   -0.761693   -0.005029
     13          6           0       -0.321955   -1.116232   -0.468887
     14          6           0       -1.279698   -2.141357    0.356774
     15          8           0       -1.095649   -2.892383    1.315198
     16          8           0       -2.565579   -1.996877   -0.117142
     17          7           0        6.238681    2.579857   -0.572468
     18          6           0        5.116353    3.159521   -1.062320
     19          6           0        5.370550    4.571905   -1.159529
     20          6           0        6.727007    4.748481   -0.694474
     21          6           0        7.227683    3.368833   -0.456709
     22          6           0        4.406451    5.565067   -1.748428
     23          6           0        7.491316    6.022831   -0.446610
     24          8           0        8.704906    6.030593   -0.092603
     25          6           0        6.783822    7.388388   -0.658881
     26          7           0        8.396897    0.682841    0.571007
     27          6           0        9.032842    1.830728    0.415830
     28          6           0       10.530355    1.760448    0.875812
     29          6           0       10.572623    0.274110    1.489181
     30          6           0        9.215516   -0.266111    0.977473
     31          6           0       11.556440    2.212834   -0.121803
     32          6           0       10.698928    0.089434    3.048088
     33          6           0        9.569025    0.662997    3.923596
     34          7           0        6.538354   -1.477972    0.534930
     35          6           0        7.643078   -2.266653    0.797080
     36          6           0        7.251700   -3.602268    0.879666
     37          6           0        5.874358   -3.600059    0.601783
     38          6           0        5.531741   -2.257479    0.415410
     39          6           0        8.243364   -4.793426    1.057919
     40          6           0        4.676522   -4.411894    0.581039
     41          8           0        4.484765   -5.575973    0.866464
     42          6           0        3.501083   -3.446947    0.246503
     43          6           0        2.585354   -4.074980   -0.826144
     44          8           0        2.738957   -3.962111   -2.043051
     45          8           0        1.683734   -4.863575   -0.195710
     46          6           0        0.624594   -5.336144   -1.121598
     47          6           0       -3.741742   -2.577510    0.525685
     48          6           0       -4.990750   -2.098419   -0.170873
     49          6           0       -6.143035   -2.740234   -0.463071
     50          6           0       -6.496594   -4.175986   -0.122440
     51          6           0       -7.292724   -2.019622   -1.263256
     52          6           0       -7.873388   -0.719121   -0.555588
     53          6           0       -9.398617   -0.517600   -0.695726
     54          6           0       -9.882808    0.772732   -1.385514
     55          6           0      -10.219222    1.848749   -0.394323
     56          6           0      -10.953776    0.566688   -2.416829
     57          6           0      -12.241861    0.128215   -1.736666
     58          6           0      -13.523056    0.930646   -1.974325
     59          6           0      -14.584663    0.543557   -0.961824
     60          6           0      -15.935631    0.295315   -1.588087
     61          6           0      -14.771138    1.633461    0.136747
     62          6           0      -15.313933    1.123238    1.504135
     63          6           0      -14.402109    1.253705    2.742288
     64          6           0      -14.369084    2.727277    3.227215
     65          6           0      -14.970998    3.054346    4.641082
     66          6           0      -12.877862    3.200251    3.293916
     67          1           0        3.199227    3.033824   -2.066537
     68          1           0        9.221403    3.752457    0.098944
     69          1           0        9.704612   -2.329480    1.294387
     70          1           0        1.847242   -1.616652   -1.815951
     71          1           0        1.515128    1.236589   -1.783552
     72          1           0        3.265536    0.593201   -4.036020
     73          1           0        1.553117    1.062105   -4.031011
     74          1           0        2.081571   -0.664290   -3.752063
     75          1           0        1.059087    0.195768    0.514632
     76          1           0        1.366082   -1.465159    0.783804
     77          1           0       -0.338562   -1.456729   -1.504478
     78          1           0       -0.890011   -0.212158   -0.688661
     79          1           0        3.397961    5.213841   -1.966021
     80          1           0        4.873662    5.983798   -2.640020
     81          1           0        4.254469    6.419726   -1.089164
     82          1           0        6.121090    7.468696    0.202025
     83          1           0        6.230548    7.588145   -1.576707
     84          1           0        7.595182    8.111983   -0.585045
     85          1           0       10.633583    2.450592    1.713030
     86          1           0       11.368082   -0.204504    0.918144
     87          1           0       11.128930    2.907830   -0.844933
     88          1           0       11.928109    1.375687   -0.711985
     89          1           0       12.388677    2.808395    0.253191
     90          1           0       11.629250    0.580375    3.333161
     91          1           0       10.901623   -0.928790    3.377245
     92          1           0        9.997246    1.492304    4.486282
     93          1           0        9.196057   -0.083437    4.624224
     94          1           0        8.659064    0.901478    3.371721
     95          1           0        8.109732   -5.368336    0.142478
     96          1           0        7.986094   -5.517618    1.830602
     97          1           0        9.303550   -4.560029    1.159233
     98          1           0        3.002953   -3.371927    1.212970
     99          1           0        0.097869   -6.106374   -0.558020
    100          1           0        1.069084   -5.724485   -2.037994
    101          1           0        0.119462   -4.475863   -1.561480
    102          1           0       -3.928514   -2.523407    1.597021
    103          1           0       -3.631905   -3.645690    0.334616
    104          1           0       -4.885873   -1.120010   -0.641423
    105          1           0       -5.611289   -4.640769    0.312193
    106          1           0       -6.704065   -4.720149   -1.043567
    107          1           0       -7.354549   -4.326581    0.533317
    108          1           0       -8.058821   -2.735575   -1.561152
    109          1           0       -6.750944   -1.645643   -2.132005
    110          1           0       -7.387272    0.126017   -1.043235
    111          1           0       -7.624671   -0.749058    0.505528
    112          1           0       -9.698641   -0.379327    0.342289
    113          1           0       -9.862780   -1.314796   -1.278061
    114          1           0       -9.066786    1.091428   -2.034752
    115          1           0      -10.612309    1.449456    0.539715
    116          1           0      -10.936236    2.482326   -0.918351
    117          1           0       -9.374436    2.514377   -0.221232
    118          1           0      -10.590332   -0.147399   -3.157135
    119          1           0      -11.010289    1.502253   -2.971515
    120          1           0      -12.199983   -0.051773   -0.662886
    121          1           0      -12.462696   -0.812186   -2.242056
    122          1           0      -13.988460    0.741470   -2.941584
    123          1           0      -13.296719    1.996290   -1.940782
    124          1           0      -14.420893   -0.363589   -0.379169
    125          1           0      -16.665763    1.030128   -1.249186
    126          1           0      -16.368955   -0.645499   -1.250618
    127          1           0      -15.996872    0.299065   -2.675980
    128          1           0      -15.236726    2.537116   -0.254660
    129          1           0      -13.775792    2.034963    0.330308
    130          1           0      -15.518309    0.052487    1.494750
    131          1           0      -16.265796    1.623571    1.680682
    132          1           0      -13.384789    0.927583    2.525353
    133          1           0      -14.810605    0.721652    3.600838
    134          1           0      -14.798376    3.331535    2.426999
    135          1           0      -14.612667    4.023270    4.989515
    136          1           0      -14.639102    2.315678    5.369869
    137          1           0      -16.049485    3.207946    4.596498
    138          1           0      -12.426546    2.905023    2.346049
    139          1           0      -12.426544    2.671330    4.132840
    140          1           0      -12.758511    4.274079    3.436377
 ---------------------------------------------------------------------

 SCF Done:  E(RZINDO/S) =  -474.468357220     A.U. after   19 cycles

 Excitation energies and oscillator strengths:

 Excited State   1:      Singlet-A      1.3171 eV  941.33 nm  f=0.5999  <S**2>=0.000
     175 ->178         0.16999
     176 ->177         0.66734
 This state for optimization and/or second-order correction.
 Total Energy, E(CIS/TDA) =  -474.419954166
 Copying the excited state density for this state as the 1-particle RhoCI density.

 Excited State   2:      Singlet-A      1.8947 eV  654.36 nm  f=0.1508  <S**2>=0.000
     175 ->177         0.60509
     176 ->178        -0.32540

 Excited State   3:      Singlet-A      2.9044 eV  426.88 nm  f=0.0425  <S**2>=0.000
     167 ->179        -0.11785
     168 ->177         0.36260
     168 ->179        -0.37884
     168 ->181         0.15332
     168 ->182         0.11052
     168 ->186        -0.19155
     168 ->195         0.11209
     172 ->177        -0.11324
     176 ->178         0.15541

 Excited State   4:      Singlet-A      3.0286 eV  409.38 nm  f=0.0136  <S**2>=0.000
     170 ->177         0.26460
     170 ->178        -0.20552
     170 ->179         0.23092
     170 ->181         0.37113
     170 ->182         0.16868
     170 ->186         0.15378
     170 ->188         0.11348
     170 ->189         0.16402
     174 ->177        -0.11848

 Excited State   5:      Singlet-A      3.0564 eV  405.65 nm  f=0.5904  <S**2>=0.000
     168 ->179         0.10614
     171 ->177         0.14219
     175 ->177         0.25255
     176 ->178         0.52407
     176 ->179        -0.12916
     176 ->181        -0.16958

 The electronic state is 1-A.
 Alpha  occ. eigenvalues --   -1.87425  -1.85564  -1.81227  -1.73445  -1.72808
 Alpha  occ. eigenvalues --   -1.70342  -1.68476  -1.62198  -1.60239  -1.55123
 Alpha  occ. eigenvalues --   -1.54295  -1.51660  -1.48902  -1.47288  -1.45634
 Alpha  occ. eigenvalues --   -1.44311  -1.43035  -1.41338  -1.38167  -1.38068
 Alpha  occ. eigenvalues --   -1.35944  -1.33436  -1.32770  -1.31021  -1.29929
 Alpha  occ. eigenvalues --   -1.27166  -1.25949  -1.21963  -1.19762  -1.18014
 Alpha  occ. eigenvalues --   -1.16899  -1.16296  -1.14885  -1.14182  -1.13549
 Alpha  occ. eigenvalues --   -1.13460  -1.12017  -1.10465  -1.06469  -1.03425
 Alpha  occ. eigenvalues --   -1.02342  -1.01660  -1.00502  -0.98683  -0.98144
 Alpha  occ. eigenvalues --   -0.96943  -0.94278  -0.93444  -0.93297  -0.92976
 Alpha  occ. eigenvalues --   -0.91855  -0.90466  -0.87736  -0.87376  -0.85822
 Alpha  occ. eigenvalues --   -0.85300  -0.83653  -0.82826  -0.81893  -0.80623
 Alpha  occ. eigenvalues --   -0.79472  -0.78741  -0.78227  -0.77458  -0.76528
 Alpha  occ. eigenvalues --   -0.76489  -0.75578  -0.74864  -0.74510  -0.74296
 Alpha  occ. eigenvalues --   -0.73496  -0.73123  -0.72365  -0.71651  -0.70387
 Alpha  occ. eigenvalues --   -0.70305  -0.69593  -0.69141  -0.68616  -0.67973
 Alpha  occ. eigenvalues --   -0.67523  -0.66942  -0.66662  -0.66083  -0.65453
 Alpha  occ. eigenvalues --   -0.64549  -0.64162  -0.63875  -0.63557  -0.63360
 Alpha  occ. eigenvalues --   -0.62642  -0.62403  -0.62115  -0.61490  -0.61390
 Alpha  occ. eigenvalues --   -0.60831  -0.60523  -0.60424  -0.60267  -0.59768
 Alpha  occ. eigenvalues --   -0.59446  -0.59167  -0.58778  -0.58614  -0.58139
 Alpha  occ. eigenvalues --   -0.58047  -0.57583  -0.57424  -0.56806  -0.56111
 Alpha  occ. eigenvalues --   -0.56032  -0.55735  -0.55177  -0.54951  -0.54924
 Alpha  occ. eigenvalues --   -0.54755  -0.54305  -0.53766  -0.53401  -0.53082
 Alpha  occ. eigenvalues --   -0.52700  -0.52347  -0.52237  -0.51717  -0.51567
 Alpha  occ. eigenvalues --   -0.51273  -0.50963  -0.50912  -0.50745  -0.50392
 Alpha  occ. eigenvalues --   -0.50068  -0.49967  -0.49635  -0.48902  -0.48706
 Alpha  occ. eigenvalues --   -0.48404  -0.48196  -0.48098  -0.47986  -0.47814
 Alpha  occ. eigenvalues --   -0.47658  -0.46936  -0.46674  -0.46528  -0.46291
 Alpha  occ. eigenvalues --   -0.46191  -0.45719  -0.45637  -0.45466  -0.45266
 Alpha  occ. eigenvalues --   -0.45154  -0.45016  -0.44903  -0.43795  -0.43575
 Alpha  occ. eigenvalues --   -0.43299  -0.43155  -0.42854  -0.42728  -0.42157
 Alpha  occ. eigenvalues --   -0.41714  -0.41353  -0.41100  -0.39469  -0.39287
 Alpha  occ. eigenvalues --   -0.38556  -0.36798  -0.35458  -0.35038  -0.34356
 Alpha  occ. eigenvalues --   -0.33731  -0.32554  -0.32262  -0.31492  -0.26252
 Alpha  occ. eigenvalues --   -0.22271
 Alpha virt. eigenvalues --   -0.08722  -0.01505  -0.00325   0.01354   0.01465
 Alpha virt. eigenvalues --    0.02230   0.02966   0.03665   0.04581   0.04919
 Alpha virt. eigenvalues --    0.05989   0.06497   0.07069   0.07146   0.07661

 Mulliken charges:
               1
     1  Mg   0.436586
     2  C   -0.080395
     3  C   -0.089970
     4  C   -0.041168
     5  C   -0.061840
     6  N   -0.306032
     7  C    0.152609
     8  C    0.010692
     9  C   -0.003456
    10  C    0.112496
    11  C   -0.048293
    12  C   -0.010808
    13  C    0.003935
    14  C    0.456953
    15  O   -0.505286
    16  O   -0.281421
    17  N   -0.271354
    18  C    0.058925
    19  C   -0.010892
    20  C   -0.077685
    21  C    0.136914
    22  C   -0.040726
    23  C    0.317624
    24  O   -0.554992
    25  C   -0.036708
    26  N   -0.238109
    27  C    0.104844
    28  C    0.001613
    29  C    0.002389
    30  C    0.153314
    31  C   -0.044830
    32  C   -0.020634
    33  C   -0.054417
    34  N   -0.336639
    35  C    0.116923
    36  C    0.052853
    37  C   -0.044935
    38  C    0.159799
    39  C   -0.045721
    40  C    0.339840
    41  O   -0.508165
    42  C    0.053249
    43  C    0.487336
    44  O   -0.532498
    45  O   -0.249029
    46  C    0.068213
    47  C    0.115454
    48  C   -0.084358
    49  C   -0.013960
    50  C   -0.043115
    51  C   -0.034465
    52  C   -0.035613
    53  C   -0.044205
    54  C   -0.010365
    55  C   -0.053074
    56  C   -0.024455
    57  C   -0.034498
    58  C   -0.027415
    59  C   -0.007332
    60  C   -0.058860
    61  C   -0.036472
    62  C   -0.031315
    63  C   -0.030414
    64  C   -0.023157
    65  C   -0.055161
    66  C   -0.063081
    67  H    0.017236
    68  H    0.034379
    69  H    0.026133
    70  H    0.042476
    71  H    0.017286
    72  H    0.028966
    73  H    0.025278
    74  H    0.024957
    75  H    0.028744
    76  H    0.028430
    77  H    0.041260
    78  H    0.037883
    79  H    0.024861
    80  H    0.028338
    81  H    0.020129
    82  H    0.037133
    83  H    0.039620
    84  H    0.033020
    85  H    0.027740
    86  H    0.028890
    87  H    0.023622
    88  H    0.016121
    89  H    0.024853
    90  H    0.012713
    91  H    0.023427
    92  H    0.026747
    93  H    0.015405
    94  H    0.029288
    95  H    0.031438
    96  H    0.037782
    97  H    0.027875
    98  H    0.063261
    99  H    0.049562
   100  H    0.042995
   101  H    0.044288
   102  H    0.063328
   103  H    0.037599
   104  H    0.026364
   105  H    0.016124
   106  H    0.025846
   107  H    0.032982
   108  H    0.028762
   109  H    0.022302
   110  H    0.022210
   111  H    0.023115
   112  H    0.022795
   113  H    0.026934
   114  H    0.003968
   115  H    0.028152
   116  H    0.012835
   117  H    0.015413
   118  H    0.012019
   119  H    0.014361
   120  H    0.030295
   121  H    0.008391
   122  H    0.018701
   123  H    0.019524
   124  H    0.025188
   125  H    0.011604
   126  H    0.010103
   127  H    0.018182
   128  H    0.024556
   129  H    0.001029
   130  H    0.011570
   131  H    0.018063
   132  H    0.026281
   133  H    0.018518
   134  H    0.020555
   135  H    0.013261
   136  H    0.026594
   137  H    0.016944
   138  H    0.012755
   139  H    0.018250
   140  H    0.017151
 Sum of Mulliken charges =  -0.00000

 Dipole moment (field-independent basis, Debye):
    X=             -3.3863    Y=              1.8437    Z=             -0.9544  Tot=              3.9720
 N-N= 4.186747403011D+03 E-N= 0.000000000000D+00  KE=-9.047964266138D+03
 Leave Link  601 at Wed May  4 13:30:05 2022, MaxMem=  6710886400 cpu:               0.8 elap:               0.0
 (Enter /sw/apps/gaussian-16.0/g16/l9999.exe)
 1\1\GINC-BP1-COMPUTE122\SP\RZINDO CIS\STO-3G\C55H74Mg1N4O6\OF15641\04-
 May-2022\0\\#p ZINDO=(nstates=5)\\step_1751_chromophore_16 ZINDO\\0,1\
 Mg,0,41.408,41.22,26.755\C,0,40.445,43.687,29.206\C,0,42.68,39.434,29.
 309\C,0,42.168,39.246,24.519\C,0,40.353,43.663,24.358\N,0,41.667,41.60
 6,28.999\C,0,41.131,42.58,29.789\C,0,41.343,42.282,31.28\C,0,42.473,41
 .151,31.195\C,0,42.278,40.663,29.757\C,0,43.952,41.522,31.538\C,0,40.0
 54,41.909,32.045\C,0,40.161,42.141,33.561\C,0,38.99,42.881,34.416\O,0,

 Normal termination of Gaussian 16 at Wed May  4 13:30:05 2022.
