 Gaussian 16, Revision A.03,
 Gaussian 16:  ES64L-G16RevA.03 25-Dec-2016

 ------------------------------
 #p blyp/Def2SVP td=(nstates=5)
 ------------------------------

 ---------------------------------------------------
 step_1001_chromophore_15 TDDFT with blyp functional
 ---------------------------------------------------
 Symbolic Z-matrix:
 Charge =  0 Multiplicity = 1

                         Standard orientation:
 ---------------------------------------------------------------------
 Center     Atomic      Atomic             Coordinates (Angstroms)
 Number     Number       Type             X           Y           Z
 ---------------------------------------------------------------------
      1         12           0       -4.937792    1.008081    0.303324
      2          6           0       -4.630799   -2.469836    0.921919
      3          6           0       -1.535504    1.352702    0.671778
      4          6           0       -5.167780    4.321188   -0.176860
      5          6           0       -8.376371    0.573737    0.153705
      6          7           0       -3.316926   -0.417215    0.812480
      7          6           0       -3.395661   -1.772223    0.759988
      8          6           0       -2.011265   -2.389284    0.580178
      9          6           0       -1.025511   -1.156078    0.876286
     10          6           0       -2.002895   -0.010267    0.809873
     11          6           0       -0.144204   -1.212895    2.131666
     12          6           0       -1.836885   -3.152954   -0.828879
     13          6           0       -0.653847   -2.803973   -1.666375
     14          6           0        0.687406   -3.514373   -1.432742
     15          8           0        1.031331   -4.029803   -0.397400
     16          8           0        1.535232   -3.249652   -2.540392
     17          7           0       -3.539391    2.566550    0.286350
     18          6           0       -2.218366    2.481018    0.448254
     19          6           0       -1.561336    3.764630    0.237318
     20          6           0       -2.555211    4.720819   -0.100569
     21          6           0       -3.831822    3.884281    0.015081
     22          6           0       -0.091837    3.905719    0.341787
     23          6           0       -2.428496    6.305290   -0.434626
     24          8           0       -3.400664    7.064426   -0.586640
     25          6           0       -1.050943    6.904906   -0.452917
     26          7           0       -6.563612    2.344149    0.203656
     27          6           0       -6.369468    3.635036   -0.058285
     28          6           0       -7.758189    4.312721   -0.479154
     29          6           0       -8.760917    3.085926   -0.439350
     30          6           0       -7.870010    1.927293    0.010435
     31          6           0       -8.199076    5.459946    0.394962
     32          6           0       -9.487503    2.753824   -1.713230
     33          6           0      -10.943910    3.054236   -1.648722
     34          7           0       -6.287746   -0.531275    0.587590
     35          6           0       -7.622107   -0.584460    0.403267
     36          6           0       -8.118163   -1.930741    0.702713
     37          6           0       -6.999843   -2.738920    0.814750
     38          6           0       -5.897500   -1.822919    0.801886
     39          6           0       -9.624180   -2.454698    0.738717
     40          6           0       -6.503131   -4.137017    0.933770
     41          8           0       -7.079516   -5.197611    0.854517
     42          6           0       -4.976490   -3.972170    1.268629
     43          6           0       -4.212807   -5.100812    0.665127
     44          8           0       -4.383118   -5.608943   -0.435648
     45          8           0       -3.258732   -5.459806    1.596439
     46          6           0       -2.371551   -6.533819    1.217778
     47          6           0        2.798030   -3.947585   -2.549046
     48          6           0        3.942334   -3.002425   -2.396144
     49          6           0        4.934427   -2.940067   -1.422048
     50          6           0        5.115206   -3.972722   -0.247587
     51          6           0        6.024735   -1.868255   -1.552538
     52          6           0        7.337188   -2.367444   -2.192900
     53          6           0        7.745932   -1.280799   -3.259682
     54          6           0        8.432989   -0.044470   -2.579465
     55          6           0        7.597163    1.321700   -2.836586
     56          6           0        9.960295    0.101513   -2.790462
     57          6           0       10.711114    0.285430   -1.433059
     58          6           0       11.962191    1.139517   -1.549725
     59          6           0       12.004682    2.205696   -0.452033
     60          6           0       12.680222    3.455759   -0.884033
     61          6           0       12.538937    1.592719    0.867253
     62          6           0       11.802338    2.250712    2.025532
     63          6           0       10.831736    1.277091    2.728948
     64          6           0       10.973383    1.184264    4.239391
     65          6           0       12.200198    0.183004    4.451236
     66          6           0        9.795006    0.661776    4.916454
     67          1           0       -0.455915    1.296759    0.519605
     68          1           0       -5.199738    5.362708   -0.502535
     69          1           0       -9.463973    0.493694    0.221376
     70          1           0       -1.864769   -3.134555    1.361151
     71          1           0       -0.359722   -1.012772    0.024318
     72          1           0        0.901242   -1.389924    1.877895
     73          1           0       -0.510026   -1.948062    2.848693
     74          1           0       -0.053546   -0.234564    2.603196
     75          1           0       -2.745759   -3.068967   -1.426414
     76          1           0       -1.685426   -4.225363   -0.705615
     77          1           0       -0.523957   -1.766137   -1.975659
     78          1           0       -0.975427   -3.217207   -2.622424
     79          1           0        0.166076    4.496665   -0.536338
     80          1           0        0.417898    2.945486    0.416917
     81          1           0        0.277805    4.393416    1.244121
     82          1           0       -0.608668    6.871318    0.542439
     83          1           0       -1.083792    7.884552   -0.928421
     84          1           0       -0.408314    6.395652   -1.171151
     85          1           0       -7.651023    4.569143   -1.532888
     86          1           0       -9.464497    3.188780    0.386767
     87          1           0       -7.570170    6.314870    0.147743
     88          1           0       -7.890407    5.237415    1.415811
     89          1           0       -9.268753    5.609237    0.246722
     90          1           0       -9.365017    1.696013   -1.944680
     91          1           0       -8.970220    3.278080   -2.516701
     92          1           0      -11.437777    3.187391   -2.611939
     93          1           0      -10.942218    3.939051   -1.013055
     94          1           0      -11.478321    2.287395   -1.087393
     95          1           0      -10.163373   -1.731028    0.126478
     96          1           0      -10.178965   -2.410592    1.675844
     97          1           0       -9.638316   -3.419812    0.232708
     98          1           0       -4.921297   -4.062595    2.353190
     99          1           0       -2.863838   -7.395156    0.766437
    100          1           0       -1.980982   -7.011862    2.115278
    101          1           0       -1.555419   -6.180191    0.588447
    102          1           0        2.728803   -4.642571   -3.386978
    103          1           0        2.846449   -4.652814   -1.719746
    104          1           0        4.041032   -2.236090   -3.164587
    105          1           0        5.005783   -3.525535    0.740246
    106          1           0        6.070730   -4.488999   -0.335131
    107          1           0        4.334174   -4.712494   -0.074034
    108          1           0        6.284273   -1.573652   -0.535043
    109          1           0        5.568587   -1.029366   -2.076704
    110          1           0        7.294484   -3.365973   -2.627928
    111          1           0        8.199415   -2.397736   -1.526999
    112          1           0        6.851155   -0.969548   -3.797865
    113          1           0        8.468588   -1.667150   -3.978549
    114          1           0        8.314292   -0.142129   -1.499600
    115          1           0        7.463095    1.728063   -1.834091
    116          1           0        6.572249    1.268240   -3.203607
    117          1           0        8.250139    2.044365   -3.326742
    118          1           0       10.144307    0.993776   -3.388983
    119          1           0       10.305147   -0.787851   -3.317426
    120          1           0       11.033667   -0.735972   -1.230688
    121          1           0        9.992685    0.662100   -0.704172
    122          1           0       12.132323    1.587088   -2.528957
    123          1           0       12.768518    0.410372   -1.474625
    124          1           0       11.013618    2.612763   -0.251227
    125          1           0       12.936391    4.025104    0.008732
    126          1           0       11.981877    4.149257   -1.352103
    127          1           0       13.601072    3.241037   -1.426458
    128          1           0       13.601272    1.772502    1.032561
    129          1           0       12.371332    0.518496    0.788822
    130          1           0       11.372951    3.239020    1.857807
    131          1           0       12.550642    2.672722    2.695683
    132          1           0       11.003541    0.256517    2.384330
    133          1           0        9.861169    1.576476    2.333626
    134          1           0       11.459115    2.022997    4.738723
    135          1           0       12.953818    0.050238    3.674709
    136          1           0       11.762567   -0.777152    4.723275
    137          1           0       12.635400    0.511062    5.395418
    138          1           0        9.108877    1.485616    5.110892
    139          1           0       10.011449    0.076460    5.810699
    140          1           0        9.221012    0.053119    4.219375
 ---------------------------------------------------------------------

 SCF Done:  E(RB-LYP) =  -3007.35521030     A.U. after   20 cycles

 Excitation energies and oscillator strengths:

 Excited State   1:      Singlet-A      1.7979 eV  689.59 nm  f=0.2785  <S**2>=0.000
     245 -> 248       -0.20057
     246 -> 247        0.68130
     246 <- 247       -0.13692
 This state for optimization and/or second-order correction.
 Total Energy, E(TD-HF/TD-DFT) =  -3007.28913728
 Copying the excited state density for this state as the 1-particle RhoCI density.

 Excited State   2:      Singlet-A      2.0266 eV  611.78 nm  f=0.0456  <S**2>=0.000
     244 -> 247       -0.10556
     245 -> 247        0.62240
     246 -> 248        0.29008

 Excited State   3:      Singlet-A      2.3026 eV  538.44 nm  f=0.0016  <S**2>=0.000
     244 -> 247        0.68556
     246 -> 248        0.15438

 Excited State   4:      Singlet-A      2.4718 eV  501.59 nm  f=0.0002  <S**2>=0.000
     243 -> 247        0.70444

 Excited State   5:      Singlet-A      2.5336 eV  489.36 nm  f=0.0161  <S**2>=0.000
     245 -> 247       -0.11029
     246 -> 248        0.41389
     246 -> 249        0.52053
     246 -> 250       -0.10034

 The electronic state is 1-A.
 Alpha  occ. eigenvalues --  -46.27021 -18.82471 -18.81653 -18.78512 -18.76995
 Alpha  occ. eigenvalues --  -18.76961 -18.76211 -14.03304 -14.02976 -14.01200
 Alpha  occ. eigenvalues --  -14.00897 -10.05024 -10.03962 -10.01653  -9.99937
 Alpha  occ. eigenvalues --   -9.97466  -9.97370  -9.96630  -9.96572  -9.96369
 Alpha  occ. eigenvalues --   -9.96236  -9.96060  -9.95247  -9.94745  -9.94731
 Alpha  occ. eigenvalues --   -9.94619  -9.94399  -9.94227  -9.93945  -9.93940
 Alpha  occ. eigenvalues --   -9.93889  -9.93832  -9.93811  -9.93516  -9.93375
 Alpha  occ. eigenvalues --   -9.93367  -9.92958  -9.92831  -9.92814  -9.92795
 Alpha  occ. eigenvalues --   -9.92740  -9.92692  -9.92497  -9.92367  -9.92334
 Alpha  occ. eigenvalues --   -9.92313  -9.92247  -9.92187  -9.91800  -9.91791
 Alpha  occ. eigenvalues --   -9.91790  -9.91626  -9.91602  -9.91498  -9.91411
 Alpha  occ. eigenvalues --   -9.91395  -9.91304  -9.91164  -9.91163  -9.90996
 Alpha  occ. eigenvalues --   -9.90963  -9.90864  -9.90855  -9.90723  -9.90706
 Alpha  occ. eigenvalues --   -9.90557  -2.91670  -1.72099  -1.71521  -1.71408
 Alpha  occ. eigenvalues --   -0.97745  -0.97710  -0.92159  -0.91404  -0.91151
 Alpha  occ. eigenvalues --   -0.89990  -0.86555  -0.86022  -0.85496  -0.84904
 Alpha  occ. eigenvalues --   -0.74646  -0.74021  -0.73273  -0.73017  -0.72702
 Alpha  occ. eigenvalues --   -0.72411  -0.71891  -0.71092  -0.70629  -0.70289
 Alpha  occ. eigenvalues --   -0.69242  -0.68874  -0.68342  -0.67714  -0.67242
 Alpha  occ. eigenvalues --   -0.66681  -0.66211  -0.65550  -0.64992  -0.64621
 Alpha  occ. eigenvalues --   -0.63954  -0.62287  -0.61958  -0.61864  -0.60701
 Alpha  occ. eigenvalues --   -0.60546  -0.60365  -0.60000  -0.59553  -0.59252
 Alpha  occ. eigenvalues --   -0.58476  -0.56907  -0.56835  -0.55644  -0.54008
 Alpha  occ. eigenvalues --   -0.53888  -0.53626  -0.52881  -0.52361  -0.51496
 Alpha  occ. eigenvalues --   -0.51265  -0.51013  -0.50598  -0.50068  -0.49940
 Alpha  occ. eigenvalues --   -0.49566  -0.49003  -0.48822  -0.48765  -0.46927
 Alpha  occ. eigenvalues --   -0.46510  -0.45795  -0.45456  -0.45117  -0.44894
 Alpha  occ. eigenvalues --   -0.44248  -0.43929  -0.43272  -0.42776  -0.42363
 Alpha  occ. eigenvalues --   -0.42125  -0.41804  -0.41666  -0.41475  -0.41298
 Alpha  occ. eigenvalues --   -0.40955  -0.40421  -0.40358  -0.40268  -0.40243
 Alpha  occ. eigenvalues --   -0.40146  -0.39929  -0.39615  -0.39453  -0.39222
 Alpha  occ. eigenvalues --   -0.39154  -0.39056  -0.38921  -0.38772  -0.38465
 Alpha  occ. eigenvalues --   -0.38307  -0.38055  -0.37705  -0.37579  -0.37284
 Alpha  occ. eigenvalues --   -0.37122  -0.36962  -0.36661  -0.36364  -0.36269
 Alpha  occ. eigenvalues --   -0.36253  -0.36209  -0.36132  -0.35824  -0.35747
 Alpha  occ. eigenvalues --   -0.35702  -0.35364  -0.35232  -0.35124  -0.35010
 Alpha  occ. eigenvalues --   -0.34692  -0.34483  -0.33989  -0.33870  -0.33743
 Alpha  occ. eigenvalues --   -0.33648  -0.33620  -0.33554  -0.33472  -0.33436
 Alpha  occ. eigenvalues --   -0.33103  -0.32944  -0.32769  -0.32629  -0.32508
 Alpha  occ. eigenvalues --   -0.32024  -0.32016  -0.31901  -0.31691  -0.31541
 Alpha  occ. eigenvalues --   -0.31045  -0.31003  -0.30731  -0.30713  -0.30308
 Alpha  occ. eigenvalues --   -0.30193  -0.30160  -0.30128  -0.29990  -0.29848
 Alpha  occ. eigenvalues --   -0.29679  -0.29632  -0.29223  -0.29022  -0.28797
 Alpha  occ. eigenvalues --   -0.28465  -0.28398  -0.28265  -0.28160  -0.28126
 Alpha  occ. eigenvalues --   -0.27855  -0.27207  -0.27194  -0.26695  -0.26566
 Alpha  occ. eigenvalues --   -0.26198  -0.26152  -0.25520  -0.25427  -0.25375
 Alpha  occ. eigenvalues --   -0.25274  -0.25011  -0.24553  -0.23918  -0.23548
 Alpha  occ. eigenvalues --   -0.23340  -0.23287  -0.22227  -0.21602  -0.21203
 Alpha  occ. eigenvalues --   -0.20998  -0.20544  -0.19792  -0.19101  -0.17005
 Alpha  occ. eigenvalues --   -0.15199
 Alpha virt. eigenvalues --   -0.10804  -0.07151  -0.06443  -0.04827  -0.04054
 Alpha virt. eigenvalues --   -0.03186  -0.03029  -0.02240  -0.01434   0.00088
 Alpha virt. eigenvalues --    0.01346   0.01417   0.02130   0.02528   0.02778

 Mulliken charges:
               1
     1  Mg   0.689526
     2  C    0.012570
     3  C   -0.142349
     4  C   -0.040289
     5  C   -0.084545
     6  N   -0.200615
     7  C   -0.099909
     8  C    0.051652
     9  C    0.005242
    10  C   -0.040150
    11  C    0.156971
    12  C    0.150017
    13  C    0.073321
    14  C    0.092922
    15  O   -0.162616
    16  O   -0.299238
    17  N   -0.252412
    18  C    0.243915
    19  C   -0.149375
    20  C   -0.008829
    21  C    0.051188
    22  C    0.180709
    23  C   -0.020554
    24  O   -0.165834
    25  C    0.122363
    26  N   -0.221856
    27  C    0.035819
    28  C    0.008587
    29  C    0.006156
    30  C   -0.015409
    31  C    0.149407
    32  C    0.131379
    33  C    0.077815
    34  N   -0.248182
    35  C    0.129890
    36  C   -0.201215
    37  C    0.063836
    38  C    0.068596
    39  C    0.147832
    40  C   -0.010529
    41  O   -0.102494
    42  C    0.055652
    43  C    0.110510
    44  O   -0.166362
    45  O   -0.271916
    46  C    0.212854
    47  C    0.337670
    48  C   -0.090335
    49  C   -0.129570
    50  C    0.103412
    51  C    0.141438
    52  C    0.071729
    53  C    0.099361
    54  C   -0.117372
    55  C    0.085440
    56  C    0.117312
    57  C    0.038364
    58  C    0.133318
    59  C   -0.092048
    60  C    0.133135
    61  C    0.124146
    62  C    0.056401
    63  C    0.119223
    64  C   -0.091954
    65  C    0.058950
    66  C    0.157470
    67  H   -0.058357
    68  H   -0.049591
    69  H   -0.048997
    70  H   -0.028250
    71  H   -0.024375
    72  H   -0.012808
    73  H    0.000782
    74  H   -0.023680
    75  H   -0.012950
    76  H   -0.018868
    77  H    0.010993
    78  H   -0.009544
    79  H    0.000919
    80  H   -0.026562
    81  H    0.001712
    82  H    0.030254
    83  H   -0.005896
    84  H    0.001495
    85  H   -0.024054
    86  H   -0.030828
    87  H   -0.002683
    88  H   -0.010088
    89  H    0.003825
    90  H   -0.027072
    91  H   -0.037015
    92  H   -0.005530
    93  H   -0.015106
    94  H   -0.012489
    95  H   -0.026836
    96  H    0.010054
    97  H    0.020645
    98  H    0.016515
    99  H    0.012083
   100  H    0.002174
   101  H    0.023926
   102  H   -0.007947
   103  H   -0.029464
   104  H   -0.041728
   105  H   -0.006317
   106  H    0.008774
   107  H   -0.010392
   108  H   -0.027230
   109  H   -0.011834
   110  H   -0.021083
   111  H   -0.025182
   112  H   -0.031785
   113  H   -0.041106
   114  H   -0.024071
   115  H   -0.031339
   116  H   -0.004158
   117  H   -0.016579
   118  H   -0.030549
   119  H   -0.035207
   120  H   -0.027115
   121  H   -0.006216
   122  H   -0.041512
   123  H   -0.044363
   124  H   -0.039198
   125  H   -0.045083
   126  H   -0.021903
   127  H   -0.015273
   128  H   -0.034621
   129  H   -0.026674
   130  H   -0.037250
   131  H   -0.056022
   132  H   -0.029177
   133  H   -0.038434
   134  H   -0.031337
   135  H    0.002380
   136  H   -0.031492
   137  H   -0.026722
   138  H   -0.022027
   139  H   -0.014605
   140  H   -0.030098
 Sum of Mulliken charges =  -0.00000

 Dipole moment (field-independent basis, Debye):
    X=              5.4997    Y=              2.0300    Z=             -0.1610  Tot=              5.8646
 Quadrupole moment (field-independent basis, Debye-Ang):
   XX=           -396.8399   YY=           -436.2895   ZZ=           -404.9942
   XY=            -26.7426   XZ=              3.7796   YZ=             -1.2132

 Normal termination of Gaussian 16 at Tue May  3 15:14:57 2022.
