 Gaussian 16, Revision A.03,
 Gaussian 16:  ES64L-G16RevA.03 25-Dec-2016

 -----------------------------------
 #p cam-b3lyp/Def2SVP td=(nstates=5)
 -----------------------------------

 --------------------------------------------------------
 step_1001_chromophore_15 TDDFT with cam-b3lyp functional
 --------------------------------------------------------
 Symbolic Z-matrix:
 Charge =  0 Multiplicity = 1

                         Standard orientation:
 ---------------------------------------------------------------------
 Center     Atomic      Atomic             Coordinates (Angstroms)
 Number     Number       Type             X           Y           Z
 ---------------------------------------------------------------------
      1         12           0       -4.937792    1.008081    0.303324
      2          6           0       -4.630799   -2.469836    0.921919
      3          6           0       -1.535504    1.352702    0.671778
      4          6           0       -5.167780    4.321188   -0.176860
      5          6           0       -8.376371    0.573737    0.153705
      6          7           0       -3.316926   -0.417215    0.812480
      7          6           0       -3.395661   -1.772223    0.759988
      8          6           0       -2.011265   -2.389284    0.580178
      9          6           0       -1.025511   -1.156078    0.876286
     10          6           0       -2.002895   -0.010267    0.809873
     11          6           0       -0.144204   -1.212895    2.131666
     12          6           0       -1.836885   -3.152954   -0.828879
     13          6           0       -0.653847   -2.803973   -1.666375
     14          6           0        0.687406   -3.514373   -1.432742
     15          8           0        1.031331   -4.029803   -0.397400
     16          8           0        1.535232   -3.249652   -2.540392
     17          7           0       -3.539391    2.566550    0.286350
     18          6           0       -2.218366    2.481018    0.448254
     19          6           0       -1.561336    3.764630    0.237318
     20          6           0       -2.555211    4.720819   -0.100569
     21          6           0       -3.831822    3.884281    0.015081
     22          6           0       -0.091837    3.905719    0.341787
     23          6           0       -2.428496    6.305290   -0.434626
     24          8           0       -3.400664    7.064426   -0.586640
     25          6           0       -1.050943    6.904906   -0.452917
     26          7           0       -6.563612    2.344149    0.203656
     27          6           0       -6.369468    3.635036   -0.058285
     28          6           0       -7.758189    4.312721   -0.479154
     29          6           0       -8.760917    3.085926   -0.439350
     30          6           0       -7.870010    1.927293    0.010435
     31          6           0       -8.199076    5.459946    0.394962
     32          6           0       -9.487503    2.753824   -1.713230
     33          6           0      -10.943910    3.054236   -1.648722
     34          7           0       -6.287746   -0.531275    0.587590
     35          6           0       -7.622107   -0.584460    0.403267
     36          6           0       -8.118163   -1.930741    0.702713
     37          6           0       -6.999843   -2.738920    0.814750
     38          6           0       -5.897500   -1.822919    0.801886
     39          6           0       -9.624180   -2.454698    0.738717
     40          6           0       -6.503131   -4.137017    0.933770
     41          8           0       -7.079516   -5.197611    0.854517
     42          6           0       -4.976490   -3.972170    1.268629
     43          6           0       -4.212807   -5.100812    0.665127
     44          8           0       -4.383118   -5.608943   -0.435648
     45          8           0       -3.258732   -5.459806    1.596439
     46          6           0       -2.371551   -6.533819    1.217778
     47          6           0        2.798030   -3.947585   -2.549046
     48          6           0        3.942334   -3.002425   -2.396144
     49          6           0        4.934427   -2.940067   -1.422048
     50          6           0        5.115206   -3.972722   -0.247587
     51          6           0        6.024735   -1.868255   -1.552538
     52          6           0        7.337188   -2.367444   -2.192900
     53          6           0        7.745932   -1.280799   -3.259682
     54          6           0        8.432989   -0.044470   -2.579465
     55          6           0        7.597163    1.321700   -2.836586
     56          6           0        9.960295    0.101513   -2.790462
     57          6           0       10.711114    0.285430   -1.433059
     58          6           0       11.962191    1.139517   -1.549725
     59          6           0       12.004682    2.205696   -0.452033
     60          6           0       12.680222    3.455759   -0.884033
     61          6           0       12.538937    1.592719    0.867253
     62          6           0       11.802338    2.250712    2.025532
     63          6           0       10.831736    1.277091    2.728948
     64          6           0       10.973383    1.184264    4.239391
     65          6           0       12.200198    0.183004    4.451236
     66          6           0        9.795006    0.661776    4.916454
     67          1           0       -0.455915    1.296759    0.519605
     68          1           0       -5.199738    5.362708   -0.502535
     69          1           0       -9.463973    0.493694    0.221376
     70          1           0       -1.864769   -3.134555    1.361151
     71          1           0       -0.359722   -1.012772    0.024318
     72          1           0        0.901242   -1.389924    1.877895
     73          1           0       -0.510026   -1.948062    2.848693
     74          1           0       -0.053546   -0.234564    2.603196
     75          1           0       -2.745759   -3.068967   -1.426414
     76          1           0       -1.685426   -4.225363   -0.705615
     77          1           0       -0.523957   -1.766137   -1.975659
     78          1           0       -0.975427   -3.217207   -2.622424
     79          1           0        0.166076    4.496665   -0.536338
     80          1           0        0.417898    2.945486    0.416917
     81          1           0        0.277805    4.393416    1.244121
     82          1           0       -0.608668    6.871318    0.542439
     83          1           0       -1.083792    7.884552   -0.928421
     84          1           0       -0.408314    6.395652   -1.171151
     85          1           0       -7.651023    4.569143   -1.532888
     86          1           0       -9.464497    3.188780    0.386767
     87          1           0       -7.570170    6.314870    0.147743
     88          1           0       -7.890407    5.237415    1.415811
     89          1           0       -9.268753    5.609237    0.246722
     90          1           0       -9.365017    1.696013   -1.944680
     91          1           0       -8.970220    3.278080   -2.516701
     92          1           0      -11.437777    3.187391   -2.611939
     93          1           0      -10.942218    3.939051   -1.013055
     94          1           0      -11.478321    2.287395   -1.087393
     95          1           0      -10.163373   -1.731028    0.126478
     96          1           0      -10.178965   -2.410592    1.675844
     97          1           0       -9.638316   -3.419812    0.232708
     98          1           0       -4.921297   -4.062595    2.353190
     99          1           0       -2.863838   -7.395156    0.766437
    100          1           0       -1.980982   -7.011862    2.115278
    101          1           0       -1.555419   -6.180191    0.588447
    102          1           0        2.728803   -4.642571   -3.386978
    103          1           0        2.846449   -4.652814   -1.719746
    104          1           0        4.041032   -2.236090   -3.164587
    105          1           0        5.005783   -3.525535    0.740246
    106          1           0        6.070730   -4.488999   -0.335131
    107          1           0        4.334174   -4.712494   -0.074034
    108          1           0        6.284273   -1.573652   -0.535043
    109          1           0        5.568587   -1.029366   -2.076704
    110          1           0        7.294484   -3.365973   -2.627928
    111          1           0        8.199415   -2.397736   -1.526999
    112          1           0        6.851155   -0.969548   -3.797865
    113          1           0        8.468588   -1.667150   -3.978549
    114          1           0        8.314292   -0.142129   -1.499600
    115          1           0        7.463095    1.728063   -1.834091
    116          1           0        6.572249    1.268240   -3.203607
    117          1           0        8.250139    2.044365   -3.326742
    118          1           0       10.144307    0.993776   -3.388983
    119          1           0       10.305147   -0.787851   -3.317426
    120          1           0       11.033667   -0.735972   -1.230688
    121          1           0        9.992685    0.662100   -0.704172
    122          1           0       12.132323    1.587088   -2.528957
    123          1           0       12.768518    0.410372   -1.474625
    124          1           0       11.013618    2.612763   -0.251227
    125          1           0       12.936391    4.025104    0.008732
    126          1           0       11.981877    4.149257   -1.352103
    127          1           0       13.601072    3.241037   -1.426458
    128          1           0       13.601272    1.772502    1.032561
    129          1           0       12.371332    0.518496    0.788822
    130          1           0       11.372951    3.239020    1.857807
    131          1           0       12.550642    2.672722    2.695683
    132          1           0       11.003541    0.256517    2.384330
    133          1           0        9.861169    1.576476    2.333626
    134          1           0       11.459115    2.022997    4.738723
    135          1           0       12.953818    0.050238    3.674709
    136          1           0       11.762567   -0.777152    4.723275
    137          1           0       12.635400    0.511062    5.395418
    138          1           0        9.108877    1.485616    5.110892
    139          1           0       10.011449    0.076460    5.810699
    140          1           0        9.221012    0.053119    4.219375
 ---------------------------------------------------------------------

 SCF Done:  E(RCAM-B3LYP) =  -3007.14458946     A.U. after   17 cycles

 Excitation energies and oscillator strengths:

 Excited State   1:      Singlet-A      1.7299 eV  716.71 nm  f=0.3574  <S**2>=0.000
     245 -> 248        0.19952
     246 -> 247        0.68009
     245 <- 248        0.11118
 This state for optimization and/or second-order correction.
 Total Energy, E(TD-HF/TD-DFT) =  -3007.08101641
 Copying the excited state density for this state as the 1-particle RhoCI density.

 Excited State   2:      Singlet-A      2.2860 eV  542.36 nm  f=0.0283  <S**2>=0.000
     245 -> 247        0.57754
     246 -> 248       -0.40000

 Excited State   3:      Singlet-A      3.3876 eV  365.99 nm  f=0.8254  <S**2>=0.000
     241 -> 247        0.10909
     245 -> 247        0.39304
     246 -> 248        0.57480
     245 <- 247       -0.11104

 Excited State   4:      Singlet-A      3.7037 eV  334.76 nm  f=0.0050  <S**2>=0.000
     243 -> 247        0.17884
     244 -> 247        0.15927
     246 -> 249        0.58657
     246 -> 250       -0.13599
     246 -> 251       -0.18799

 Excited State   5:      Singlet-A      3.7612 eV  329.64 nm  f=0.0102  <S**2>=0.000
     240 -> 247       -0.25850
     240 -> 249       -0.16852
     240 -> 250        0.18014
     241 -> 247        0.10154
     243 -> 247        0.42268
     243 -> 249        0.16462
     243 -> 250       -0.14559
     244 -> 247       -0.18889
     246 -> 249       -0.16260

 The electronic state is 1-A.
 Alpha  occ. eigenvalues --  -46.88549 -19.25420 -19.24502 -19.21543 -19.20410
 Alpha  occ. eigenvalues --  -19.20108 -19.19372 -14.42276 -14.41714 -14.39778
 Alpha  occ. eigenvalues --  -14.39257 -10.40409 -10.39435 -10.37201 -10.35189
 Alpha  occ. eigenvalues --  -10.31500 -10.31332 -10.30997 -10.30980 -10.30963
 Alpha  occ. eigenvalues --  -10.30915 -10.30606 -10.29279 -10.29178 -10.28982
 Alpha  occ. eigenvalues --  -10.28799 -10.28764 -10.28760 -10.28729 -10.28598
 Alpha  occ. eigenvalues --  -10.27969 -10.27825 -10.27791 -10.27771 -10.27339
 Alpha  occ. eigenvalues --  -10.27262 -10.27040 -10.27031 -10.26767 -10.26627
 Alpha  occ. eigenvalues --  -10.26477 -10.26463 -10.26430 -10.26405 -10.26140
 Alpha  occ. eigenvalues --  -10.26027 -10.26023 -10.25878 -10.25791 -10.25457
 Alpha  occ. eigenvalues --  -10.25416 -10.25309 -10.25185 -10.25110 -10.25076
 Alpha  occ. eigenvalues --  -10.25032 -10.25014 -10.24971 -10.24838 -10.24821
 Alpha  occ. eigenvalues --  -10.24656 -10.24523 -10.24397 -10.24361 -10.24329
 Alpha  occ. eigenvalues --  -10.24136  -3.17103  -1.92009  -1.91531  -1.91435
 Alpha  occ. eigenvalues --   -1.16272  -1.16199  -1.10537  -1.09979  -1.09008
 Alpha  occ. eigenvalues --   -1.07963  -1.04286  -1.03644  -1.03136  -1.02419
 Alpha  occ. eigenvalues --   -0.91698  -0.90902  -0.90088  -0.89723  -0.89428
 Alpha  occ. eigenvalues --   -0.89117  -0.88725  -0.87704  -0.87447  -0.86814
 Alpha  occ. eigenvalues --   -0.85664  -0.85229  -0.84612  -0.83837  -0.83377
 Alpha  occ. eigenvalues --   -0.82742  -0.82614  -0.81469  -0.80791  -0.80502
 Alpha  occ. eigenvalues --   -0.79683  -0.78099  -0.77511  -0.77409  -0.76063
 Alpha  occ. eigenvalues --   -0.75921  -0.75711  -0.75328  -0.74816  -0.74501
 Alpha  occ. eigenvalues --   -0.73530  -0.71820  -0.71759  -0.70432  -0.68577
 Alpha  occ. eigenvalues --   -0.68381  -0.68163  -0.67293  -0.66931  -0.65765
 Alpha  occ. eigenvalues --   -0.65296  -0.65096  -0.64568  -0.64122  -0.63969
 Alpha  occ. eigenvalues --   -0.63563  -0.62918  -0.62571  -0.62496  -0.60423
 Alpha  occ. eigenvalues --   -0.60264  -0.59408  -0.58925  -0.58622  -0.58279
 Alpha  occ. eigenvalues --   -0.57670  -0.57491  -0.56553  -0.56000  -0.55476
 Alpha  occ. eigenvalues --   -0.55163  -0.55049  -0.54727  -0.54465  -0.54114
 Alpha  occ. eigenvalues --   -0.53919  -0.53324  -0.53259  -0.53229  -0.52934
 Alpha  occ. eigenvalues --   -0.52809  -0.52464  -0.52450  -0.52108  -0.51817
 Alpha  occ. eigenvalues --   -0.51561  -0.51497  -0.51347  -0.51283  -0.51005
 Alpha  occ. eigenvalues --   -0.50804  -0.50584  -0.50158  -0.50036  -0.49997
 Alpha  occ. eigenvalues --   -0.49473  -0.49385  -0.49145  -0.49081  -0.48671
 Alpha  occ. eigenvalues --   -0.48618  -0.48214  -0.48179  -0.48124  -0.47802
 Alpha  occ. eigenvalues --   -0.47734  -0.47321  -0.47213  -0.47179  -0.47054
 Alpha  occ. eigenvalues --   -0.46636  -0.46488  -0.45990  -0.45777  -0.45664
 Alpha  occ. eigenvalues --   -0.45350  -0.45276  -0.45209  -0.45155  -0.45061
 Alpha  occ. eigenvalues --   -0.44937  -0.44637  -0.44498  -0.44298  -0.44080
 Alpha  occ. eigenvalues --   -0.43695  -0.43446  -0.43424  -0.43332  -0.43197
 Alpha  occ. eigenvalues --   -0.42573  -0.42433  -0.42250  -0.42023  -0.42002
 Alpha  occ. eigenvalues --   -0.41659  -0.41583  -0.41332  -0.41301  -0.41038
 Alpha  occ. eigenvalues --   -0.40992  -0.40937  -0.40333  -0.40256  -0.39897
 Alpha  occ. eigenvalues --   -0.39531  -0.39503  -0.39228  -0.39136  -0.39040
 Alpha  occ. eigenvalues --   -0.38788  -0.38150  -0.38069  -0.38025  -0.37352
 Alpha  occ. eigenvalues --   -0.36918  -0.36910  -0.36774  -0.36695  -0.36309
 Alpha  occ. eigenvalues --   -0.36009  -0.35820  -0.35248  -0.35054  -0.34744
 Alpha  occ. eigenvalues --   -0.34139  -0.33952  -0.32984  -0.32160  -0.31488
 Alpha  occ. eigenvalues --   -0.31001  -0.30496  -0.30184  -0.29880  -0.23879
 Alpha  occ. eigenvalues --   -0.20336
 Alpha virt. eigenvalues --   -0.07601  -0.02144   0.00091   0.02199   0.02690
 Alpha virt. eigenvalues --    0.03705   0.04645   0.04795   0.05748   0.06586
 Alpha virt. eigenvalues --    0.07787   0.08216   0.08569   0.09127   0.09226

 Mulliken charges:
               1
     1  Mg   0.823931
     2  C   -0.010228
     3  C   -0.151873
     4  C   -0.063011
     5  C   -0.092342
     6  N   -0.268201
     7  C   -0.060606
     8  C    0.002245
     9  C   -0.053026
    10  C   -0.014322
    11  C    0.098596
    12  C    0.103125
    13  C   -0.006507
    14  C    0.176720
    15  O   -0.202338
    16  O   -0.363998
    17  N   -0.341786
    18  C    0.247172
    19  C   -0.156909
    20  C   -0.066532
    21  C    0.076105
    22  C    0.123660
    23  C    0.060603
    24  O   -0.203957
    25  C    0.038479
    26  N   -0.299143
    27  C    0.059204
    28  C   -0.043526
    29  C   -0.056650
    30  C    0.011901
    31  C    0.092073
    32  C    0.068254
    33  C    0.019441
    34  N   -0.335978
    35  C    0.129095
    36  C   -0.195492
    37  C   -0.015671
    38  C    0.096874
    39  C    0.104196
    40  C    0.091472
    41  O   -0.140955
    42  C   -0.019092
    43  C    0.195915
    44  O   -0.202983
    45  O   -0.335799
    46  C    0.173858
    47  C    0.300946
    48  C   -0.112401
    49  C   -0.151947
    50  C    0.046605
    51  C    0.081673
    52  C    0.018842
    53  C    0.046372
    54  C   -0.172626
    55  C    0.032104
    56  C    0.069659
    57  C   -0.011800
    58  C    0.071363
    59  C   -0.146126
    60  C    0.073890
    61  C    0.068790
    62  C   -0.000676
    63  C    0.063279
    64  C   -0.147379
    65  C    0.000791
    66  C    0.089102
    67  H   -0.025698
    68  H   -0.010771
    69  H   -0.015920
    70  H    0.008591
    71  H    0.008532
    72  H    0.012903
    73  H    0.025819
    74  H    0.002745
    75  H    0.020639
    76  H    0.006009
    77  H    0.043211
    78  H    0.026772
    79  H    0.024443
    80  H    0.004346
    81  H    0.030476
    82  H    0.056736
    83  H    0.029742
    84  H    0.029298
    85  H    0.010114
    86  H    0.005781
    87  H    0.021851
    88  H    0.015352
    89  H    0.025675
    90  H    0.005756
    91  H   -0.007108
    92  H    0.020254
    93  H    0.003733
    94  H    0.009557
    95  H   -0.004540
    96  H    0.035013
    97  H    0.045425
    98  H    0.059828
    99  H    0.036891
   100  H    0.026527
   101  H    0.042492
   102  H    0.020837
   103  H    0.002511
   104  H   -0.009222
   105  H    0.018392
   106  H    0.030805
   107  H    0.015642
   108  H    0.001875
   109  H    0.014749
   110  H    0.008346
   111  H    0.001282
   112  H   -0.004472
   113  H   -0.011143
   114  H    0.004477
   115  H   -0.008161
   116  H    0.018188
   117  H    0.006891
   118  H   -0.003528
   119  H   -0.006288
   120  H    0.000327
   121  H    0.016235
   122  H   -0.010230
   123  H   -0.013198
   124  H   -0.008009
   125  H   -0.019627
   126  H    0.003742
   127  H    0.008727
   128  H   -0.004141
   129  H    0.000892
   130  H   -0.008226
   131  H   -0.025115
   132  H   -0.002285
   133  H   -0.009917
   134  H   -0.000189
   135  H    0.024537
   136  H   -0.006384
   137  H   -0.001933
   138  H    0.003895
   139  H    0.011066
   140  H   -0.004272
 Sum of Mulliken charges =  -0.00000

 Dipole moment (field-independent basis, Debye):
    X=              6.0849    Y=              2.5402    Z=             -0.2191  Tot=              6.5975
 Quadrupole moment (field-independent basis, Debye-Ang):
   XX=           -399.4018   YY=           -432.3899   ZZ=           -405.2493
   XY=            -27.2278   XZ=              4.3822   YZ=             -1.9823

 Normal termination of Gaussian 16 at Tue May  3 14:11:09 2022.
