 Gaussian 16, Revision A.03,
 Gaussian 16:  ES64L-G16RevA.03 25-Dec-2016

 ---------------------------------
 #p PBE1PBE/Def2SVP td=(nstates=5)
 ---------------------------------

 ------------------------------------------------------
 step_1001_chromophore_15 TDDFT with PBE1PBE functional
 ------------------------------------------------------
 Symbolic Z-matrix:
 Charge =  0 Multiplicity = 1

                         Standard orientation:
 ---------------------------------------------------------------------
 Center     Atomic      Atomic             Coordinates (Angstroms)
 Number     Number       Type             X           Y           Z
 ---------------------------------------------------------------------
      1         12           0       -4.937792    1.008081    0.303324
      2          6           0       -4.630799   -2.469836    0.921919
      3          6           0       -1.535504    1.352702    0.671778
      4          6           0       -5.167780    4.321188   -0.176860
      5          6           0       -8.376371    0.573737    0.153705
      6          7           0       -3.316926   -0.417215    0.812480
      7          6           0       -3.395661   -1.772223    0.759988
      8          6           0       -2.011265   -2.389284    0.580178
      9          6           0       -1.025511   -1.156078    0.876286
     10          6           0       -2.002895   -0.010267    0.809873
     11          6           0       -0.144204   -1.212895    2.131666
     12          6           0       -1.836885   -3.152954   -0.828879
     13          6           0       -0.653847   -2.803973   -1.666375
     14          6           0        0.687406   -3.514373   -1.432742
     15          8           0        1.031331   -4.029803   -0.397400
     16          8           0        1.535232   -3.249652   -2.540392
     17          7           0       -3.539391    2.566550    0.286350
     18          6           0       -2.218366    2.481018    0.448254
     19          6           0       -1.561336    3.764630    0.237318
     20          6           0       -2.555211    4.720819   -0.100569
     21          6           0       -3.831822    3.884281    0.015081
     22          6           0       -0.091837    3.905719    0.341787
     23          6           0       -2.428496    6.305290   -0.434626
     24          8           0       -3.400664    7.064426   -0.586640
     25          6           0       -1.050943    6.904906   -0.452917
     26          7           0       -6.563612    2.344149    0.203656
     27          6           0       -6.369468    3.635036   -0.058285
     28          6           0       -7.758189    4.312721   -0.479154
     29          6           0       -8.760917    3.085926   -0.439350
     30          6           0       -7.870010    1.927293    0.010435
     31          6           0       -8.199076    5.459946    0.394962
     32          6           0       -9.487503    2.753824   -1.713230
     33          6           0      -10.943910    3.054236   -1.648722
     34          7           0       -6.287746   -0.531275    0.587590
     35          6           0       -7.622107   -0.584460    0.403267
     36          6           0       -8.118163   -1.930741    0.702713
     37          6           0       -6.999843   -2.738920    0.814750
     38          6           0       -5.897500   -1.822919    0.801886
     39          6           0       -9.624180   -2.454698    0.738717
     40          6           0       -6.503131   -4.137017    0.933770
     41          8           0       -7.079516   -5.197611    0.854517
     42          6           0       -4.976490   -3.972170    1.268629
     43          6           0       -4.212807   -5.100812    0.665127
     44          8           0       -4.383118   -5.608943   -0.435648
     45          8           0       -3.258732   -5.459806    1.596439
     46          6           0       -2.371551   -6.533819    1.217778
     47          6           0        2.798030   -3.947585   -2.549046
     48          6           0        3.942334   -3.002425   -2.396144
     49          6           0        4.934427   -2.940067   -1.422048
     50          6           0        5.115206   -3.972722   -0.247587
     51          6           0        6.024735   -1.868255   -1.552538
     52          6           0        7.337188   -2.367444   -2.192900
     53          6           0        7.745932   -1.280799   -3.259682
     54          6           0        8.432989   -0.044470   -2.579465
     55          6           0        7.597163    1.321700   -2.836586
     56          6           0        9.960295    0.101513   -2.790462
     57          6           0       10.711114    0.285430   -1.433059
     58          6           0       11.962191    1.139517   -1.549725
     59          6           0       12.004682    2.205696   -0.452033
     60          6           0       12.680222    3.455759   -0.884033
     61          6           0       12.538937    1.592719    0.867253
     62          6           0       11.802338    2.250712    2.025532
     63          6           0       10.831736    1.277091    2.728948
     64          6           0       10.973383    1.184264    4.239391
     65          6           0       12.200198    0.183004    4.451236
     66          6           0        9.795006    0.661776    4.916454
     67          1           0       -0.455915    1.296759    0.519605
     68          1           0       -5.199738    5.362708   -0.502535
     69          1           0       -9.463973    0.493694    0.221376
     70          1           0       -1.864769   -3.134555    1.361151
     71          1           0       -0.359722   -1.012772    0.024318
     72          1           0        0.901242   -1.389924    1.877895
     73          1           0       -0.510026   -1.948062    2.848693
     74          1           0       -0.053546   -0.234564    2.603196
     75          1           0       -2.745759   -3.068967   -1.426414
     76          1           0       -1.685426   -4.225363   -0.705615
     77          1           0       -0.523957   -1.766137   -1.975659
     78          1           0       -0.975427   -3.217207   -2.622424
     79          1           0        0.166076    4.496665   -0.536338
     80          1           0        0.417898    2.945486    0.416917
     81          1           0        0.277805    4.393416    1.244121
     82          1           0       -0.608668    6.871318    0.542439
     83          1           0       -1.083792    7.884552   -0.928421
     84          1           0       -0.408314    6.395652   -1.171151
     85          1           0       -7.651023    4.569143   -1.532888
     86          1           0       -9.464497    3.188780    0.386767
     87          1           0       -7.570170    6.314870    0.147743
     88          1           0       -7.890407    5.237415    1.415811
     89          1           0       -9.268753    5.609237    0.246722
     90          1           0       -9.365017    1.696013   -1.944680
     91          1           0       -8.970220    3.278080   -2.516701
     92          1           0      -11.437777    3.187391   -2.611939
     93          1           0      -10.942218    3.939051   -1.013055
     94          1           0      -11.478321    2.287395   -1.087393
     95          1           0      -10.163373   -1.731028    0.126478
     96          1           0      -10.178965   -2.410592    1.675844
     97          1           0       -9.638316   -3.419812    0.232708
     98          1           0       -4.921297   -4.062595    2.353190
     99          1           0       -2.863838   -7.395156    0.766437
    100          1           0       -1.980982   -7.011862    2.115278
    101          1           0       -1.555419   -6.180191    0.588447
    102          1           0        2.728803   -4.642571   -3.386978
    103          1           0        2.846449   -4.652814   -1.719746
    104          1           0        4.041032   -2.236090   -3.164587
    105          1           0        5.005783   -3.525535    0.740246
    106          1           0        6.070730   -4.488999   -0.335131
    107          1           0        4.334174   -4.712494   -0.074034
    108          1           0        6.284273   -1.573652   -0.535043
    109          1           0        5.568587   -1.029366   -2.076704
    110          1           0        7.294484   -3.365973   -2.627928
    111          1           0        8.199415   -2.397736   -1.526999
    112          1           0        6.851155   -0.969548   -3.797865
    113          1           0        8.468588   -1.667150   -3.978549
    114          1           0        8.314292   -0.142129   -1.499600
    115          1           0        7.463095    1.728063   -1.834091
    116          1           0        6.572249    1.268240   -3.203607
    117          1           0        8.250139    2.044365   -3.326742
    118          1           0       10.144307    0.993776   -3.388983
    119          1           0       10.305147   -0.787851   -3.317426
    120          1           0       11.033667   -0.735972   -1.230688
    121          1           0        9.992685    0.662100   -0.704172
    122          1           0       12.132323    1.587088   -2.528957
    123          1           0       12.768518    0.410372   -1.474625
    124          1           0       11.013618    2.612763   -0.251227
    125          1           0       12.936391    4.025104    0.008732
    126          1           0       11.981877    4.149257   -1.352103
    127          1           0       13.601072    3.241037   -1.426458
    128          1           0       13.601272    1.772502    1.032561
    129          1           0       12.371332    0.518496    0.788822
    130          1           0       11.372951    3.239020    1.857807
    131          1           0       12.550642    2.672722    2.695683
    132          1           0       11.003541    0.256517    2.384330
    133          1           0        9.861169    1.576476    2.333626
    134          1           0       11.459115    2.022997    4.738723
    135          1           0       12.953818    0.050238    3.674709
    136          1           0       11.762567   -0.777152    4.723275
    137          1           0       12.635400    0.511062    5.395418
    138          1           0        9.108877    1.485616    5.110892
    139          1           0       10.011449    0.076460    5.810699
    140          1           0        9.221012    0.053119    4.219375
 ---------------------------------------------------------------------

 SCF Done:  E(RPBE1PBE) =  -3005.33403627     A.U. after   15 cycles

 Excitation energies and oscillator strengths:

 Excited State   1:      Singlet-A      1.8723 eV  662.19 nm  f=0.3497  <S**2>=0.000
     245 -> 248       -0.19120
     246 -> 247        0.68692
 This state for optimization and/or second-order correction.
 Total Energy, E(TD-HF/TD-DFT) =  -3005.26522967
 Copying the excited state density for this state as the 1-particle RhoCI density.

 Excited State   2:      Singlet-A      2.2899 eV  541.44 nm  f=0.0400  <S**2>=0.000
     245 -> 247        0.60332
     246 -> 248        0.36065

 Excited State   3:      Singlet-A      3.1494 eV  393.68 nm  f=0.2975  <S**2>=0.000
     241 -> 247       -0.11638
     243 -> 247        0.11070
     245 -> 247       -0.26738
     246 -> 248        0.50667
     246 -> 249        0.33867
     246 -> 250       -0.10698

 Excited State   4:      Singlet-A      3.2675 eV  379.45 nm  f=0.1176  <S**2>=0.000
     240 -> 247       -0.10575
     241 -> 247        0.11369
     243 -> 247       -0.29184
     244 -> 247        0.14558
     245 -> 247        0.12696
     246 -> 248       -0.15300
     246 -> 249        0.54404

 Excited State   5:      Singlet-A      3.3387 eV  371.35 nm  f=0.1077  <S**2>=0.000
     240 -> 247        0.11973
     243 -> 247        0.55283
     245 -> 247        0.13931
     246 -> 248       -0.21593
     246 -> 249        0.24933

 The electronic state is 1-A.
 Alpha  occ. eigenvalues --  -46.91949 -19.26105 -19.25226 -19.21786 -19.20522
 Alpha  occ. eigenvalues --  -19.20365 -19.19661 -14.41739 -14.41287 -14.39342
 Alpha  occ. eigenvalues --  -14.38961 -10.37438 -10.36467 -10.34271 -10.32424
 Alpha  occ. eigenvalues --  -10.28872 -10.28827 -10.28809 -10.28660 -10.28575
 Alpha  occ. eigenvalues --  -10.28524 -10.28249 -10.27125 -10.26695 -10.26660
 Alpha  occ. eigenvalues --  -10.26653 -10.26615 -10.26388 -10.26263 -10.26194
 Alpha  occ. eigenvalues --  -10.25830 -10.25666 -10.25608 -10.25339 -10.25147
 Alpha  occ. eigenvalues --  -10.24900 -10.24531 -10.24513 -10.24348 -10.24241
 Alpha  occ. eigenvalues --  -10.24032 -10.24032 -10.24003 -10.23893 -10.23805
 Alpha  occ. eigenvalues --  -10.23606 -10.23557 -10.23464 -10.23310 -10.23089
 Alpha  occ. eigenvalues --  -10.22918 -10.22864 -10.22851 -10.22832 -10.22684
 Alpha  occ. eigenvalues --  -10.22519 -10.22513 -10.22509 -10.22478 -10.22364
 Alpha  occ. eigenvalues --  -10.22208 -10.22073 -10.21914 -10.21761 -10.21740
 Alpha  occ. eigenvalues --  -10.21494  -3.14083  -1.86931  -1.86429  -1.86338
 Alpha  occ. eigenvalues --   -1.11071  -1.10983  -1.05360  -1.04607  -1.03893
 Alpha  occ. eigenvalues --   -1.02819  -0.98912  -0.98337  -0.97746  -0.97089
 Alpha  occ. eigenvalues --   -0.86083  -0.84986  -0.84199  -0.84025  -0.83608
 Alpha  occ. eigenvalues --   -0.83245  -0.82959  -0.81837  -0.81634  -0.81131
 Alpha  occ. eigenvalues --   -0.79930  -0.79652  -0.78787  -0.78170  -0.77668
 Alpha  occ. eigenvalues --   -0.76938  -0.76679  -0.75685  -0.75134  -0.74828
 Alpha  occ. eigenvalues --   -0.73890  -0.72317  -0.71803  -0.71747  -0.70321
 Alpha  occ. eigenvalues --   -0.70164  -0.69815  -0.69459  -0.69182  -0.68661
 Alpha  occ. eigenvalues --   -0.67834  -0.66271  -0.66222  -0.64760  -0.62935
 Alpha  occ. eigenvalues --   -0.62746  -0.62561  -0.61581  -0.61239  -0.59968
 Alpha  occ. eigenvalues --   -0.59716  -0.59566  -0.59146  -0.58685  -0.58092
 Alpha  occ. eigenvalues --   -0.57716  -0.57172  -0.57115  -0.56995  -0.54837
 Alpha  occ. eigenvalues --   -0.54757  -0.53905  -0.53415  -0.53199  -0.52790
 Alpha  occ. eigenvalues --   -0.52346  -0.51941  -0.51085  -0.50456  -0.49866
 Alpha  occ. eigenvalues --   -0.49739  -0.49583  -0.49237  -0.49005  -0.48678
 Alpha  occ. eigenvalues --   -0.48357  -0.47974  -0.47707  -0.47592  -0.47418
 Alpha  occ. eigenvalues --   -0.47372  -0.46981  -0.46907  -0.46676  -0.46435
 Alpha  occ. eigenvalues --   -0.46087  -0.45997  -0.45947  -0.45807  -0.45507
 Alpha  occ. eigenvalues --   -0.45340  -0.45173  -0.44778  -0.44586  -0.44554
 Alpha  occ. eigenvalues --   -0.44141  -0.43924  -0.43720  -0.43701  -0.43307
 Alpha  occ. eigenvalues --   -0.43197  -0.42808  -0.42794  -0.42743  -0.42487
 Alpha  occ. eigenvalues --   -0.42361  -0.41903  -0.41887  -0.41809  -0.41760
 Alpha  occ. eigenvalues --   -0.41348  -0.41156  -0.40713  -0.40540  -0.40423
 Alpha  occ. eigenvalues --   -0.40092  -0.40015  -0.39953  -0.39756  -0.39714
 Alpha  occ. eigenvalues --   -0.39686  -0.39417  -0.39307  -0.39106  -0.38760
 Alpha  occ. eigenvalues --   -0.38450  -0.38274  -0.38100  -0.38095  -0.38042
 Alpha  occ. eigenvalues --   -0.37337  -0.37142  -0.36988  -0.36768  -0.36717
 Alpha  occ. eigenvalues --   -0.36600  -0.36520  -0.36211  -0.36047  -0.35899
 Alpha  occ. eigenvalues --   -0.35786  -0.35670  -0.35259  -0.35123  -0.34822
 Alpha  occ. eigenvalues --   -0.34511  -0.34326  -0.34190  -0.33969  -0.33832
 Alpha  occ. eigenvalues --   -0.33590  -0.33120  -0.33002  -0.32833  -0.32192
 Alpha  occ. eigenvalues --   -0.31918  -0.31811  -0.31745  -0.31634  -0.31341
 Alpha  occ. eigenvalues --   -0.30882  -0.30705  -0.30096  -0.29921  -0.29725
 Alpha  occ. eigenvalues --   -0.29363  -0.28878  -0.28428  -0.26914  -0.26835
 Alpha  occ. eigenvalues --   -0.26393  -0.25848  -0.25573  -0.25533  -0.20762
 Alpha  occ. eigenvalues --   -0.18038
 Alpha virt. eigenvalues --   -0.10222  -0.05557  -0.04144  -0.02227  -0.00894
 Alpha virt. eigenvalues --   -0.00097  -0.00030   0.00212   0.01377   0.03048
 Alpha virt. eigenvalues --    0.03878   0.04565   0.04995   0.05405   0.05757

 Mulliken charges:
               1
     1  Mg   0.974490
     2  C   -0.009103
     3  C   -0.137826
     4  C   -0.055134
     5  C   -0.084743
     6  N   -0.371033
     7  C   -0.000908
     8  C   -0.057884
     9  C   -0.135415
    10  C    0.030409
    11  C    0.042663
    12  C    0.050509
    13  C   -0.089104
    14  C    0.244649
    15  O   -0.235249
    16  O   -0.392638
    17  N   -0.460282
    18  C    0.260783
    19  C   -0.192779
    20  C   -0.093325
    21  C    0.099022
    22  C    0.064174
    23  C    0.104763
    24  O   -0.240665
    25  C   -0.032629
    26  N   -0.408176
    27  C    0.095227
    28  C   -0.118826
    29  C   -0.136203
    30  C    0.053854
    31  C    0.028743
    32  C    0.010923
    33  C   -0.059295
    34  N   -0.461719
    35  C    0.143078
    36  C   -0.199305
    37  C   -0.063265
    38  C    0.138635
    39  C    0.049033
    40  C    0.185128
    41  O   -0.186241
    42  C   -0.123093
    43  C    0.286625
    44  O   -0.240370
    45  O   -0.368580
    46  C    0.117446
    47  C    0.256203
    48  C   -0.122552
    49  C   -0.193993
    50  C   -0.010628
    51  C    0.015523
    52  C   -0.044636
    53  C   -0.014091
    54  C   -0.251274
    55  C   -0.026204
    56  C    0.020445
    57  C   -0.078206
    58  C    0.015534
    59  C   -0.235070
    60  C    0.014137
    61  C    0.014882
    62  C   -0.056222
    63  C    0.004928
    64  C   -0.240213
    65  C   -0.060793
    66  C    0.026392
    67  H    0.006112
    68  H    0.022590
    69  H    0.016337
    70  H    0.048521
    71  H    0.048138
    72  H    0.040230
    73  H    0.052261
    74  H    0.030774
    75  H    0.053209
    76  H    0.042879
    77  H    0.073619
    78  H    0.061226
    79  H    0.052034
    80  H    0.031510
    81  H    0.057337
    82  H    0.082613
    83  H    0.056523
    84  H    0.055250
    85  H    0.046993
    86  H    0.043751
    87  H    0.050273
    88  H    0.044198
    89  H    0.054013
    90  H    0.040286
    91  H    0.026290
    92  H    0.048398
    93  H    0.034377
    94  H    0.038025
    95  H    0.023837
    96  H    0.062380
    97  H    0.072472
    98  H    0.097184
    99  H    0.058546
   100  H    0.049073
   101  H    0.064595
   102  H    0.047635
   103  H    0.030835
   104  H    0.021118
   105  H    0.045158
   106  H    0.057603
   107  H    0.040580
   108  H    0.034898
   109  H    0.046150
   110  H    0.040264
   111  H    0.035141
   112  H    0.029087
   113  H    0.022092
   114  H    0.042998
   115  H    0.019701
   116  H    0.043436
   117  H    0.034220
   118  H    0.028827
   119  H    0.025644
   120  H    0.033742
   121  H    0.048157
   122  H    0.021064
   123  H    0.020557
   124  H    0.030743
   125  H    0.009770
   126  H    0.031941
   127  H    0.036357
   128  H    0.028085
   129  H    0.032935
   130  H    0.022421
   131  H    0.006918
   132  H    0.030125
   133  H    0.022626
   134  H    0.036093
   135  H    0.052320
   136  H    0.022409
   137  H    0.026923
   138  H    0.033277
   139  H    0.037999
   140  H    0.023780
 Sum of Mulliken charges =  -0.00000

 Dipole moment (field-independent basis, Debye):
    X=              5.9096    Y=              2.3528    Z=             -0.2329  Tot=              6.3650
 Quadrupole moment (field-independent basis, Debye-Ang):
   XX=           -391.4856   YY=           -429.9649   ZZ=           -402.7942
   XY=            -27.4250   XZ=              4.9719   YZ=             -2.2519

 Normal termination of Gaussian 16 at Tue May  3 14:31:37 2022.
