 Gaussian 16, Revision A.03,
 Gaussian 16:  ES64L-G16RevA.03 25-Dec-2016

 --------------------------------
 #p wB97XD/Def2SVP td=(nstates=5)
 --------------------------------

 -----------------------------------------------------
 step_1001_chromophore_15 TDDFT with wB97XD functional
 -----------------------------------------------------
 Symbolic Z-matrix:
 Charge =  0 Multiplicity = 1

                         Standard orientation:
 ---------------------------------------------------------------------
 Center     Atomic      Atomic             Coordinates (Angstroms)
 Number     Number       Type             X           Y           Z
 ---------------------------------------------------------------------
      1         12           0       -4.937792    1.008081    0.303324
      2          6           0       -4.630799   -2.469836    0.921919
      3          6           0       -1.535504    1.352702    0.671778
      4          6           0       -5.167780    4.321188   -0.176860
      5          6           0       -8.376371    0.573737    0.153705
      6          7           0       -3.316926   -0.417215    0.812480
      7          6           0       -3.395661   -1.772223    0.759988
      8          6           0       -2.011265   -2.389284    0.580178
      9          6           0       -1.025511   -1.156078    0.876286
     10          6           0       -2.002895   -0.010267    0.809873
     11          6           0       -0.144204   -1.212895    2.131666
     12          6           0       -1.836885   -3.152954   -0.828879
     13          6           0       -0.653847   -2.803973   -1.666375
     14          6           0        0.687406   -3.514373   -1.432742
     15          8           0        1.031331   -4.029803   -0.397400
     16          8           0        1.535232   -3.249652   -2.540392
     17          7           0       -3.539391    2.566550    0.286350
     18          6           0       -2.218366    2.481018    0.448254
     19          6           0       -1.561336    3.764630    0.237318
     20          6           0       -2.555211    4.720819   -0.100569
     21          6           0       -3.831822    3.884281    0.015081
     22          6           0       -0.091837    3.905719    0.341787
     23          6           0       -2.428496    6.305290   -0.434626
     24          8           0       -3.400664    7.064426   -0.586640
     25          6           0       -1.050943    6.904906   -0.452917
     26          7           0       -6.563612    2.344149    0.203656
     27          6           0       -6.369468    3.635036   -0.058285
     28          6           0       -7.758189    4.312721   -0.479154
     29          6           0       -8.760917    3.085926   -0.439350
     30          6           0       -7.870010    1.927293    0.010435
     31          6           0       -8.199076    5.459946    0.394962
     32          6           0       -9.487503    2.753824   -1.713230
     33          6           0      -10.943910    3.054236   -1.648722
     34          7           0       -6.287746   -0.531275    0.587590
     35          6           0       -7.622107   -0.584460    0.403267
     36          6           0       -8.118163   -1.930741    0.702713
     37          6           0       -6.999843   -2.738920    0.814750
     38          6           0       -5.897500   -1.822919    0.801886
     39          6           0       -9.624180   -2.454698    0.738717
     40          6           0       -6.503131   -4.137017    0.933770
     41          8           0       -7.079516   -5.197611    0.854517
     42          6           0       -4.976490   -3.972170    1.268629
     43          6           0       -4.212807   -5.100812    0.665127
     44          8           0       -4.383118   -5.608943   -0.435648
     45          8           0       -3.258732   -5.459806    1.596439
     46          6           0       -2.371551   -6.533819    1.217778
     47          6           0        2.798030   -3.947585   -2.549046
     48          6           0        3.942334   -3.002425   -2.396144
     49          6           0        4.934427   -2.940067   -1.422048
     50          6           0        5.115206   -3.972722   -0.247587
     51          6           0        6.024735   -1.868255   -1.552538
     52          6           0        7.337188   -2.367444   -2.192900
     53          6           0        7.745932   -1.280799   -3.259682
     54          6           0        8.432989   -0.044470   -2.579465
     55          6           0        7.597163    1.321700   -2.836586
     56          6           0        9.960295    0.101513   -2.790462
     57          6           0       10.711114    0.285430   -1.433059
     58          6           0       11.962191    1.139517   -1.549725
     59          6           0       12.004682    2.205696   -0.452033
     60          6           0       12.680222    3.455759   -0.884033
     61          6           0       12.538937    1.592719    0.867253
     62          6           0       11.802338    2.250712    2.025532
     63          6           0       10.831736    1.277091    2.728948
     64          6           0       10.973383    1.184264    4.239391
     65          6           0       12.200198    0.183004    4.451236
     66          6           0        9.795006    0.661776    4.916454
     67          1           0       -0.455915    1.296759    0.519605
     68          1           0       -5.199738    5.362708   -0.502535
     69          1           0       -9.463973    0.493694    0.221376
     70          1           0       -1.864769   -3.134555    1.361151
     71          1           0       -0.359722   -1.012772    0.024318
     72          1           0        0.901242   -1.389924    1.877895
     73          1           0       -0.510026   -1.948062    2.848693
     74          1           0       -0.053546   -0.234564    2.603196
     75          1           0       -2.745759   -3.068967   -1.426414
     76          1           0       -1.685426   -4.225363   -0.705615
     77          1           0       -0.523957   -1.766137   -1.975659
     78          1           0       -0.975427   -3.217207   -2.622424
     79          1           0        0.166076    4.496665   -0.536338
     80          1           0        0.417898    2.945486    0.416917
     81          1           0        0.277805    4.393416    1.244121
     82          1           0       -0.608668    6.871318    0.542439
     83          1           0       -1.083792    7.884552   -0.928421
     84          1           0       -0.408314    6.395652   -1.171151
     85          1           0       -7.651023    4.569143   -1.532888
     86          1           0       -9.464497    3.188780    0.386767
     87          1           0       -7.570170    6.314870    0.147743
     88          1           0       -7.890407    5.237415    1.415811
     89          1           0       -9.268753    5.609237    0.246722
     90          1           0       -9.365017    1.696013   -1.944680
     91          1           0       -8.970220    3.278080   -2.516701
     92          1           0      -11.437777    3.187391   -2.611939
     93          1           0      -10.942218    3.939051   -1.013055
     94          1           0      -11.478321    2.287395   -1.087393
     95          1           0      -10.163373   -1.731028    0.126478
     96          1           0      -10.178965   -2.410592    1.675844
     97          1           0       -9.638316   -3.419812    0.232708
     98          1           0       -4.921297   -4.062595    2.353190
     99          1           0       -2.863838   -7.395156    0.766437
    100          1           0       -1.980982   -7.011862    2.115278
    101          1           0       -1.555419   -6.180191    0.588447
    102          1           0        2.728803   -4.642571   -3.386978
    103          1           0        2.846449   -4.652814   -1.719746
    104          1           0        4.041032   -2.236090   -3.164587
    105          1           0        5.005783   -3.525535    0.740246
    106          1           0        6.070730   -4.488999   -0.335131
    107          1           0        4.334174   -4.712494   -0.074034
    108          1           0        6.284273   -1.573652   -0.535043
    109          1           0        5.568587   -1.029366   -2.076704
    110          1           0        7.294484   -3.365973   -2.627928
    111          1           0        8.199415   -2.397736   -1.526999
    112          1           0        6.851155   -0.969548   -3.797865
    113          1           0        8.468588   -1.667150   -3.978549
    114          1           0        8.314292   -0.142129   -1.499600
    115          1           0        7.463095    1.728063   -1.834091
    116          1           0        6.572249    1.268240   -3.203607
    117          1           0        8.250139    2.044365   -3.326742
    118          1           0       10.144307    0.993776   -3.388983
    119          1           0       10.305147   -0.787851   -3.317426
    120          1           0       11.033667   -0.735972   -1.230688
    121          1           0        9.992685    0.662100   -0.704172
    122          1           0       12.132323    1.587088   -2.528957
    123          1           0       12.768518    0.410372   -1.474625
    124          1           0       11.013618    2.612763   -0.251227
    125          1           0       12.936391    4.025104    0.008732
    126          1           0       11.981877    4.149257   -1.352103
    127          1           0       13.601072    3.241037   -1.426458
    128          1           0       13.601272    1.772502    1.032561
    129          1           0       12.371332    0.518496    0.788822
    130          1           0       11.372951    3.239020    1.857807
    131          1           0       12.550642    2.672722    2.695683
    132          1           0       11.003541    0.256517    2.384330
    133          1           0        9.861169    1.576476    2.333626
    134          1           0       11.459115    2.022997    4.738723
    135          1           0       12.953818    0.050238    3.674709
    136          1           0       11.762567   -0.777152    4.723275
    137          1           0       12.635400    0.511062    5.395418
    138          1           0        9.108877    1.485616    5.110892
    139          1           0       10.011449    0.076460    5.810699
    140          1           0        9.221012    0.053119    4.219375
 ---------------------------------------------------------------------

 SCF Done:  E(RwB97XD) =  -3007.84260839     A.U. after   19 cycles

 Excitation energies and oscillator strengths:

 Excited State   1:      Singlet-A      1.6751 eV  740.15 nm  f=0.3543  <S**2>=0.000
     245 -> 248        0.20503
     246 -> 247        0.67794
     245 <- 248        0.12063
 This state for optimization and/or second-order correction.
 Total Energy, E(TD-HF/TD-DFT) =  -3007.78104854
 Copying the excited state density for this state as the 1-particle RhoCI density.

 Excited State   2:      Singlet-A      2.2310 eV  555.73 nm  f=0.0281  <S**2>=0.000
     245 -> 247        0.57774
     246 -> 248       -0.39906

 Excited State   3:      Singlet-A      3.3999 eV  364.67 nm  f=0.8508  <S**2>=0.000
     241 -> 247        0.11931
     245 -> 247        0.39160
     246 -> 248        0.57591
     245 <- 247       -0.11574

 Excited State   4:      Singlet-A      3.7723 eV  328.67 nm  f=0.0175  <S**2>=0.000
     240 -> 247       -0.20868
     240 -> 249       -0.12208
     240 -> 250       -0.14468
     241 -> 249        0.14940
     241 -> 250        0.11947
     243 -> 247        0.44853
     243 -> 249        0.13348
     243 -> 250        0.15673
     244 -> 247        0.20738
     246 -> 249        0.20870

 Excited State   5:      Singlet-A      3.7972 eV  326.51 nm  f=0.0043  <S**2>=0.000
     241 -> 247       -0.17410
     243 -> 247       -0.12493
     243 -> 249       -0.13548
     243 -> 250       -0.11559
     244 -> 247        0.61034

 The electronic state is 1-A.
 Alpha  occ. eigenvalues --  -46.94905 -19.30654 -19.29772 -19.26442 -19.25478
 Alpha  occ. eigenvalues --  -19.25059 -19.24403 -14.46881 -14.46282 -14.44389
 Alpha  occ. eigenvalues --  -14.43851 -10.44218 -10.43293 -10.41241 -10.39199
 Alpha  occ. eigenvalues --  -10.35374 -10.35076 -10.35072 -10.35055 -10.34991
 Alpha  occ. eigenvalues --  -10.34930 -10.34660 -10.33264 -10.33208 -10.33035
 Alpha  occ. eigenvalues --  -10.32965 -10.32947 -10.32908 -10.32764 -10.32643
 Alpha  occ. eigenvalues --  -10.32052 -10.31883 -10.31879 -10.31725 -10.31372
 Alpha  occ. eigenvalues --  -10.31246 -10.30999 -10.30931 -10.30802 -10.30652
 Alpha  occ. eigenvalues --  -10.30543 -10.30418 -10.30386 -10.30258 -10.30155
 Alpha  occ. eigenvalues --  -10.29963 -10.29892 -10.29840 -10.29725 -10.29377
 Alpha  occ. eigenvalues --  -10.29262 -10.29260 -10.29081 -10.29051 -10.29049
 Alpha  occ. eigenvalues --  -10.28931 -10.28893 -10.28828 -10.28803 -10.28738
 Alpha  occ. eigenvalues --  -10.28582 -10.28442 -10.28284 -10.28189 -10.28167
 Alpha  occ. eigenvalues --  -10.27952  -3.20886  -1.94483  -1.93983  -1.93892
 Alpha  occ. eigenvalues --   -1.18452  -1.18350  -1.12765  -1.12237  -1.11222
 Alpha  occ. eigenvalues --   -1.10169  -1.06305  -1.05689  -1.05134  -1.04446
 Alpha  occ. eigenvalues --   -0.93661  -0.92652  -0.91881  -0.91571  -0.91247
 Alpha  occ. eigenvalues --   -0.90902  -0.90675  -0.89515  -0.89405  -0.88724
 Alpha  occ. eigenvalues --   -0.87566  -0.87160  -0.86448  -0.85732  -0.85287
 Alpha  occ. eigenvalues --   -0.84623  -0.84523  -0.83338  -0.82722  -0.82449
 Alpha  occ. eigenvalues --   -0.81552  -0.80083  -0.79411  -0.79332  -0.77928
 Alpha  occ. eigenvalues --   -0.77817  -0.77503  -0.77146  -0.76763  -0.76331
 Alpha  occ. eigenvalues --   -0.75446  -0.73790  -0.73747  -0.72365  -0.70492
 Alpha  occ. eigenvalues --   -0.70296  -0.70112  -0.69217  -0.68905  -0.67617
 Alpha  occ. eigenvalues --   -0.67208  -0.67050  -0.66582  -0.66131  -0.65775
 Alpha  occ. eigenvalues --   -0.65376  -0.64763  -0.64537  -0.64471  -0.62346
 Alpha  occ. eigenvalues --   -0.62302  -0.61350  -0.60843  -0.60628  -0.60222
 Alpha  occ. eigenvalues --   -0.59673  -0.59452  -0.58551  -0.57903  -0.57331
 Alpha  occ. eigenvalues --   -0.57100  -0.56996  -0.56628  -0.56402  -0.56046
 Alpha  occ. eigenvalues --   -0.55776  -0.55299  -0.55213  -0.55129  -0.54799
 Alpha  occ. eigenvalues --   -0.54766  -0.54413  -0.54329  -0.54005  -0.53740
 Alpha  occ. eigenvalues --   -0.53444  -0.53365  -0.53264  -0.53163  -0.52955
 Alpha  occ. eigenvalues --   -0.52746  -0.52511  -0.52101  -0.52006  -0.51891
 Alpha  occ. eigenvalues --   -0.51406  -0.51338  -0.51039  -0.51008  -0.50585
 Alpha  occ. eigenvalues --   -0.50545  -0.50089  -0.50056  -0.50025  -0.49710
 Alpha  occ. eigenvalues --   -0.49638  -0.49309  -0.49092  -0.49071  -0.48960
 Alpha  occ. eigenvalues --   -0.48560  -0.48401  -0.47908  -0.47695  -0.47593
 Alpha  occ. eigenvalues --   -0.47255  -0.47193  -0.47087  -0.47000  -0.46925
 Alpha  occ. eigenvalues --   -0.46853  -0.46572  -0.46448  -0.46256  -0.45958
 Alpha  occ. eigenvalues --   -0.45660  -0.45362  -0.45295  -0.45263  -0.45123
 Alpha  occ. eigenvalues --   -0.44505  -0.44442  -0.44110  -0.43949  -0.43860
 Alpha  occ. eigenvalues --   -0.43615  -0.43494  -0.43220  -0.43163  -0.42910
 Alpha  occ. eigenvalues --   -0.42895  -0.42797  -0.42224  -0.42124  -0.41846
 Alpha  occ. eigenvalues --   -0.41413  -0.41386  -0.41126  -0.41015  -0.40887
 Alpha  occ. eigenvalues --   -0.40640  -0.40062  -0.39929  -0.39906  -0.39227
 Alpha  occ. eigenvalues --   -0.38982  -0.38871  -0.38779  -0.38651  -0.38228
 Alpha  occ. eigenvalues --   -0.37867  -0.37652  -0.37160  -0.36890  -0.36772
 Alpha  occ. eigenvalues --   -0.36112  -0.35783  -0.35182  -0.34152  -0.33591
 Alpha  occ. eigenvalues --   -0.33164  -0.32541  -0.32323  -0.32064  -0.25808
 Alpha  occ. eigenvalues --   -0.22150
 Alpha virt. eigenvalues --   -0.05941  -0.00254   0.02133   0.04305   0.05661
 Alpha virt. eigenvalues --    0.06032   0.06756   0.07013   0.08115   0.09458
 Alpha virt. eigenvalues --    0.10248   0.11441   0.11694   0.12105   0.12479

 Mulliken charges:
               1
     1  Mg   0.964247
     2  C   -0.021673
     3  C   -0.155398
     4  C   -0.073666
     5  C   -0.103772
     6  N   -0.337768
     7  C   -0.024096
     8  C   -0.038866
     9  C   -0.103269
    10  C    0.015364
    11  C    0.051957
    12  C    0.066274
    13  C   -0.067918
    14  C    0.232053
    15  O   -0.232104
    16  O   -0.392965
    17  N   -0.426359
    18  C    0.257203
    19  C   -0.177087
    20  C   -0.097625
    21  C    0.096712
    22  C    0.076271
    23  C    0.104705
    24  O   -0.234068
    25  C   -0.023622
    26  N   -0.374882
    27  C    0.081480
    28  C   -0.092230
    29  C   -0.109377
    30  C    0.042378
    31  C    0.040225
    32  C    0.022509
    33  C   -0.037423
    34  N   -0.424006
    35  C    0.139543
    36  C   -0.205608
    37  C   -0.058606
    38  C    0.124882
    39  C    0.064108
    40  C    0.168463
    41  O   -0.177747
    42  C   -0.084421
    43  C    0.260340
    44  O   -0.232860
    45  O   -0.365845
    46  C    0.132326
    47  C    0.276336
    48  C   -0.135672
    49  C   -0.180121
    50  C    0.000610
    51  C    0.036841
    52  C   -0.028078
    53  C    0.006664
    54  C   -0.221934
    55  C   -0.013097
    56  C    0.033609
    57  C   -0.056950
    58  C    0.029714
    59  C   -0.198209
    60  C    0.022901
    61  C    0.028898
    62  C   -0.044748
    63  C    0.024645
    64  C   -0.208938
    65  C   -0.048139
    66  C    0.035898
    67  H   -0.003465
    68  H    0.015980
    69  H    0.009545
    70  H    0.035094
    71  H    0.032064
    72  H    0.035981
    73  H    0.047702
    74  H    0.023816
    75  H    0.046586
    76  H    0.025742
    77  H    0.067799
    78  H    0.054931
    79  H    0.044725
    80  H    0.028961
    81  H    0.054269
    82  H    0.078771
    83  H    0.055902
    84  H    0.050126
    85  H    0.036207
    86  H    0.031033
    87  H    0.044813
    88  H    0.037968
    89  H    0.047980
    90  H    0.030590
    91  H    0.018092
    92  H    0.044139
    93  H    0.023126
    94  H    0.031165
    95  H    0.015373
    96  H    0.057831
    97  H    0.068455
    98  H    0.090423
    99  H    0.054379
   100  H    0.045632
   101  H    0.061169
   102  H    0.044582
   103  H    0.020156
   104  H    0.017500
   105  H    0.039826
   106  H    0.052175
   107  H    0.036752
   108  H    0.026961
   109  H    0.034707
   110  H    0.033249
   111  H    0.024646
   112  H    0.017212
   113  H    0.013991
   114  H    0.023209
   115  H    0.012974
   116  H    0.038341
   117  H    0.027871
   118  H    0.017323
   119  H    0.017783
   120  H    0.025243
   121  H    0.034356
   122  H    0.012963
   123  H    0.012277
   124  H    0.014418
   125  H    0.002424
   126  H    0.027067
   127  H    0.030760
   128  H    0.021362
   129  H    0.020665
   130  H    0.014164
   131  H   -0.001817
   132  H    0.016699
   133  H    0.014550
   134  H    0.025621
   135  H    0.045771
   136  H    0.014672
   137  H    0.020753
   138  H    0.027572
   139  H    0.033028
   140  H    0.017277
 Sum of Mulliken charges =  -0.00000

 Dipole moment (field-independent basis, Debye):
    X=              6.2362    Y=              2.6460    Z=             -0.2414  Tot=              6.7787
 Quadrupole moment (field-independent basis, Debye-Ang):
   XX=           -394.8327   YY=           -428.1067   ZZ=           -402.3997
   XY=            -27.3953   XZ=              4.8806   YZ=             -2.3736

 Normal termination of Gaussian 16 at Tue May  3 15:03:03 2022.
