 Gaussian 16, Revision A.03,
 Gaussian 16:  ES64L-G16RevA.03 25-Dec-2016

 --------------------
 #p ZINDO=(nstates=5)
 --------------------

 ------------------------------
 step_1001_chromophore_15 ZINDO
 ------------------------------
 Symbolic Z-matrix:
 Charge =  0 Multiplicity = 1

                         Standard orientation:
 ---------------------------------------------------------------------
 Center     Atomic      Atomic             Coordinates (Angstroms)
 Number     Number       Type             X           Y           Z
 ---------------------------------------------------------------------
      1         12           0       -4.937792    1.008081    0.303324
      2          6           0       -4.630799   -2.469836    0.921919
      3          6           0       -1.535504    1.352702    0.671778
      4          6           0       -5.167780    4.321188   -0.176860
      5          6           0       -8.376371    0.573737    0.153705
      6          7           0       -3.316926   -0.417215    0.812480
      7          6           0       -3.395661   -1.772223    0.759988
      8          6           0       -2.011265   -2.389284    0.580178
      9          6           0       -1.025511   -1.156078    0.876286
     10          6           0       -2.002895   -0.010267    0.809873
     11          6           0       -0.144204   -1.212895    2.131666
     12          6           0       -1.836885   -3.152954   -0.828879
     13          6           0       -0.653847   -2.803973   -1.666375
     14          6           0        0.687406   -3.514373   -1.432742
     15          8           0        1.031331   -4.029803   -0.397400
     16          8           0        1.535232   -3.249652   -2.540392
     17          7           0       -3.539391    2.566550    0.286350
     18          6           0       -2.218366    2.481018    0.448254
     19          6           0       -1.561336    3.764630    0.237318
     20          6           0       -2.555211    4.720819   -0.100569
     21          6           0       -3.831822    3.884281    0.015081
     22          6           0       -0.091837    3.905719    0.341787
     23          6           0       -2.428496    6.305290   -0.434626
     24          8           0       -3.400664    7.064426   -0.586640
     25          6           0       -1.050943    6.904906   -0.452917
     26          7           0       -6.563612    2.344149    0.203656
     27          6           0       -6.369468    3.635036   -0.058285
     28          6           0       -7.758189    4.312721   -0.479154
     29          6           0       -8.760917    3.085926   -0.439350
     30          6           0       -7.870010    1.927293    0.010435
     31          6           0       -8.199076    5.459946    0.394962
     32          6           0       -9.487503    2.753824   -1.713230
     33          6           0      -10.943910    3.054236   -1.648722
     34          7           0       -6.287746   -0.531275    0.587590
     35          6           0       -7.622107   -0.584460    0.403267
     36          6           0       -8.118163   -1.930741    0.702713
     37          6           0       -6.999843   -2.738920    0.814750
     38          6           0       -5.897500   -1.822919    0.801886
     39          6           0       -9.624180   -2.454698    0.738717
     40          6           0       -6.503131   -4.137017    0.933770
     41          8           0       -7.079516   -5.197611    0.854517
     42          6           0       -4.976490   -3.972170    1.268629
     43          6           0       -4.212807   -5.100812    0.665127
     44          8           0       -4.383118   -5.608943   -0.435648
     45          8           0       -3.258732   -5.459806    1.596439
     46          6           0       -2.371551   -6.533819    1.217778
     47          6           0        2.798030   -3.947585   -2.549046
     48          6           0        3.942334   -3.002425   -2.396144
     49          6           0        4.934427   -2.940067   -1.422048
     50          6           0        5.115206   -3.972722   -0.247587
     51          6           0        6.024735   -1.868255   -1.552538
     52          6           0        7.337188   -2.367444   -2.192900
     53          6           0        7.745932   -1.280799   -3.259682
     54          6           0        8.432989   -0.044470   -2.579465
     55          6           0        7.597163    1.321700   -2.836586
     56          6           0        9.960295    0.101513   -2.790462
     57          6           0       10.711114    0.285430   -1.433059
     58          6           0       11.962191    1.139517   -1.549725
     59          6           0       12.004682    2.205696   -0.452033
     60          6           0       12.680222    3.455759   -0.884033
     61          6           0       12.538937    1.592719    0.867253
     62          6           0       11.802338    2.250712    2.025532
     63          6           0       10.831736    1.277091    2.728948
     64          6           0       10.973383    1.184264    4.239391
     65          6           0       12.200198    0.183004    4.451236
     66          6           0        9.795006    0.661776    4.916454
     67          1           0       -0.455915    1.296759    0.519605
     68          1           0       -5.199738    5.362708   -0.502535
     69          1           0       -9.463973    0.493694    0.221376
     70          1           0       -1.864769   -3.134555    1.361151
     71          1           0       -0.359722   -1.012772    0.024318
     72          1           0        0.901242   -1.389924    1.877895
     73          1           0       -0.510026   -1.948062    2.848693
     74          1           0       -0.053546   -0.234564    2.603196
     75          1           0       -2.745759   -3.068967   -1.426414
     76          1           0       -1.685426   -4.225363   -0.705615
     77          1           0       -0.523957   -1.766137   -1.975659
     78          1           0       -0.975427   -3.217207   -2.622424
     79          1           0        0.166076    4.496665   -0.536338
     80          1           0        0.417898    2.945486    0.416917
     81          1           0        0.277805    4.393416    1.244121
     82          1           0       -0.608668    6.871318    0.542439
     83          1           0       -1.083792    7.884552   -0.928421
     84          1           0       -0.408314    6.395652   -1.171151
     85          1           0       -7.651023    4.569143   -1.532888
     86          1           0       -9.464497    3.188780    0.386767
     87          1           0       -7.570170    6.314870    0.147743
     88          1           0       -7.890407    5.237415    1.415811
     89          1           0       -9.268753    5.609237    0.246722
     90          1           0       -9.365017    1.696013   -1.944680
     91          1           0       -8.970220    3.278080   -2.516701
     92          1           0      -11.437777    3.187391   -2.611939
     93          1           0      -10.942218    3.939051   -1.013055
     94          1           0      -11.478321    2.287395   -1.087393
     95          1           0      -10.163373   -1.731028    0.126478
     96          1           0      -10.178965   -2.410592    1.675844
     97          1           0       -9.638316   -3.419812    0.232708
     98          1           0       -4.921297   -4.062595    2.353190
     99          1           0       -2.863838   -7.395156    0.766437
    100          1           0       -1.980982   -7.011862    2.115278
    101          1           0       -1.555419   -6.180191    0.588447
    102          1           0        2.728803   -4.642571   -3.386978
    103          1           0        2.846449   -4.652814   -1.719746
    104          1           0        4.041032   -2.236090   -3.164587
    105          1           0        5.005783   -3.525535    0.740246
    106          1           0        6.070730   -4.488999   -0.335131
    107          1           0        4.334174   -4.712494   -0.074034
    108          1           0        6.284273   -1.573652   -0.535043
    109          1           0        5.568587   -1.029366   -2.076704
    110          1           0        7.294484   -3.365973   -2.627928
    111          1           0        8.199415   -2.397736   -1.526999
    112          1           0        6.851155   -0.969548   -3.797865
    113          1           0        8.468588   -1.667150   -3.978549
    114          1           0        8.314292   -0.142129   -1.499600
    115          1           0        7.463095    1.728063   -1.834091
    116          1           0        6.572249    1.268240   -3.203607
    117          1           0        8.250139    2.044365   -3.326742
    118          1           0       10.144307    0.993776   -3.388983
    119          1           0       10.305147   -0.787851   -3.317426
    120          1           0       11.033667   -0.735972   -1.230688
    121          1           0        9.992685    0.662100   -0.704172
    122          1           0       12.132323    1.587088   -2.528957
    123          1           0       12.768518    0.410372   -1.474625
    124          1           0       11.013618    2.612763   -0.251227
    125          1           0       12.936391    4.025104    0.008732
    126          1           0       11.981877    4.149257   -1.352103
    127          1           0       13.601072    3.241037   -1.426458
    128          1           0       13.601272    1.772502    1.032561
    129          1           0       12.371332    0.518496    0.788822
    130          1           0       11.372951    3.239020    1.857807
    131          1           0       12.550642    2.672722    2.695683
    132          1           0       11.003541    0.256517    2.384330
    133          1           0        9.861169    1.576476    2.333626
    134          1           0       11.459115    2.022997    4.738723
    135          1           0       12.953818    0.050238    3.674709
    136          1           0       11.762567   -0.777152    4.723275
    137          1           0       12.635400    0.511062    5.395418
    138          1           0        9.108877    1.485616    5.110892
    139          1           0       10.011449    0.076460    5.810699
    140          1           0        9.221012    0.053119    4.219375
 ---------------------------------------------------------------------

 SCF Done:  E(RZINDO/S) =  -474.178867363     A.U. after   20 cycles

 Excitation energies and oscillator strengths:

 Excited State   1:      Singlet-A      1.2697 eV  976.50 nm  f=0.5523  <S**2>=0.000
     175 ->178         0.20949
     176 ->177         0.65826
 This state for optimization and/or second-order correction.
 Total Energy, E(CIS/TDA) =  -474.132207539
 Copying the excited state density for this state as the 1-particle RhoCI density.

 Excited State   2:      Singlet-A      1.8715 eV  662.48 nm  f=0.0026  <S**2>=0.000
     175 ->177        -0.45774
     176 ->178         0.52069

 Excited State   3:      Singlet-A      2.9150 eV  425.33 nm  f=0.0600  <S**2>=0.000
     175 ->177         0.10886
     176 ->179         0.63165
     176 ->181         0.18208

 Excited State   4:      Singlet-A      3.0042 eV  412.71 nm  f=1.1846  <S**2>=0.000
     169 ->181        -0.11066
     175 ->177         0.46530
     176 ->178         0.42241
     176 ->179        -0.15929
     176 ->181         0.10156

 Excited State   5:      Singlet-A      3.1063 eV  399.13 nm  f=0.0549  <S**2>=0.000
     168 ->179        -0.12906
     169 ->177         0.24614
     169 ->178         0.10476
     169 ->179         0.23807
     169 ->181         0.37498
     169 ->186         0.18139
     169 ->187        -0.11853
     169 ->188        -0.11767
     169 ->200        -0.13269
     176 ->181         0.11035

 The electronic state is 1-A.
 Alpha  occ. eigenvalues --   -1.82875  -1.81144  -1.79581  -1.72549  -1.71948
 Alpha  occ. eigenvalues --   -1.70082  -1.67703  -1.61720  -1.58406  -1.57299
 Alpha  occ. eigenvalues --   -1.56780  -1.52080  -1.50495  -1.47981  -1.45505
 Alpha  occ. eigenvalues --   -1.45188  -1.42882  -1.41436  -1.38885  -1.38565
 Alpha  occ. eigenvalues --   -1.37070  -1.33397  -1.32314  -1.30728  -1.28845
 Alpha  occ. eigenvalues --   -1.27200  -1.24636  -1.22872  -1.20668  -1.17966
 Alpha  occ. eigenvalues --   -1.17285  -1.15834  -1.15001  -1.14915  -1.13421
 Alpha  occ. eigenvalues --   -1.12808  -1.10815  -1.10017  -1.04253  -1.04020
 Alpha  occ. eigenvalues --   -1.03759  -1.00363  -0.98762  -0.97748  -0.96736
 Alpha  occ. eigenvalues --   -0.95108  -0.94957  -0.93628  -0.93302  -0.91891
 Alpha  occ. eigenvalues --   -0.91209  -0.90692  -0.89572  -0.87885  -0.87147
 Alpha  occ. eigenvalues --   -0.85855  -0.83091  -0.82919  -0.82049  -0.80879
 Alpha  occ. eigenvalues --   -0.80195  -0.79901  -0.78330  -0.77351  -0.77196
 Alpha  occ. eigenvalues --   -0.75755  -0.75054  -0.74524  -0.74211  -0.73219
 Alpha  occ. eigenvalues --   -0.73023  -0.72678  -0.72109  -0.71399  -0.71001
 Alpha  occ. eigenvalues --   -0.69831  -0.69428  -0.69203  -0.68498  -0.68383
 Alpha  occ. eigenvalues --   -0.67733  -0.67242  -0.66882  -0.66659  -0.65942
 Alpha  occ. eigenvalues --   -0.65677  -0.65121  -0.64295  -0.63915  -0.63515
 Alpha  occ. eigenvalues --   -0.62777  -0.62646  -0.62139  -0.61777  -0.61387
 Alpha  occ. eigenvalues --   -0.61264  -0.61063  -0.60985  -0.60836  -0.60497
 Alpha  occ. eigenvalues --   -0.59520  -0.59310  -0.58976  -0.58177  -0.58033
 Alpha  occ. eigenvalues --   -0.57628  -0.57482  -0.57093  -0.56798  -0.56391
 Alpha  occ. eigenvalues --   -0.56205  -0.55831  -0.55577  -0.54804  -0.54508
 Alpha  occ. eigenvalues --   -0.54435  -0.54021  -0.53549  -0.53288  -0.52832
 Alpha  occ. eigenvalues --   -0.52118  -0.51999  -0.51756  -0.51394  -0.51202
 Alpha  occ. eigenvalues --   -0.50838  -0.50785  -0.50690  -0.50372  -0.50335
 Alpha  occ. eigenvalues --   -0.49927  -0.49704  -0.49448  -0.49116  -0.48963
 Alpha  occ. eigenvalues --   -0.48806  -0.48493  -0.48092  -0.47741  -0.47535
 Alpha  occ. eigenvalues --   -0.47301  -0.47115  -0.46844  -0.46633  -0.46161
 Alpha  occ. eigenvalues --   -0.46096  -0.45996  -0.45658  -0.45390  -0.45190
 Alpha  occ. eigenvalues --   -0.44726  -0.44659  -0.44615  -0.44539  -0.43655
 Alpha  occ. eigenvalues --   -0.43546  -0.43151  -0.42454  -0.42364  -0.42219
 Alpha  occ. eigenvalues --   -0.41805  -0.41595  -0.41115  -0.39623  -0.39268
 Alpha  occ. eigenvalues --   -0.38095  -0.37224  -0.36653  -0.35207  -0.34613
 Alpha  occ. eigenvalues --   -0.33848  -0.32700  -0.32438  -0.31965  -0.26511
 Alpha  occ. eigenvalues --   -0.21012
 Alpha virt. eigenvalues --   -0.07481  -0.02550  -0.00487   0.01207   0.01380
 Alpha virt. eigenvalues --    0.02272   0.02711   0.02783   0.03843   0.04340
 Alpha virt. eigenvalues --    0.05642   0.06134   0.06671   0.07522   0.08038

 Mulliken charges:
               1
     1  Mg   0.426481
     2  C   -0.049408
     3  C   -0.084315
     4  C   -0.076133
     5  C   -0.083844
     6  N   -0.273806
     7  C    0.110322
     8  C    0.000457
     9  C    0.005223
    10  C    0.124032
    11  C   -0.044063
    12  C   -0.017794
    13  C    0.004894
    14  C    0.467735
    15  O   -0.497010
    16  O   -0.283201
    17  N   -0.318749
    18  C    0.132515
    19  C    0.019315
    20  C   -0.067090
    21  C    0.132695
    22  C   -0.046401
    23  C    0.334761
    24  O   -0.507436
    25  C   -0.026544
    26  N   -0.263196
    27  C    0.143659
    28  C   -0.001986
    29  C    0.001677
    30  C    0.104374
    31  C   -0.046969
    32  C   -0.018752
    33  C   -0.055829
    34  N   -0.312526
    35  C    0.106423
    36  C    0.006479
    37  C   -0.051205
    38  C    0.089094
    39  C   -0.050639
    40  C    0.338731
    41  O   -0.492483
    42  C    0.054595
    43  C    0.488532
    44  O   -0.502841
    45  O   -0.271300
    46  C    0.072981
    47  C    0.108566
    48  C   -0.086735
    49  C   -0.006611
    50  C   -0.050302
    51  C   -0.012594
    52  C   -0.028975
    53  C   -0.037591
    54  C   -0.024813
    55  C   -0.072777
    56  C   -0.036079
    57  C   -0.039360
    58  C   -0.032857
    59  C   -0.009490
    60  C   -0.055189
    61  C   -0.028665
    62  C   -0.043568
    63  C   -0.024403
    64  C   -0.006646
    65  C   -0.073859
    66  C   -0.043682
    67  H    0.023468
    68  H    0.038213
    69  H    0.029280
    70  H    0.032312
    71  H    0.029998
    72  H    0.022380
    73  H    0.030281
    74  H    0.017594
    75  H    0.031105
    76  H    0.034719
    77  H    0.049045
    78  H    0.026105
    79  H    0.031622
    80  H    0.028405
    81  H    0.031902
    82  H    0.048698
    83  H    0.038459
    84  H    0.029696
    85  H    0.032254
    86  H    0.030574
    87  H    0.022532
    88  H    0.025327
    89  H    0.028951
    90  H    0.018413
    91  H    0.018289
    92  H    0.023361
    93  H    0.017452
    94  H    0.018369
    95  H    0.011827
    96  H    0.040524
    97  H    0.040311
    98  H    0.058270
    99  H    0.045868
   100  H    0.026154
   101  H    0.045658
   102  H    0.042806
   103  H    0.039844
   104  H    0.024790
   105  H    0.025863
   106  H    0.029635
   107  H    0.026832
   108  H    0.019590
   109  H    0.031539
   110  H    0.022900
   111  H    0.020373
   112  H    0.021110
   113  H    0.013751
   114  H    0.015190
   115  H    0.004953
   116  H    0.031301
   117  H    0.023786
   118  H    0.020197
   119  H    0.022030
   120  H    0.016980
   121  H    0.030114
   122  H    0.016944
   123  H    0.013819
   124  H    0.018254
   125  H    0.005265
   126  H    0.019045
   127  H    0.022544
   128  H    0.020212
   129  H    0.022626
   130  H    0.022446
   131  H    0.004301
   132  H    0.019926
   133  H    0.011165
   134  H    0.027981
   135  H    0.030634
   136  H    0.012166
   137  H    0.007727
   138  H    0.009875
   139  H    0.023427
   140  H    0.014819
 Sum of Mulliken charges =  -0.00000

 Dipole moment (field-independent basis, Debye):
    X=              7.8064    Y=              3.9522    Z=             -0.4602  Tot=              8.7619
 N-N= 4.328262253667D+03 E-N= 0.000000000000D+00  KE=-9.330599838491D+03
 Leave Link  601 at Tue May  3 15:15:05 2022, MaxMem=  6710886400 cpu:               0.7 elap:               0.0
 (Enter /sw/apps/gaussian-16.0/g16/l9999.exe)
 1\1\GINC-BP1-COMPUTE165\SP\RZINDO CIS\STO-3G\C55H74Mg1N4O6\OF15641\03-
 May-2022\0\\#p ZINDO=(nstates=5)\\step_1001_chromophore_15 ZINDO\\0,1\
 Mg,0,45.932,34.142,28.004\C,0,44.512,32.062,30.5\C,0,45.672,36.834,30.
 129\C,0,47.179,36.186,25.653\C,0,45.958,31.4,25.879\N,0,45.109,34.384,
 30.049\C,0,44.84,33.384,30.928\C,0,44.876,33.9,32.364\C,0,44.884,35.49
 5,32.174\C,0,45.214,35.588,30.706\C,0,43.655,36.29,32.636\C,0,46.066,3
 3.254,33.239\C,0,46.968,34.183,33.978\C,0,46.58,34.675,35.38\O,0,45.45

 Normal termination of Gaussian 16 at Tue May  3 15:15:05 2022.
