 Gaussian 16, Revision A.03,
 Gaussian 16:  ES64L-G16RevA.03 25-Dec-2016

 ------------------------------
 #p blyp/Def2SVP td=(nstates=5)
 ------------------------------

 --------------------------------------------------
 step_901_chromophore_24 TDDFT with blyp functional
 --------------------------------------------------
 Symbolic Z-matrix:
 Charge =  0 Multiplicity = 1

                         Standard orientation:
 ---------------------------------------------------------------------
 Center     Atomic      Atomic             Coordinates (Angstroms)
 Number     Number       Type             X           Y           Z
 ---------------------------------------------------------------------
      1         12           0        5.243489    0.871818    0.206459
      2          6           0        4.315931   -2.417471    0.131020
      3          6           0        1.867653    1.773775   -0.155897
      4          6           0        6.124718    4.158695   -0.068051
      5          6           0        8.588754   -0.036706    0.189584
      6          7           0        3.325444   -0.226158    0.048808
      7          6           0        3.140135   -1.609742    0.072972
      8          6           0        1.673839   -1.972636    0.010590
      9          6           0        0.983471   -0.567774   -0.306751
     10          6           0        2.170553    0.359152   -0.099516
     11          6           0        0.219404   -0.401530   -1.702620
     12          6           0        1.199602   -2.804923    1.220324
     13          6           0        0.197011   -3.953796    0.910070
     14          6           0       -0.690225   -3.842932   -0.273816
     15          8           0       -0.428144   -4.256292   -1.429613
     16          8           0       -1.788726   -3.098070    0.051252
     17          7           0        4.148842    2.703582    0.033525
     18          6           0        2.777148    2.871878   -0.091774
     19          6           0        2.465083    4.337886   -0.062945
     20          6           0        3.721001    5.052523    0.032335
     21          6           0        4.767295    3.958936    0.006985
     22          6           0        1.013668    4.824537   -0.119806
     23          6           0        3.921413    6.488472    0.195061
     24          8           0        5.027148    7.006613    0.278996
     25          6           0        2.673785    7.461364    0.280339
     26          7           0        7.126194    1.953627    0.235881
     27          6           0        7.178376    3.260515   -0.080146
     28          6           0        8.595314    3.660431   -0.394130
     29          6           0        9.429483    2.376431   -0.000909
     30          6           0        8.362488    1.310925    0.214790
     31          6           0        8.631865    4.015958   -1.932888
     32          6           0       10.358434    2.623503    1.215461
     33          6           0        9.583261    2.485950    2.568977
     34          7           0        6.273460   -0.792867    0.122187
     35          6           0        7.624590   -1.026999    0.135180
     36          6           0        7.854692   -2.470980   -0.045490
     37          6           0        6.591780   -3.026407   -0.061496
     38          6           0        5.666348   -1.950599    0.123561
     39          6           0        9.165347   -3.137840   -0.270868
     40          6           0        5.945091   -4.285632   -0.153218
     41          8           0        6.298433   -5.464736   -0.355283
     42          6           0        4.461122   -3.917926    0.039198
     43          6           0        3.736695   -4.553580   -1.062440
     44          8           0        3.624392   -4.131206   -2.216090
     45          8           0        3.070624   -5.659142   -0.579769
     46          6           0        2.156720   -6.464117   -1.372112
     47          6           0       -2.884356   -3.089513   -0.870246
     48          6           0       -3.954109   -2.137682   -0.374521
     49          6           0       -5.212509   -2.163763   -0.765279
     50          6           0       -5.663436   -2.861954   -2.007390
     51          6           0       -6.351008   -1.324784   -0.262739
     52          6           0       -7.474972   -2.090838    0.446447
     53          6           0       -7.198495   -2.224304    2.009765
     54          6           0       -8.409844   -2.020018    2.884626
     55          6           0       -8.492453   -2.948285    4.079887
     56          6           0       -8.612618   -0.540487    3.191277
     57          6           0       -9.910472    0.187110    2.677498
     58          6           0       -9.632647    1.310552    1.646003
     59          6           0      -10.557283    1.374558    0.417355
     60          6           0      -10.087379    2.178646   -0.799452
     61          6           0      -11.957953    1.933684    0.876298
     62          6           0      -13.117281    1.556863   -0.033984
     63          6           0      -13.841944    2.801018   -0.661169
     64          6           0      -14.380448    2.412792   -2.023354
     65          6           0      -13.376869    2.167711   -3.162498
     66          6           0      -15.561453    3.374674   -2.371570
     67          1           0        0.796917    1.931197   -0.304016
     68          1           0        6.444007    5.197321   -0.171528
     69          1           0        9.654991   -0.266558    0.140618
     70          1           0        1.592523   -2.637486   -0.849473
     71          1           0        0.163580   -0.336714    0.374251
     72          1           0        0.547291    0.538108   -2.146796
     73          1           0       -0.864376   -0.503817   -1.635261
     74          1           0        0.386223   -1.264630   -2.345620
     75          1           0        0.708188   -2.125238    1.917420
     76          1           0        2.038516   -3.244594    1.759734
     77          1           0       -0.327961   -4.059490    1.859455
     78          1           0        0.844561   -4.829142    0.864014
     79          1           0        0.901638    5.332635   -1.077014
     80          1           0        0.849828    5.432673    0.768752
     81          1           0        0.289837    4.014290   -0.030360
     82          1           0        2.126632    7.251939    1.199924
     83          1           0        1.978711    7.385935   -0.555097
     84          1           0        2.980356    8.503682    0.366170
     85          1           0        8.953027    4.521902    0.169863
     86          1           0       10.154536    2.100440   -0.766463
     87          1           0        9.250440    3.290928   -2.462634
     88          1           0        9.105572    4.957924   -2.209887
     89          1           0        7.657864    4.119310   -2.409916
     90          1           0       10.757273    3.634354    1.136094
     91          1           0       11.205377    1.937972    1.173277
     92          1           0        8.505232    2.386353    2.442816
     93          1           0        9.755065    3.397186    3.142895
     94          1           0        9.988064    1.772581    3.286393
     95          1           0        9.812011   -2.530278   -0.902938
     96          1           0        9.015339   -4.100940   -0.757121
     97          1           0        9.592408   -3.416841    0.692368
     98          1           0        4.162855   -4.364186    0.987645
     99          1           0        2.481499   -7.501383   -1.446364
    100          1           0        1.983805   -5.923203   -2.303529
    101          1           0        1.215299   -6.553572   -0.829538
    102          1           0       -3.295765   -4.076995   -1.077107
    103          1           0       -2.570009   -2.681808   -1.830352
    104          1           0       -3.684516   -1.553997    0.506038
    105          1           0       -6.005861   -3.892770   -1.923141
    106          1           0       -4.801835   -3.019994   -2.656703
    107          1           0       -6.431974   -2.286637   -2.523904
    108          1           0       -6.762647   -0.784203   -1.113884
    109          1           0       -5.808807   -0.719180    0.464100
    110          1           0       -7.596490   -3.056694   -0.044574
    111          1           0       -8.358085   -1.522295    0.157196
    112          1           0       -6.249445   -1.848982    2.393182
    113          1           0       -6.992496   -3.293394    1.979071
    114          1           0       -9.317690   -2.288108    2.344788
    115          1           0       -7.590573   -3.554304    4.169438
    116          1           0       -9.356332   -3.609302    4.136345
    117          1           0       -8.416819   -2.315502    4.964393
    118          1           0       -7.749364   -0.061274    2.728985
    119          1           0       -8.579463   -0.408843    4.272554
    120          1           0      -10.400316    0.689158    3.511227
    121          1           0      -10.544725   -0.550869    2.185874
    122          1           0       -8.614526    1.336675    1.258606
    123          1           0       -9.664530    2.283655    2.138203
    124          1           0      -10.616547    0.354333    0.039919
    125          1           0      -10.691956    3.069590   -0.965188
    126          1           0      -10.046318    1.510200   -1.659638
    127          1           0       -9.072242    2.535515   -0.628384
    128          1           0      -11.771076    2.992718    1.052506
    129          1           0      -12.172339    1.633840    1.902181
    130          1           0      -13.914352    1.184426    0.609592
    131          1           0      -12.831801    0.783890   -0.747629
    132          1           0      -13.132801    3.625447   -0.738778
    133          1           0      -14.595126    3.013796    0.095963
    134          1           0      -14.754906    1.391265   -1.967259
    135          1           0      -13.358753    1.158800   -3.573628
    136          1           0      -12.450191    2.454369   -2.665806
    137          1           0      -13.402567    2.860147   -4.003812
    138          1           0      -15.363694    4.357467   -1.944445
    139          1           0      -16.453330    2.911089   -1.950089
    140          1           0      -15.522022    3.371762   -3.461421
 ---------------------------------------------------------------------

 SCF Done:  E(RB-LYP) =  -3007.37988506     A.U. after   21 cycles

 Excitation energies and oscillator strengths:

 Excited State   1:      Singlet-A      1.7751 eV  698.47 nm  f=0.2839  <S**2>=0.000
     245 -> 248       -0.19213
     246 -> 247        0.68611
     246 <- 247       -0.14092
 This state for optimization and/or second-order correction.
 Total Energy, E(TD-HF/TD-DFT) =  -3007.31465229
 Copying the excited state density for this state as the 1-particle RhoCI density.

 Excited State   2:      Singlet-A      1.9808 eV  625.92 nm  f=0.0282  <S**2>=0.000
     243 -> 247        0.10483
     244 -> 247        0.54571
     245 -> 247        0.40442
     246 -> 248        0.14733

 Excited State   3:      Singlet-A      2.0287 eV  611.14 nm  f=0.0161  <S**2>=0.000
     243 -> 247        0.46774
     244 -> 247       -0.38183
     245 -> 247        0.33030
     246 -> 248        0.14817

 Excited State   4:      Singlet-A      2.0565 eV  602.90 nm  f=0.0189  <S**2>=0.000
     243 -> 247        0.51755
     244 -> 247        0.23145
     245 -> 247       -0.37182
     246 -> 248       -0.18406

 Excited State   5:      Singlet-A      2.6349 eV  470.55 nm  f=0.0020  <S**2>=0.000
     240 -> 247        0.24191
     241 -> 247        0.49603
     242 -> 247        0.42374

 The electronic state is 1-A.
 Alpha  occ. eigenvalues --  -46.26861 -18.83822 -18.80721 -18.78190 -18.75729
 Alpha  occ. eigenvalues --  -18.75558 -18.75410 -14.03619 -14.02690 -14.01491
 Alpha  occ. eigenvalues --  -14.01294 -10.05588 -10.03192  -9.99969  -9.99094
 Alpha  occ. eigenvalues --   -9.98933  -9.96982  -9.96736  -9.96482  -9.96357
 Alpha  occ. eigenvalues --   -9.96299  -9.96078  -9.95782  -9.95320  -9.95185
 Alpha  occ. eigenvalues --   -9.94781  -9.94528  -9.94322  -9.94247  -9.93941
 Alpha  occ. eigenvalues --   -9.93933  -9.93666  -9.93609  -9.93470  -9.93253
 Alpha  occ. eigenvalues --   -9.93212  -9.93071  -9.92925  -9.92631  -9.92600
 Alpha  occ. eigenvalues --   -9.92586  -9.92535  -9.92486  -9.92289  -9.92236
 Alpha  occ. eigenvalues --   -9.92040  -9.92008  -9.91925  -9.91853  -9.91823
 Alpha  occ. eigenvalues --   -9.91788  -9.91754  -9.91674  -9.91505  -9.91477
 Alpha  occ. eigenvalues --   -9.91115  -9.91104  -9.91053  -9.90979  -9.90965
 Alpha  occ. eigenvalues --   -9.90924  -9.90851  -9.90850  -9.90799  -9.90619
 Alpha  occ. eigenvalues --   -9.90574  -2.91589  -1.72025  -1.71447  -1.71324
 Alpha  occ. eigenvalues --   -0.99345  -0.96116  -0.91475  -0.90304  -0.89872
 Alpha  occ. eigenvalues --   -0.88368  -0.87622  -0.86818  -0.85422  -0.83730
 Alpha  occ. eigenvalues --   -0.75814  -0.74995  -0.73612  -0.73289  -0.72742
 Alpha  occ. eigenvalues --   -0.72344  -0.71293  -0.71180  -0.70820  -0.70452
 Alpha  occ. eigenvalues --   -0.70041  -0.69901  -0.68523  -0.67675  -0.67104
 Alpha  occ. eigenvalues --   -0.66756  -0.65693  -0.65368  -0.64920  -0.64700
 Alpha  occ. eigenvalues --   -0.63720  -0.62880  -0.62420  -0.61483  -0.60946
 Alpha  occ. eigenvalues --   -0.60591  -0.60391  -0.60042  -0.59788  -0.59543
 Alpha  occ. eigenvalues --   -0.58879  -0.57785  -0.57113  -0.56552  -0.55152
 Alpha  occ. eigenvalues --   -0.54447  -0.54233  -0.53465  -0.52931  -0.52098
 Alpha  occ. eigenvalues --   -0.51634  -0.51186  -0.50957  -0.50447  -0.50280
 Alpha  occ. eigenvalues --   -0.49866  -0.49496  -0.48481  -0.47643  -0.47205
 Alpha  occ. eigenvalues --   -0.46421  -0.46173  -0.45864  -0.45423  -0.44421
 Alpha  occ. eigenvalues --   -0.43979  -0.43770  -0.43487  -0.42877  -0.42669
 Alpha  occ. eigenvalues --   -0.42214  -0.42116  -0.41928  -0.41687  -0.41431
 Alpha  occ. eigenvalues --   -0.41349  -0.41140  -0.40780  -0.40674  -0.40019
 Alpha  occ. eigenvalues --   -0.39809  -0.39762  -0.39626  -0.39231  -0.39084
 Alpha  occ. eigenvalues --   -0.38976  -0.38898  -0.38659  -0.38589  -0.38444
 Alpha  occ. eigenvalues --   -0.38156  -0.37772  -0.37755  -0.37471  -0.37213
 Alpha  occ. eigenvalues --   -0.36981  -0.36887  -0.36745  -0.36625  -0.36428
 Alpha  occ. eigenvalues --   -0.36165  -0.36059  -0.35842  -0.35685  -0.35565
 Alpha  occ. eigenvalues --   -0.35460  -0.35356  -0.35302  -0.35131  -0.35011
 Alpha  occ. eigenvalues --   -0.34955  -0.34472  -0.34421  -0.34169  -0.34045
 Alpha  occ. eigenvalues --   -0.33846  -0.33659  -0.33557  -0.33391  -0.33256
 Alpha  occ. eigenvalues --   -0.33019  -0.32646  -0.32632  -0.32577  -0.32215
 Alpha  occ. eigenvalues --   -0.32132  -0.31827  -0.31786  -0.31633  -0.31441
 Alpha  occ. eigenvalues --   -0.31334  -0.31229  -0.31020  -0.30625  -0.30490
 Alpha  occ. eigenvalues --   -0.30423  -0.30310  -0.30130  -0.30021  -0.29936
 Alpha  occ. eigenvalues --   -0.29822  -0.29592  -0.29387  -0.29076  -0.29032
 Alpha  occ. eigenvalues --   -0.28661  -0.28564  -0.28419  -0.28044  -0.27558
 Alpha  occ. eigenvalues --   -0.27408  -0.27006  -0.26844  -0.26663  -0.26488
 Alpha  occ. eigenvalues --   -0.26361  -0.26204  -0.25858  -0.25833  -0.25640
 Alpha  occ. eigenvalues --   -0.25480  -0.24683  -0.23919  -0.23688  -0.23449
 Alpha  occ. eigenvalues --   -0.23299  -0.22861  -0.21982  -0.21371  -0.21073
 Alpha  occ. eigenvalues --   -0.21049  -0.20735  -0.18710  -0.18578  -0.17290
 Alpha  occ. eigenvalues --   -0.15623
 Alpha virt. eigenvalues --   -0.11322  -0.07154  -0.06595  -0.05311  -0.04704
 Alpha virt. eigenvalues --   -0.02305  -0.01973  -0.01681  -0.00861   0.00299
 Alpha virt. eigenvalues --    0.01008   0.01762   0.01983   0.02595   0.02832

 Mulliken charges:
               1
     1  Mg   0.709570
     2  C   -0.000954
     3  C   -0.082278
     4  C   -0.043001
     5  C   -0.095400
     6  N   -0.177058
     7  C   -0.077266
     8  C    0.048707
     9  C   -0.029024
    10  C    0.011228
    11  C    0.092836
    12  C    0.107134
    13  C    0.142735
    14  C    0.120084
    15  O   -0.218936
    16  O   -0.260505
    17  N   -0.294714
    18  C    0.162526
    19  C   -0.160597
    20  C    0.067927
    21  C    0.128697
    22  C    0.180711
    23  C   -0.096432
    24  O   -0.159936
    25  C    0.103980
    26  N   -0.229260
    27  C    0.022714
    28  C    0.035439
    29  C    0.026441
    30  C    0.040229
    31  C    0.102467
    32  C    0.077388
    33  C    0.052737
    34  N   -0.275707
    35  C    0.161595
    36  C   -0.202041
    37  C    0.099365
    38  C    0.085119
    39  C    0.186295
    40  C   -0.049098
    41  O   -0.152487
    42  C    0.059546
    43  C    0.121600
    44  O   -0.189751
    45  O   -0.286093
    46  C    0.214128
    47  C    0.300010
    48  C   -0.103183
    49  C   -0.156475
    50  C    0.137032
    51  C    0.133641
    52  C    0.068204
    53  C    0.127273
    54  C   -0.082981
    55  C    0.131117
    56  C    0.126368
    57  C    0.100276
    58  C    0.086431
    59  C   -0.110969
    60  C    0.131132
    61  C    0.080855
    62  C    0.099184
    63  C    0.100393
    64  C   -0.127767
    65  C    0.103840
    66  C    0.130956
    67  H   -0.060492
    68  H   -0.046841
    69  H   -0.065952
    70  H    0.011125
    71  H   -0.020575
    72  H    0.006562
    73  H   -0.011367
    74  H    0.004644
    75  H   -0.021998
    76  H   -0.010445
    77  H   -0.013279
    78  H   -0.001710
    79  H    0.022363
    80  H    0.005055
    81  H   -0.015579
    82  H    0.001340
    83  H    0.001457
    84  H   -0.012658
    85  H   -0.016934
    86  H   -0.038861
    87  H   -0.014120
    88  H   -0.014886
    89  H    0.004196
    90  H   -0.019812
    91  H   -0.021910
    92  H    0.018517
    93  H   -0.026276
    94  H   -0.013530
    95  H    0.001754
    96  H   -0.000105
    97  H   -0.000043
    98  H   -0.000480
    99  H    0.012547
   100  H    0.030982
   101  H    0.000965
   102  H    0.005880
   103  H    0.008897
   104  H   -0.039659
   105  H   -0.001988
   106  H   -0.023064
   107  H   -0.008159
   108  H   -0.021328
   109  H   -0.038066
   110  H   -0.028770
   111  H   -0.023443
   112  H   -0.023324
   113  H   -0.047848
   114  H   -0.048670
   115  H   -0.034123
   116  H   -0.003986
   117  H   -0.036225
   118  H   -0.034364
   119  H   -0.042022
   120  H   -0.020927
   121  H   -0.022094
   122  H   -0.046142
   123  H   -0.048343
   124  H   -0.040289
   125  H   -0.005697
   126  H   -0.008624
   127  H   -0.036015
   128  H   -0.043964
   129  H   -0.052452
   130  H   -0.037038
   131  H   -0.022831
   132  H   -0.025621
   133  H   -0.030178
   134  H   -0.042848
   135  H   -0.003586
   136  H   -0.033590
   137  H   -0.026276
   138  H   -0.009803
   139  H   -0.007677
   140  H   -0.025394
 Sum of Mulliken charges =  -0.00000

 Dipole moment (field-independent basis, Debye):
    X=             -5.1455    Y=              1.5221    Z=              2.6030  Tot=              5.9640
 Quadrupole moment (field-independent basis, Debye-Ang):
   XX=           -384.1176   YY=           -439.1673   ZZ=           -409.9909
   XY=             24.1181   XZ=              6.7921   YZ=            -12.7318

 Normal termination of Gaussian 16 at Thu May  5 14:02:56 2022.
