 Gaussian 16, Revision A.03,
 Gaussian 16:  ES64L-G16RevA.03 25-Dec-2016

 -----------------------------------
 #p cam-b3lyp/Def2SVP td=(nstates=5)
 -----------------------------------

 -------------------------------------------------------
 step_901_chromophore_24 TDDFT with cam-b3lyp functional
 -------------------------------------------------------
 Symbolic Z-matrix:
 Charge =  0 Multiplicity = 1

                         Standard orientation:
 ---------------------------------------------------------------------
 Center     Atomic      Atomic             Coordinates (Angstroms)
 Number     Number       Type             X           Y           Z
 ---------------------------------------------------------------------
      1         12           0        5.243489    0.871818    0.206459
      2          6           0        4.315931   -2.417471    0.131020
      3          6           0        1.867653    1.773775   -0.155897
      4          6           0        6.124718    4.158695   -0.068051
      5          6           0        8.588754   -0.036706    0.189584
      6          7           0        3.325444   -0.226158    0.048808
      7          6           0        3.140135   -1.609742    0.072972
      8          6           0        1.673839   -1.972636    0.010590
      9          6           0        0.983471   -0.567774   -0.306751
     10          6           0        2.170553    0.359152   -0.099516
     11          6           0        0.219404   -0.401530   -1.702620
     12          6           0        1.199602   -2.804923    1.220324
     13          6           0        0.197011   -3.953796    0.910070
     14          6           0       -0.690225   -3.842932   -0.273816
     15          8           0       -0.428144   -4.256292   -1.429613
     16          8           0       -1.788726   -3.098070    0.051252
     17          7           0        4.148842    2.703582    0.033525
     18          6           0        2.777148    2.871878   -0.091774
     19          6           0        2.465083    4.337886   -0.062945
     20          6           0        3.721001    5.052523    0.032335
     21          6           0        4.767295    3.958936    0.006985
     22          6           0        1.013668    4.824537   -0.119806
     23          6           0        3.921413    6.488472    0.195061
     24          8           0        5.027148    7.006613    0.278996
     25          6           0        2.673785    7.461364    0.280339
     26          7           0        7.126194    1.953627    0.235881
     27          6           0        7.178376    3.260515   -0.080146
     28          6           0        8.595314    3.660431   -0.394130
     29          6           0        9.429483    2.376431   -0.000909
     30          6           0        8.362488    1.310925    0.214790
     31          6           0        8.631865    4.015958   -1.932888
     32          6           0       10.358434    2.623503    1.215461
     33          6           0        9.583261    2.485950    2.568977
     34          7           0        6.273460   -0.792867    0.122187
     35          6           0        7.624590   -1.026999    0.135180
     36          6           0        7.854692   -2.470980   -0.045490
     37          6           0        6.591780   -3.026407   -0.061496
     38          6           0        5.666348   -1.950599    0.123561
     39          6           0        9.165347   -3.137840   -0.270868
     40          6           0        5.945091   -4.285632   -0.153218
     41          8           0        6.298433   -5.464736   -0.355283
     42          6           0        4.461122   -3.917926    0.039198
     43          6           0        3.736695   -4.553580   -1.062440
     44          8           0        3.624392   -4.131206   -2.216090
     45          8           0        3.070624   -5.659142   -0.579769
     46          6           0        2.156720   -6.464117   -1.372112
     47          6           0       -2.884356   -3.089513   -0.870246
     48          6           0       -3.954109   -2.137682   -0.374521
     49          6           0       -5.212509   -2.163763   -0.765279
     50          6           0       -5.663436   -2.861954   -2.007390
     51          6           0       -6.351008   -1.324784   -0.262739
     52          6           0       -7.474972   -2.090838    0.446447
     53          6           0       -7.198495   -2.224304    2.009765
     54          6           0       -8.409844   -2.020018    2.884626
     55          6           0       -8.492453   -2.948285    4.079887
     56          6           0       -8.612618   -0.540487    3.191277
     57          6           0       -9.910472    0.187110    2.677498
     58          6           0       -9.632647    1.310552    1.646003
     59          6           0      -10.557283    1.374558    0.417355
     60          6           0      -10.087379    2.178646   -0.799452
     61          6           0      -11.957953    1.933684    0.876298
     62          6           0      -13.117281    1.556863   -0.033984
     63          6           0      -13.841944    2.801018   -0.661169
     64          6           0      -14.380448    2.412792   -2.023354
     65          6           0      -13.376869    2.167711   -3.162498
     66          6           0      -15.561453    3.374674   -2.371570
     67          1           0        0.796917    1.931197   -0.304016
     68          1           0        6.444007    5.197321   -0.171528
     69          1           0        9.654991   -0.266558    0.140618
     70          1           0        1.592523   -2.637486   -0.849473
     71          1           0        0.163580   -0.336714    0.374251
     72          1           0        0.547291    0.538108   -2.146796
     73          1           0       -0.864376   -0.503817   -1.635261
     74          1           0        0.386223   -1.264630   -2.345620
     75          1           0        0.708188   -2.125238    1.917420
     76          1           0        2.038516   -3.244594    1.759734
     77          1           0       -0.327961   -4.059490    1.859455
     78          1           0        0.844561   -4.829142    0.864014
     79          1           0        0.901638    5.332635   -1.077014
     80          1           0        0.849828    5.432673    0.768752
     81          1           0        0.289837    4.014290   -0.030360
     82          1           0        2.126632    7.251939    1.199924
     83          1           0        1.978711    7.385935   -0.555097
     84          1           0        2.980356    8.503682    0.366170
     85          1           0        8.953027    4.521902    0.169863
     86          1           0       10.154536    2.100440   -0.766463
     87          1           0        9.250440    3.290928   -2.462634
     88          1           0        9.105572    4.957924   -2.209887
     89          1           0        7.657864    4.119310   -2.409916
     90          1           0       10.757273    3.634354    1.136094
     91          1           0       11.205377    1.937972    1.173277
     92          1           0        8.505232    2.386353    2.442816
     93          1           0        9.755065    3.397186    3.142895
     94          1           0        9.988064    1.772581    3.286393
     95          1           0        9.812011   -2.530278   -0.902938
     96          1           0        9.015339   -4.100940   -0.757121
     97          1           0        9.592408   -3.416841    0.692368
     98          1           0        4.162855   -4.364186    0.987645
     99          1           0        2.481499   -7.501383   -1.446364
    100          1           0        1.983805   -5.923203   -2.303529
    101          1           0        1.215299   -6.553572   -0.829538
    102          1           0       -3.295765   -4.076995   -1.077107
    103          1           0       -2.570009   -2.681808   -1.830352
    104          1           0       -3.684516   -1.553997    0.506038
    105          1           0       -6.005861   -3.892770   -1.923141
    106          1           0       -4.801835   -3.019994   -2.656703
    107          1           0       -6.431974   -2.286637   -2.523904
    108          1           0       -6.762647   -0.784203   -1.113884
    109          1           0       -5.808807   -0.719180    0.464100
    110          1           0       -7.596490   -3.056694   -0.044574
    111          1           0       -8.358085   -1.522295    0.157196
    112          1           0       -6.249445   -1.848982    2.393182
    113          1           0       -6.992496   -3.293394    1.979071
    114          1           0       -9.317690   -2.288108    2.344788
    115          1           0       -7.590573   -3.554304    4.169438
    116          1           0       -9.356332   -3.609302    4.136345
    117          1           0       -8.416819   -2.315502    4.964393
    118          1           0       -7.749364   -0.061274    2.728985
    119          1           0       -8.579463   -0.408843    4.272554
    120          1           0      -10.400316    0.689158    3.511227
    121          1           0      -10.544725   -0.550869    2.185874
    122          1           0       -8.614526    1.336675    1.258606
    123          1           0       -9.664530    2.283655    2.138203
    124          1           0      -10.616547    0.354333    0.039919
    125          1           0      -10.691956    3.069590   -0.965188
    126          1           0      -10.046318    1.510200   -1.659638
    127          1           0       -9.072242    2.535515   -0.628384
    128          1           0      -11.771076    2.992718    1.052506
    129          1           0      -12.172339    1.633840    1.902181
    130          1           0      -13.914352    1.184426    0.609592
    131          1           0      -12.831801    0.783890   -0.747629
    132          1           0      -13.132801    3.625447   -0.738778
    133          1           0      -14.595126    3.013796    0.095963
    134          1           0      -14.754906    1.391265   -1.967259
    135          1           0      -13.358753    1.158800   -3.573628
    136          1           0      -12.450191    2.454369   -2.665806
    137          1           0      -13.402567    2.860147   -4.003812
    138          1           0      -15.363694    4.357467   -1.944445
    139          1           0      -16.453330    2.911089   -1.950089
    140          1           0      -15.522022    3.371762   -3.461421
 ---------------------------------------------------------------------

 SCF Done:  E(RCAM-B3LYP) =  -3007.18001580     A.U. after   17 cycles

 Excitation energies and oscillator strengths:

 Excited State   1:      Singlet-A      1.7731 eV  699.26 nm  f=0.3617  <S**2>=0.000
     245 -> 248       -0.17561
     246 -> 247        0.68538
     245 <- 248       -0.10072
 This state for optimization and/or second-order correction.
 Total Energy, E(TD-HF/TD-DFT) =  -3007.11485674
 Copying the excited state density for this state as the 1-particle RhoCI density.

 Excited State   2:      Singlet-A      2.2897 eV  541.49 nm  f=0.0615  <S**2>=0.000
     245 -> 247        0.61349
     246 -> 248        0.33691

 Excited State   3:      Singlet-A      3.3831 eV  366.48 nm  f=0.5816  <S**2>=0.000
     242 -> 247       -0.19569
     244 -> 247        0.17888
     245 -> 247       -0.28920
     246 -> 248        0.57071

 Excited State   4:      Singlet-A      3.5322 eV  351.01 nm  f=0.0007  <S**2>=0.000
     239 -> 247        0.43302
     239 -> 248       -0.12135
     239 -> 249        0.26243
     239 -> 250        0.16661
     240 -> 247        0.34155
     240 -> 249        0.17841
     240 -> 250        0.10644

 Excited State   5:      Singlet-A      3.6422 eV  340.41 nm  f=0.0687  <S**2>=0.000
     239 -> 247       -0.10533
     242 -> 249       -0.19211
     242 -> 250        0.15491
     243 -> 247        0.12513
     243 -> 249       -0.13308
     243 -> 250        0.10598
     244 -> 247        0.50600
     244 -> 249       -0.20020
     244 -> 250        0.13908
     246 -> 248       -0.10945

 The electronic state is 1-A.
 Alpha  occ. eigenvalues --  -46.88340 -19.26718 -19.23422 -19.21153 -19.19296
 Alpha  occ. eigenvalues --  -19.18572 -19.18102 -14.42517 -14.41457 -14.40154
 Alpha  occ. eigenvalues --  -14.39465 -10.40930 -10.38473 -10.35711 -10.34036
 Alpha  occ. eigenvalues --  -10.32958 -10.31614 -10.31594 -10.31323 -10.31188
 Alpha  occ. eigenvalues --  -10.30857 -10.30762 -10.30176 -10.29585 -10.28753
 Alpha  occ. eigenvalues --  -10.28648 -10.28557 -10.28524 -10.28177 -10.28158
 Alpha  occ. eigenvalues --  -10.28078 -10.28071 -10.27789 -10.27608 -10.27509
 Alpha  occ. eigenvalues --  -10.26965 -10.26940 -10.26840 -10.26766 -10.26458
 Alpha  occ. eigenvalues --  -10.26383 -10.26355 -10.26248 -10.26237 -10.26130
 Alpha  occ. eigenvalues --  -10.25980 -10.25790 -10.25626 -10.25615 -10.25570
 Alpha  occ. eigenvalues --  -10.25520 -10.25474 -10.25321 -10.25263 -10.25203
 Alpha  occ. eigenvalues --  -10.24816 -10.24735 -10.24707 -10.24637 -10.24632
 Alpha  occ. eigenvalues --  -10.24569 -10.24525 -10.24482 -10.24433 -10.24234
 Alpha  occ. eigenvalues --  -10.24004  -3.16978  -1.91888  -1.91406  -1.91314
 Alpha  occ. eigenvalues --   -1.17753  -1.14415  -1.10382  -1.08150  -1.07771
 Alpha  occ. eigenvalues --   -1.06065  -1.05123  -1.04302  -1.03023  -1.01591
 Alpha  occ. eigenvalues --   -0.92691  -0.91981  -0.90401  -0.90075  -0.89513
 Alpha  occ. eigenvalues --   -0.89036  -0.87944  -0.87651  -0.87435  -0.87314
 Alpha  occ. eigenvalues --   -0.86621  -0.86222  -0.84803  -0.83780  -0.83233
 Alpha  occ. eigenvalues --   -0.82881  -0.81522  -0.81226  -0.81002  -0.80554
 Alpha  occ. eigenvalues --   -0.79850  -0.78608  -0.78353  -0.76847  -0.76332
 Alpha  occ. eigenvalues --   -0.75822  -0.75798  -0.75400  -0.74947  -0.74732
 Alpha  occ. eigenvalues --   -0.74145  -0.72693  -0.72069  -0.71416  -0.69705
 Alpha  occ. eigenvalues --   -0.69215  -0.68782  -0.68100  -0.67298  -0.66307
 Alpha  occ. eigenvalues --   -0.65954  -0.65108  -0.64991  -0.64363  -0.64162
 Alpha  occ. eigenvalues --   -0.63907  -0.63488  -0.62374  -0.61150  -0.60751
 Alpha  occ. eigenvalues --   -0.60075  -0.59708  -0.59276  -0.58677  -0.57799
 Alpha  occ. eigenvalues --   -0.57268  -0.57064  -0.56786  -0.56038  -0.55905
 Alpha  occ. eigenvalues --   -0.55058  -0.55022  -0.54902  -0.54792  -0.54423
 Alpha  occ. eigenvalues --   -0.54173  -0.53880  -0.53720  -0.53409  -0.53018
 Alpha  occ. eigenvalues --   -0.52815  -0.52565  -0.52227  -0.51992  -0.51514
 Alpha  occ. eigenvalues --   -0.51442  -0.51306  -0.51152  -0.50987  -0.50897
 Alpha  occ. eigenvalues --   -0.50440  -0.50186  -0.50022  -0.49962  -0.49738
 Alpha  occ. eigenvalues --   -0.49624  -0.49144  -0.49034  -0.48910  -0.48823
 Alpha  occ. eigenvalues --   -0.48612  -0.48227  -0.48092  -0.48024  -0.47894
 Alpha  occ. eigenvalues --   -0.47709  -0.47585  -0.47404  -0.47037  -0.46912
 Alpha  occ. eigenvalues --   -0.46844  -0.46376  -0.46239  -0.46193  -0.45842
 Alpha  occ. eigenvalues --   -0.45691  -0.45319  -0.45241  -0.45030  -0.44840
 Alpha  occ. eigenvalues --   -0.44709  -0.44360  -0.44197  -0.44125  -0.44032
 Alpha  occ. eigenvalues --   -0.43770  -0.43723  -0.43544  -0.43333  -0.43129
 Alpha  occ. eigenvalues --   -0.42906  -0.42864  -0.42518  -0.42000  -0.41846
 Alpha  occ. eigenvalues --   -0.41708  -0.41661  -0.41453  -0.41247  -0.41134
 Alpha  occ. eigenvalues --   -0.40955  -0.40818  -0.40515  -0.40145  -0.40119
 Alpha  occ. eigenvalues --   -0.39674  -0.39456  -0.39452  -0.39399  -0.38948
 Alpha  occ. eigenvalues --   -0.38392  -0.38032  -0.37814  -0.37648  -0.37642
 Alpha  occ. eigenvalues --   -0.37132  -0.37003  -0.36643  -0.36564  -0.36249
 Alpha  occ. eigenvalues --   -0.36190  -0.35309  -0.35257  -0.34722  -0.34397
 Alpha  occ. eigenvalues --   -0.33699  -0.33509  -0.33035  -0.31482  -0.31307
 Alpha  occ. eigenvalues --   -0.30785  -0.30501  -0.30221  -0.30125  -0.24199
 Alpha  occ. eigenvalues --   -0.20855
 Alpha virt. eigenvalues --   -0.08157  -0.02028  -0.00207   0.02145   0.02440
 Alpha virt. eigenvalues --    0.03567   0.04887   0.05511   0.06160   0.06289
 Alpha virt. eigenvalues --    0.08079   0.08271   0.08798   0.09116   0.09205

 Mulliken charges:
               1
     1  Mg   0.844209
     2  C   -0.020338
     3  C   -0.101567
     4  C   -0.068635
     5  C   -0.089785
     6  N   -0.249830
     7  C   -0.040540
     8  C   -0.004796
     9  C   -0.081431
    10  C    0.039505
    11  C    0.040472
    12  C    0.063567
    13  C    0.072891
    14  C    0.191381
    15  O   -0.258128
    16  O   -0.323372
    17  N   -0.383931
    18  C    0.175870
    19  C   -0.159649
    20  C    0.000661
    21  C    0.162221
    22  C    0.123826
    23  C   -0.021589
    24  O   -0.198317
    25  C    0.030548
    26  N   -0.299276
    27  C    0.044951
    28  C   -0.023884
    29  C   -0.023646
    30  C    0.039898
    31  C    0.045537
    32  C    0.027663
    33  C   -0.009845
    34  N   -0.366779
    35  C    0.149631
    36  C   -0.190191
    37  C    0.009065
    38  C    0.116803
    39  C    0.130464
    40  C    0.051034
    41  O   -0.195993
    42  C   -0.017974
    43  C    0.207995
    44  O   -0.227904
    45  O   -0.351636
    46  C    0.181818
    47  C    0.266148
    48  C   -0.121128
    49  C   -0.169552
    50  C    0.066968
    51  C    0.069903
    52  C    0.023025
    53  C    0.064596
    54  C   -0.141032
    55  C    0.070992
    56  C    0.075457
    57  C    0.042944
    58  C    0.035043
    59  C   -0.160316
    60  C    0.070308
    61  C    0.028259
    62  C    0.039575
    63  C    0.047714
    64  C   -0.186908
    65  C    0.045122
    66  C    0.072342
    67  H   -0.026316
    68  H   -0.004801
    69  H   -0.029673
    70  H    0.043779
    71  H    0.014601
    72  H    0.030914
    73  H    0.011413
    74  H    0.031310
    75  H    0.006875
    76  H    0.020740
    77  H    0.022568
    78  H    0.028886
    79  H    0.049882
    80  H    0.032473
    81  H    0.016240
    82  H    0.029289
    83  H    0.029311
    84  H    0.024694
    85  H    0.018065
    86  H   -0.003112
    87  H    0.012071
    88  H    0.010520
    89  H    0.029083
    90  H    0.006967
    91  H    0.005754
    92  H    0.038503
    93  H   -0.002273
    94  H    0.011806
    95  H    0.023805
    96  H    0.027356
    97  H    0.025146
    98  H    0.042619
    99  H    0.033923
   100  H    0.056965
   101  H    0.017843
   102  H    0.033016
   103  H    0.034599
   104  H   -0.004911
   105  H    0.024020
   106  H    0.002400
   107  H    0.017994
   108  H    0.008720
   109  H   -0.010127
   110  H   -0.000397
   111  H    0.000782
   112  H    0.004890
   113  H   -0.015188
   114  H   -0.014285
   115  H   -0.007682
   116  H    0.020287
   117  H   -0.011464
   118  H   -0.006864
   119  H   -0.012396
   120  H    0.007798
   121  H    0.004306
   122  H   -0.019255
   123  H   -0.019327
   124  H   -0.011890
   125  H    0.015295
   126  H    0.014563
   127  H   -0.008941
   128  H   -0.015143
   129  H   -0.021477
   130  H   -0.006082
   131  H    0.003966
   132  H   -0.000360
   133  H    0.000001
   134  H   -0.009880
   135  H    0.020305
   136  H   -0.012750
   137  H    0.000004
   138  H    0.012969
   139  H    0.015947
   140  H   -0.001104
 Sum of Mulliken charges =  -0.00000

 Dipole moment (field-independent basis, Debye):
    X=             -6.1308    Y=              3.0713    Z=              2.6984  Tot=              7.3689
 Quadrupole moment (field-independent basis, Debye-Ang):
   XX=           -391.6161   YY=           -432.5790   ZZ=           -410.2038
   XY=             29.8657   XZ=              6.9876   YZ=            -13.4785

 Normal termination of Gaussian 16 at Thu May  5 13:01:06 2022.
