 Gaussian 16, Revision A.03,
 Gaussian 16:  ES64L-G16RevA.03 25-Dec-2016

 ---------------------------------
 #p PBE1PBE/Def2SVP td=(nstates=5)
 ---------------------------------

 -----------------------------------------------------
 step_901_chromophore_24 TDDFT with PBE1PBE functional
 -----------------------------------------------------
 Symbolic Z-matrix:
 Charge =  0 Multiplicity = 1

                         Standard orientation:
 ---------------------------------------------------------------------
 Center     Atomic      Atomic             Coordinates (Angstroms)
 Number     Number       Type             X           Y           Z
 ---------------------------------------------------------------------
      1         12           0        5.243489    0.871818    0.206459
      2          6           0        4.315931   -2.417471    0.131020
      3          6           0        1.867653    1.773775   -0.155897
      4          6           0        6.124718    4.158695   -0.068051
      5          6           0        8.588754   -0.036706    0.189584
      6          7           0        3.325444   -0.226158    0.048808
      7          6           0        3.140135   -1.609742    0.072972
      8          6           0        1.673839   -1.972636    0.010590
      9          6           0        0.983471   -0.567774   -0.306751
     10          6           0        2.170553    0.359152   -0.099516
     11          6           0        0.219404   -0.401530   -1.702620
     12          6           0        1.199602   -2.804923    1.220324
     13          6           0        0.197011   -3.953796    0.910070
     14          6           0       -0.690225   -3.842932   -0.273816
     15          8           0       -0.428144   -4.256292   -1.429613
     16          8           0       -1.788726   -3.098070    0.051252
     17          7           0        4.148842    2.703582    0.033525
     18          6           0        2.777148    2.871878   -0.091774
     19          6           0        2.465083    4.337886   -0.062945
     20          6           0        3.721001    5.052523    0.032335
     21          6           0        4.767295    3.958936    0.006985
     22          6           0        1.013668    4.824537   -0.119806
     23          6           0        3.921413    6.488472    0.195061
     24          8           0        5.027148    7.006613    0.278996
     25          6           0        2.673785    7.461364    0.280339
     26          7           0        7.126194    1.953627    0.235881
     27          6           0        7.178376    3.260515   -0.080146
     28          6           0        8.595314    3.660431   -0.394130
     29          6           0        9.429483    2.376431   -0.000909
     30          6           0        8.362488    1.310925    0.214790
     31          6           0        8.631865    4.015958   -1.932888
     32          6           0       10.358434    2.623503    1.215461
     33          6           0        9.583261    2.485950    2.568977
     34          7           0        6.273460   -0.792867    0.122187
     35          6           0        7.624590   -1.026999    0.135180
     36          6           0        7.854692   -2.470980   -0.045490
     37          6           0        6.591780   -3.026407   -0.061496
     38          6           0        5.666348   -1.950599    0.123561
     39          6           0        9.165347   -3.137840   -0.270868
     40          6           0        5.945091   -4.285632   -0.153218
     41          8           0        6.298433   -5.464736   -0.355283
     42          6           0        4.461122   -3.917926    0.039198
     43          6           0        3.736695   -4.553580   -1.062440
     44          8           0        3.624392   -4.131206   -2.216090
     45          8           0        3.070624   -5.659142   -0.579769
     46          6           0        2.156720   -6.464117   -1.372112
     47          6           0       -2.884356   -3.089513   -0.870246
     48          6           0       -3.954109   -2.137682   -0.374521
     49          6           0       -5.212509   -2.163763   -0.765279
     50          6           0       -5.663436   -2.861954   -2.007390
     51          6           0       -6.351008   -1.324784   -0.262739
     52          6           0       -7.474972   -2.090838    0.446447
     53          6           0       -7.198495   -2.224304    2.009765
     54          6           0       -8.409844   -2.020018    2.884626
     55          6           0       -8.492453   -2.948285    4.079887
     56          6           0       -8.612618   -0.540487    3.191277
     57          6           0       -9.910472    0.187110    2.677498
     58          6           0       -9.632647    1.310552    1.646003
     59          6           0      -10.557283    1.374558    0.417355
     60          6           0      -10.087379    2.178646   -0.799452
     61          6           0      -11.957953    1.933684    0.876298
     62          6           0      -13.117281    1.556863   -0.033984
     63          6           0      -13.841944    2.801018   -0.661169
     64          6           0      -14.380448    2.412792   -2.023354
     65          6           0      -13.376869    2.167711   -3.162498
     66          6           0      -15.561453    3.374674   -2.371570
     67          1           0        0.796917    1.931197   -0.304016
     68          1           0        6.444007    5.197321   -0.171528
     69          1           0        9.654991   -0.266558    0.140618
     70          1           0        1.592523   -2.637486   -0.849473
     71          1           0        0.163580   -0.336714    0.374251
     72          1           0        0.547291    0.538108   -2.146796
     73          1           0       -0.864376   -0.503817   -1.635261
     74          1           0        0.386223   -1.264630   -2.345620
     75          1           0        0.708188   -2.125238    1.917420
     76          1           0        2.038516   -3.244594    1.759734
     77          1           0       -0.327961   -4.059490    1.859455
     78          1           0        0.844561   -4.829142    0.864014
     79          1           0        0.901638    5.332635   -1.077014
     80          1           0        0.849828    5.432673    0.768752
     81          1           0        0.289837    4.014290   -0.030360
     82          1           0        2.126632    7.251939    1.199924
     83          1           0        1.978711    7.385935   -0.555097
     84          1           0        2.980356    8.503682    0.366170
     85          1           0        8.953027    4.521902    0.169863
     86          1           0       10.154536    2.100440   -0.766463
     87          1           0        9.250440    3.290928   -2.462634
     88          1           0        9.105572    4.957924   -2.209887
     89          1           0        7.657864    4.119310   -2.409916
     90          1           0       10.757273    3.634354    1.136094
     91          1           0       11.205377    1.937972    1.173277
     92          1           0        8.505232    2.386353    2.442816
     93          1           0        9.755065    3.397186    3.142895
     94          1           0        9.988064    1.772581    3.286393
     95          1           0        9.812011   -2.530278   -0.902938
     96          1           0        9.015339   -4.100940   -0.757121
     97          1           0        9.592408   -3.416841    0.692368
     98          1           0        4.162855   -4.364186    0.987645
     99          1           0        2.481499   -7.501383   -1.446364
    100          1           0        1.983805   -5.923203   -2.303529
    101          1           0        1.215299   -6.553572   -0.829538
    102          1           0       -3.295765   -4.076995   -1.077107
    103          1           0       -2.570009   -2.681808   -1.830352
    104          1           0       -3.684516   -1.553997    0.506038
    105          1           0       -6.005861   -3.892770   -1.923141
    106          1           0       -4.801835   -3.019994   -2.656703
    107          1           0       -6.431974   -2.286637   -2.523904
    108          1           0       -6.762647   -0.784203   -1.113884
    109          1           0       -5.808807   -0.719180    0.464100
    110          1           0       -7.596490   -3.056694   -0.044574
    111          1           0       -8.358085   -1.522295    0.157196
    112          1           0       -6.249445   -1.848982    2.393182
    113          1           0       -6.992496   -3.293394    1.979071
    114          1           0       -9.317690   -2.288108    2.344788
    115          1           0       -7.590573   -3.554304    4.169438
    116          1           0       -9.356332   -3.609302    4.136345
    117          1           0       -8.416819   -2.315502    4.964393
    118          1           0       -7.749364   -0.061274    2.728985
    119          1           0       -8.579463   -0.408843    4.272554
    120          1           0      -10.400316    0.689158    3.511227
    121          1           0      -10.544725   -0.550869    2.185874
    122          1           0       -8.614526    1.336675    1.258606
    123          1           0       -9.664530    2.283655    2.138203
    124          1           0      -10.616547    0.354333    0.039919
    125          1           0      -10.691956    3.069590   -0.965188
    126          1           0      -10.046318    1.510200   -1.659638
    127          1           0       -9.072242    2.535515   -0.628384
    128          1           0      -11.771076    2.992718    1.052506
    129          1           0      -12.172339    1.633840    1.902181
    130          1           0      -13.914352    1.184426    0.609592
    131          1           0      -12.831801    0.783890   -0.747629
    132          1           0      -13.132801    3.625447   -0.738778
    133          1           0      -14.595126    3.013796    0.095963
    134          1           0      -14.754906    1.391265   -1.967259
    135          1           0      -13.358753    1.158800   -3.573628
    136          1           0      -12.450191    2.454369   -2.665806
    137          1           0      -13.402567    2.860147   -4.003812
    138          1           0      -15.363694    4.357467   -1.944445
    139          1           0      -16.453330    2.911089   -1.950089
    140          1           0      -15.522022    3.371762   -3.461421
 ---------------------------------------------------------------------

 SCF Done:  E(RPBE1PBE) =  -3005.36752744     A.U. after   16 cycles

 Excitation energies and oscillator strengths:

 Excited State   1:      Singlet-A      1.8511 eV  669.80 nm  f=0.3514  <S**2>=0.000
     245 -> 248       -0.17438
     246 -> 247        0.69146
 This state for optimization and/or second-order correction.
 Total Energy, E(TD-HF/TD-DFT) =  -3005.29950207
 Copying the excited state density for this state as the 1-particle RhoCI density.

 Excited State   2:      Singlet-A      2.2659 eV  547.17 nm  f=0.0678  <S**2>=0.000
     245 -> 247        0.63298
     246 -> 248        0.30569

 Excited State   3:      Singlet-A      3.0879 eV  401.51 nm  f=0.0029  <S**2>=0.000
     242 -> 247        0.56227
     242 -> 249       -0.16050
     243 -> 247       -0.34412

 Excited State   4:      Singlet-A      3.1145 eV  398.09 nm  f=0.0068  <S**2>=0.000
     244 -> 247        0.64966
     244 -> 249        0.20554

 Excited State   5:      Singlet-A      3.2011 eV  387.32 nm  f=0.3246  <S**2>=0.000
     242 -> 247       -0.10613
     243 -> 247       -0.29229
     244 -> 247        0.10224
     245 -> 247       -0.23164
     246 -> 248        0.54688

 The electronic state is 1-A.
 Alpha  occ. eigenvalues --  -46.91750 -19.27393 -19.24204 -19.21462 -19.19175
 Alpha  occ. eigenvalues --  -19.18932 -19.18691 -14.41990 -14.41020 -14.39712
 Alpha  occ. eigenvalues --  -14.39267 -10.37988 -10.35592 -10.32503 -10.31454
 Alpha  occ. eigenvalues --  -10.30351 -10.29199 -10.29007 -10.28839 -10.28638
 Alpha  occ. eigenvalues --  -10.28283 -10.27924 -10.27699 -10.27490 -10.26999
 Alpha  occ. eigenvalues --  -10.26608 -10.26396 -10.26059 -10.26013 -10.25853
 Alpha  occ. eigenvalues --  -10.25813 -10.25391 -10.25342 -10.25158 -10.25094
 Alpha  occ. eigenvalues --  -10.24969 -10.24914 -10.24732 -10.24375 -10.23997
 Alpha  occ. eigenvalues --  -10.23915 -10.23868 -10.23787 -10.23763 -10.23468
 Alpha  occ. eigenvalues --  -10.23373 -10.23336 -10.23254 -10.23155 -10.23104
 Alpha  occ. eigenvalues --  -10.23080 -10.23010 -10.22993 -10.22974 -10.22851
 Alpha  occ. eigenvalues --  -10.22352 -10.22294 -10.22247 -10.22161 -10.22137
 Alpha  occ. eigenvalues --  -10.22076 -10.22063 -10.22007 -10.21858 -10.21822
 Alpha  occ. eigenvalues --  -10.21607  -3.13968  -1.86821  -1.86315  -1.86229
 Alpha  occ. eigenvalues --   -1.12584  -1.09290  -1.04790  -1.03006  -1.02787
 Alpha  occ. eigenvalues --   -1.00998  -0.99932  -0.99106  -0.97619  -0.95967
 Alpha  occ. eigenvalues --   -0.87267  -0.86127  -0.84565  -0.84244  -0.83618
 Alpha  occ. eigenvalues --   -0.83368  -0.82043  -0.81983  -0.81706  -0.81389
 Alpha  occ. eigenvalues --   -0.81037  -0.80487  -0.79050  -0.78131  -0.77460
 Alpha  occ. eigenvalues --   -0.77081  -0.75788  -0.75440  -0.75223  -0.74707
 Alpha  occ. eigenvalues --   -0.73980  -0.72797  -0.72513  -0.71238  -0.70516
 Alpha  occ. eigenvalues --   -0.70239  -0.69872  -0.69530  -0.69273  -0.69009
 Alpha  occ. eigenvalues --   -0.68312  -0.67211  -0.66416  -0.65808  -0.64095
 Alpha  occ. eigenvalues --   -0.63607  -0.63091  -0.62494  -0.61623  -0.60741
 Alpha  occ. eigenvalues --   -0.60143  -0.59603  -0.59469  -0.58935  -0.58717
 Alpha  occ. eigenvalues --   -0.57992  -0.57639  -0.56573  -0.55798  -0.55240
 Alpha  occ. eigenvalues --   -0.54536  -0.54270  -0.53883  -0.53346  -0.52335
 Alpha  occ. eigenvalues --   -0.51841  -0.51480  -0.51252  -0.50617  -0.50526
 Alpha  occ. eigenvalues --   -0.49581  -0.49480  -0.49347  -0.49328  -0.48871
 Alpha  occ. eigenvalues --   -0.48669  -0.48418  -0.48310  -0.47883  -0.47363
 Alpha  occ. eigenvalues --   -0.47018  -0.46975  -0.46921  -0.46631  -0.46168
 Alpha  occ. eigenvalues --   -0.45940  -0.45931  -0.45858  -0.45490  -0.45423
 Alpha  occ. eigenvalues --   -0.45155  -0.44740  -0.44566  -0.44268  -0.44208
 Alpha  occ. eigenvalues --   -0.44113  -0.43835  -0.43616  -0.43556  -0.43403
 Alpha  occ. eigenvalues --   -0.43233  -0.42757  -0.42723  -0.42601  -0.42523
 Alpha  occ. eigenvalues --   -0.42344  -0.42219  -0.42042  -0.41748  -0.41674
 Alpha  occ. eigenvalues --   -0.41389  -0.41136  -0.40884  -0.40795  -0.40551
 Alpha  occ. eigenvalues --   -0.40350  -0.40084  -0.39934  -0.39856  -0.39530
 Alpha  occ. eigenvalues --   -0.39473  -0.39069  -0.38965  -0.38820  -0.38743
 Alpha  occ. eigenvalues --   -0.38569  -0.38477  -0.38346  -0.38189  -0.37838
 Alpha  occ. eigenvalues --   -0.37585  -0.37526  -0.37381  -0.36879  -0.36674
 Alpha  occ. eigenvalues --   -0.36567  -0.36403  -0.36387  -0.36049  -0.35970
 Alpha  occ. eigenvalues --   -0.35744  -0.35711  -0.35388  -0.34989  -0.34877
 Alpha  occ. eigenvalues --   -0.34633  -0.34438  -0.34319  -0.34201  -0.33786
 Alpha  occ. eigenvalues --   -0.33313  -0.33014  -0.32730  -0.32631  -0.32429
 Alpha  occ. eigenvalues --   -0.32022  -0.31971  -0.31765  -0.31385  -0.31099
 Alpha  occ. eigenvalues --   -0.30983  -0.30174  -0.30090  -0.29706  -0.29613
 Alpha  occ. eigenvalues --   -0.28960  -0.28659  -0.28083  -0.26860  -0.26252
 Alpha  occ. eigenvalues --   -0.26045  -0.25900  -0.25790  -0.25366  -0.21023
 Alpha  occ. eigenvalues --   -0.18487
 Alpha virt. eigenvalues --   -0.10789  -0.05541  -0.04383  -0.02245  -0.02140
 Alpha virt. eigenvalues --    0.00595   0.00703   0.01400   0.01650   0.02836
 Alpha virt. eigenvalues --    0.03972   0.04867   0.04918   0.05521   0.05812

 Mulliken charges:
               1
     1  Mg   0.995235
     2  C   -0.028126
     3  C   -0.089961
     4  C   -0.050707
     5  C   -0.075263
     6  N   -0.361047
     7  C    0.026903
     8  C   -0.072705
     9  C   -0.148239
    10  C    0.076361
    11  C   -0.017611
    12  C    0.016676
    13  C   -0.004874
    14  C    0.252010
    15  O   -0.291080
    16  O   -0.356081
    17  N   -0.491233
    18  C    0.195314
    19  C   -0.187233
    20  C   -0.045734
    21  C    0.185362
    22  C    0.062542
    23  C    0.026228
    24  O   -0.237847
    25  C   -0.041226
    26  N   -0.402417
    27  C    0.068445
    28  C   -0.099930
    29  C   -0.097038
    30  C    0.074022
    31  C   -0.006002
    32  C   -0.031357
    33  C   -0.083268
    34  N   -0.507817
    35  C    0.167535
    36  C   -0.194356
    37  C   -0.038886
    38  C    0.169669
    39  C    0.076716
    40  C    0.135606
    41  O   -0.240725
    42  C   -0.119537
    43  C    0.298522
    44  O   -0.264206
    45  O   -0.386128
    46  C    0.130828
    47  C    0.228429
    48  C   -0.136487
    49  C   -0.199211
    50  C    0.005201
    51  C   -0.008618
    52  C   -0.032230
    53  C   -0.000641
    54  C   -0.227000
    55  C    0.013083
    56  C    0.027596
    57  C   -0.024285
    58  C   -0.017778
    59  C   -0.249006
    60  C    0.012414
    61  C   -0.022622
    62  C   -0.025841
    63  C   -0.011821
    64  C   -0.273844
    65  C   -0.019311
    66  C    0.006687
    67  H    0.005280
    68  H    0.026724
    69  H    0.002635
    70  H    0.086329
    71  H    0.050159
    72  H    0.058199
    73  H    0.040127
    74  H    0.057096
    75  H    0.040086
    76  H    0.053176
    77  H    0.055279
    78  H    0.064528
    79  H    0.075414
    80  H    0.058716
    81  H    0.042096
    82  H    0.055526
    83  H    0.054905
    84  H    0.051107
    85  H    0.052510
    86  H    0.034048
    87  H    0.038157
    88  H    0.037849
    89  H    0.057155
    90  H    0.040934
    91  H    0.037674
    92  H    0.069494
    93  H    0.027220
    94  H    0.039816
    95  H    0.051040
    96  H    0.056552
    97  H    0.055381
    98  H    0.080475
    99  H    0.055969
   100  H    0.076794
   101  H    0.039581
   102  H    0.059487
   103  H    0.060344
   104  H    0.024857
   105  H    0.050871
   106  H    0.030802
   107  H    0.044330
   108  H    0.041118
   109  H    0.024270
   110  H    0.031926
   111  H    0.035840
   112  H    0.034868
   113  H    0.020573
   114  H    0.025339
   115  H    0.020146
   116  H    0.046577
   117  H    0.016058
   118  H    0.027152
   119  H    0.019812
   120  H    0.039754
   121  H    0.036189
   122  H    0.013117
   123  H    0.014458
   124  H    0.026249
   125  H    0.041589
   126  H    0.040622
   127  H    0.019598
   128  H    0.017058
   129  H    0.012364
   130  H    0.028853
   131  H    0.034988
   132  H    0.032165
   133  H    0.032711
   134  H    0.029080
   135  H    0.046351
   136  H    0.021020
   137  H    0.027616
   138  H    0.040691
   139  H    0.043995
   140  H    0.027084
 Sum of Mulliken charges =  -0.00000

 Dipole moment (field-independent basis, Debye):
    X=             -5.6284    Y=              2.2620    Z=              2.7031  Tot=              6.6410
 Quadrupole moment (field-independent basis, Debye-Ang):
   XX=           -380.9110   YY=           -431.6386   ZZ=           -407.5939
   XY=             27.2907   XZ=              7.0317   YZ=            -13.3343

 Normal termination of Gaussian 16 at Thu May  5 13:20:21 2022.
