 Gaussian 16, Revision A.03,
 Gaussian 16:  ES64L-G16RevA.03 25-Dec-2016

 --------------------------------
 #p wB97XD/Def2SVP td=(nstates=5)
 --------------------------------

 ----------------------------------------------------
 step_901_chromophore_24 TDDFT with wB97XD functional
 ----------------------------------------------------
 Symbolic Z-matrix:
 Charge =  0 Multiplicity = 1

                         Standard orientation:
 ---------------------------------------------------------------------
 Center     Atomic      Atomic             Coordinates (Angstroms)
 Number     Number       Type             X           Y           Z
 ---------------------------------------------------------------------
      1         12           0        5.243489    0.871818    0.206459
      2          6           0        4.315931   -2.417471    0.131020
      3          6           0        1.867653    1.773775   -0.155897
      4          6           0        6.124718    4.158695   -0.068051
      5          6           0        8.588754   -0.036706    0.189584
      6          7           0        3.325444   -0.226158    0.048808
      7          6           0        3.140135   -1.609742    0.072972
      8          6           0        1.673839   -1.972636    0.010590
      9          6           0        0.983471   -0.567774   -0.306751
     10          6           0        2.170553    0.359152   -0.099516
     11          6           0        0.219404   -0.401530   -1.702620
     12          6           0        1.199602   -2.804923    1.220324
     13          6           0        0.197011   -3.953796    0.910070
     14          6           0       -0.690225   -3.842932   -0.273816
     15          8           0       -0.428144   -4.256292   -1.429613
     16          8           0       -1.788726   -3.098070    0.051252
     17          7           0        4.148842    2.703582    0.033525
     18          6           0        2.777148    2.871878   -0.091774
     19          6           0        2.465083    4.337886   -0.062945
     20          6           0        3.721001    5.052523    0.032335
     21          6           0        4.767295    3.958936    0.006985
     22          6           0        1.013668    4.824537   -0.119806
     23          6           0        3.921413    6.488472    0.195061
     24          8           0        5.027148    7.006613    0.278996
     25          6           0        2.673785    7.461364    0.280339
     26          7           0        7.126194    1.953627    0.235881
     27          6           0        7.178376    3.260515   -0.080146
     28          6           0        8.595314    3.660431   -0.394130
     29          6           0        9.429483    2.376431   -0.000909
     30          6           0        8.362488    1.310925    0.214790
     31          6           0        8.631865    4.015958   -1.932888
     32          6           0       10.358434    2.623503    1.215461
     33          6           0        9.583261    2.485950    2.568977
     34          7           0        6.273460   -0.792867    0.122187
     35          6           0        7.624590   -1.026999    0.135180
     36          6           0        7.854692   -2.470980   -0.045490
     37          6           0        6.591780   -3.026407   -0.061496
     38          6           0        5.666348   -1.950599    0.123561
     39          6           0        9.165347   -3.137840   -0.270868
     40          6           0        5.945091   -4.285632   -0.153218
     41          8           0        6.298433   -5.464736   -0.355283
     42          6           0        4.461122   -3.917926    0.039198
     43          6           0        3.736695   -4.553580   -1.062440
     44          8           0        3.624392   -4.131206   -2.216090
     45          8           0        3.070624   -5.659142   -0.579769
     46          6           0        2.156720   -6.464117   -1.372112
     47          6           0       -2.884356   -3.089513   -0.870246
     48          6           0       -3.954109   -2.137682   -0.374521
     49          6           0       -5.212509   -2.163763   -0.765279
     50          6           0       -5.663436   -2.861954   -2.007390
     51          6           0       -6.351008   -1.324784   -0.262739
     52          6           0       -7.474972   -2.090838    0.446447
     53          6           0       -7.198495   -2.224304    2.009765
     54          6           0       -8.409844   -2.020018    2.884626
     55          6           0       -8.492453   -2.948285    4.079887
     56          6           0       -8.612618   -0.540487    3.191277
     57          6           0       -9.910472    0.187110    2.677498
     58          6           0       -9.632647    1.310552    1.646003
     59          6           0      -10.557283    1.374558    0.417355
     60          6           0      -10.087379    2.178646   -0.799452
     61          6           0      -11.957953    1.933684    0.876298
     62          6           0      -13.117281    1.556863   -0.033984
     63          6           0      -13.841944    2.801018   -0.661169
     64          6           0      -14.380448    2.412792   -2.023354
     65          6           0      -13.376869    2.167711   -3.162498
     66          6           0      -15.561453    3.374674   -2.371570
     67          1           0        0.796917    1.931197   -0.304016
     68          1           0        6.444007    5.197321   -0.171528
     69          1           0        9.654991   -0.266558    0.140618
     70          1           0        1.592523   -2.637486   -0.849473
     71          1           0        0.163580   -0.336714    0.374251
     72          1           0        0.547291    0.538108   -2.146796
     73          1           0       -0.864376   -0.503817   -1.635261
     74          1           0        0.386223   -1.264630   -2.345620
     75          1           0        0.708188   -2.125238    1.917420
     76          1           0        2.038516   -3.244594    1.759734
     77          1           0       -0.327961   -4.059490    1.859455
     78          1           0        0.844561   -4.829142    0.864014
     79          1           0        0.901638    5.332635   -1.077014
     80          1           0        0.849828    5.432673    0.768752
     81          1           0        0.289837    4.014290   -0.030360
     82          1           0        2.126632    7.251939    1.199924
     83          1           0        1.978711    7.385935   -0.555097
     84          1           0        2.980356    8.503682    0.366170
     85          1           0        8.953027    4.521902    0.169863
     86          1           0       10.154536    2.100440   -0.766463
     87          1           0        9.250440    3.290928   -2.462634
     88          1           0        9.105572    4.957924   -2.209887
     89          1           0        7.657864    4.119310   -2.409916
     90          1           0       10.757273    3.634354    1.136094
     91          1           0       11.205377    1.937972    1.173277
     92          1           0        8.505232    2.386353    2.442816
     93          1           0        9.755065    3.397186    3.142895
     94          1           0        9.988064    1.772581    3.286393
     95          1           0        9.812011   -2.530278   -0.902938
     96          1           0        9.015339   -4.100940   -0.757121
     97          1           0        9.592408   -3.416841    0.692368
     98          1           0        4.162855   -4.364186    0.987645
     99          1           0        2.481499   -7.501383   -1.446364
    100          1           0        1.983805   -5.923203   -2.303529
    101          1           0        1.215299   -6.553572   -0.829538
    102          1           0       -3.295765   -4.076995   -1.077107
    103          1           0       -2.570009   -2.681808   -1.830352
    104          1           0       -3.684516   -1.553997    0.506038
    105          1           0       -6.005861   -3.892770   -1.923141
    106          1           0       -4.801835   -3.019994   -2.656703
    107          1           0       -6.431974   -2.286637   -2.523904
    108          1           0       -6.762647   -0.784203   -1.113884
    109          1           0       -5.808807   -0.719180    0.464100
    110          1           0       -7.596490   -3.056694   -0.044574
    111          1           0       -8.358085   -1.522295    0.157196
    112          1           0       -6.249445   -1.848982    2.393182
    113          1           0       -6.992496   -3.293394    1.979071
    114          1           0       -9.317690   -2.288108    2.344788
    115          1           0       -7.590573   -3.554304    4.169438
    116          1           0       -9.356332   -3.609302    4.136345
    117          1           0       -8.416819   -2.315502    4.964393
    118          1           0       -7.749364   -0.061274    2.728985
    119          1           0       -8.579463   -0.408843    4.272554
    120          1           0      -10.400316    0.689158    3.511227
    121          1           0      -10.544725   -0.550869    2.185874
    122          1           0       -8.614526    1.336675    1.258606
    123          1           0       -9.664530    2.283655    2.138203
    124          1           0      -10.616547    0.354333    0.039919
    125          1           0      -10.691956    3.069590   -0.965188
    126          1           0      -10.046318    1.510200   -1.659638
    127          1           0       -9.072242    2.535515   -0.628384
    128          1           0      -11.771076    2.992718    1.052506
    129          1           0      -12.172339    1.633840    1.902181
    130          1           0      -13.914352    1.184426    0.609592
    131          1           0      -12.831801    0.783890   -0.747629
    132          1           0      -13.132801    3.625447   -0.738778
    133          1           0      -14.595126    3.013796    0.095963
    134          1           0      -14.754906    1.391265   -1.967259
    135          1           0      -13.358753    1.158800   -3.573628
    136          1           0      -12.450191    2.454369   -2.665806
    137          1           0      -13.402567    2.860147   -4.003812
    138          1           0      -15.363694    4.357467   -1.944445
    139          1           0      -16.453330    2.911089   -1.950089
    140          1           0      -15.522022    3.371762   -3.461421
 ---------------------------------------------------------------------

 SCF Done:  E(RwB97XD) =  -3007.88113371     A.U. after   19 cycles

 Excitation energies and oscillator strengths:

 Excited State   1:      Singlet-A      1.7532 eV  707.18 nm  f=0.3608  <S**2>=0.000
     245 -> 248        0.17810
     246 -> 247        0.68297
     245 <- 248        0.10710
 This state for optimization and/or second-order correction.
 Total Energy, E(TD-HF/TD-DFT) =  -3007.81670393
 Copying the excited state density for this state as the 1-particle RhoCI density.

 Excited State   2:      Singlet-A      2.2428 eV  552.81 nm  f=0.0611  <S**2>=0.000
     245 -> 247        0.61196
     246 -> 248       -0.33541

 Excited State   3:      Singlet-A      3.3859 eV  366.18 nm  f=0.5539  <S**2>=0.000
     239 -> 247        0.13510
     242 -> 247        0.26041
     245 -> 247        0.27355
     246 -> 248        0.55855
     245 <- 247       -0.10022

 Excited State   4:      Singlet-A      3.5242 eV  351.81 nm  f=0.0011  <S**2>=0.000
     239 -> 247        0.16081
     239 -> 249        0.12147
     240 -> 247        0.52118
     240 -> 248       -0.13326
     240 -> 249        0.31370
     240 -> 250        0.18113

 Excited State   5:      Singlet-A      3.6830 eV  336.63 nm  f=0.1709  <S**2>=0.000
     239 -> 247       -0.18994
     242 -> 247       -0.20229
     242 -> 249       -0.10352
     243 -> 247        0.18301
     244 -> 247        0.43090
     244 -> 249       -0.24639
     244 -> 250        0.18719
     245 -> 247        0.15204
     246 -> 248        0.17573

 The electronic state is 1-A.
 Alpha  occ. eigenvalues --  -46.94666 -19.31936 -19.28617 -19.26080 -19.24400
 Alpha  occ. eigenvalues --  -19.23482 -19.23084 -14.47095 -14.46053 -14.44823
 Alpha  occ. eigenvalues --  -14.43997 -10.44745 -10.42288 -10.39760 -10.37980
 Alpha  occ. eigenvalues --  -10.36848 -10.35788 -10.35695 -10.35493 -10.35190
 Alpha  occ. eigenvalues --  -10.35074 -10.34936 -10.33899 -10.33520 -10.32746
 Alpha  occ. eigenvalues --  -10.32725 -10.32641 -10.32463 -10.32240 -10.32176
 Alpha  occ. eigenvalues --  -10.32124 -10.32097 -10.31689 -10.31666 -10.31632
 Alpha  occ. eigenvalues --  -10.30988 -10.30919 -10.30827 -10.30745 -10.30396
 Alpha  occ. eigenvalues --  -10.30306 -10.30269 -10.30180 -10.30177 -10.30039
 Alpha  occ. eigenvalues --  -10.29833 -10.29730 -10.29688 -10.29551 -10.29509
 Alpha  occ. eigenvalues --  -10.29484 -10.29412 -10.29296 -10.29148 -10.29051
 Alpha  occ. eigenvalues --  -10.28742 -10.28676 -10.28640 -10.28556 -10.28478
 Alpha  occ. eigenvalues --  -10.28458 -10.28373 -10.28309 -10.28257 -10.28054
 Alpha  occ. eigenvalues --  -10.27932  -3.20732  -1.94337  -1.93830  -1.93739
 Alpha  occ. eigenvalues --   -1.19938  -1.16545  -1.12674  -1.10321  -1.09917
 Alpha  occ. eigenvalues --   -1.08217  -1.07108  -1.06287  -1.05024  -1.03703
 Alpha  occ. eigenvalues --   -0.94621  -0.93805  -0.92198  -0.91883  -0.91292
 Alpha  occ. eigenvalues --   -0.90978  -0.89721  -0.89520  -0.89456  -0.89241
 Alpha  occ. eigenvalues --   -0.88527  -0.88113  -0.86691  -0.85684  -0.85098
 Alpha  occ. eigenvalues --   -0.84739  -0.83406  -0.83145  -0.82926  -0.82395
 Alpha  occ. eigenvalues --   -0.81812  -0.80606  -0.80238  -0.78749  -0.78178
 Alpha  occ. eigenvalues --   -0.77735  -0.77593  -0.77227  -0.76841  -0.76645
 Alpha  occ. eigenvalues --   -0.75991  -0.74654  -0.74020  -0.73376  -0.71608
 Alpha  occ. eigenvalues --   -0.71221  -0.70685  -0.70107  -0.69217  -0.68241
 Alpha  occ. eigenvalues --   -0.67807  -0.67070  -0.66980  -0.66323  -0.66112
 Alpha  occ. eigenvalues --   -0.65705  -0.65314  -0.64217  -0.63095  -0.62675
 Alpha  occ. eigenvalues --   -0.62143  -0.61648  -0.61251  -0.60656  -0.59692
 Alpha  occ. eigenvalues --   -0.59239  -0.58936  -0.58723  -0.57991  -0.57895
 Alpha  occ. eigenvalues --   -0.57043  -0.56866  -0.56815  -0.56706  -0.56312
 Alpha  occ. eigenvalues --   -0.56087  -0.55798  -0.55613  -0.55291  -0.55016
 Alpha  occ. eigenvalues --   -0.54802  -0.54430  -0.54142  -0.53915  -0.53441
 Alpha  occ. eigenvalues --   -0.53319  -0.53189  -0.53047  -0.52869  -0.52779
 Alpha  occ. eigenvalues --   -0.52321  -0.52096  -0.52018  -0.51891  -0.51663
 Alpha  occ. eigenvalues --   -0.51543  -0.51029  -0.50924  -0.50825  -0.50734
 Alpha  occ. eigenvalues --   -0.50590  -0.50218  -0.49989  -0.49942  -0.49789
 Alpha  occ. eigenvalues --   -0.49648  -0.49490  -0.49331  -0.48941  -0.48815
 Alpha  occ. eigenvalues --   -0.48686  -0.48284  -0.48118  -0.48086  -0.47762
 Alpha  occ. eigenvalues --   -0.47589  -0.47172  -0.47151  -0.46907  -0.46712
 Alpha  occ. eigenvalues --   -0.46620  -0.46303  -0.46064  -0.46000  -0.45960
 Alpha  occ. eigenvalues --   -0.45657  -0.45619  -0.45471  -0.45247  -0.45091
 Alpha  occ. eigenvalues --   -0.44864  -0.44787  -0.44459  -0.43942  -0.43742
 Alpha  occ. eigenvalues --   -0.43627  -0.43538  -0.43354  -0.43114  -0.43052
 Alpha  occ. eigenvalues --   -0.42818  -0.42682  -0.42398  -0.42071  -0.41965
 Alpha  occ. eigenvalues --   -0.41583  -0.41379  -0.41315  -0.41304  -0.40811
 Alpha  occ. eigenvalues --   -0.40263  -0.40045  -0.39663  -0.39544  -0.39498
 Alpha  occ. eigenvalues --   -0.38996  -0.38929  -0.38792  -0.38417  -0.38102
 Alpha  occ. eigenvalues --   -0.38034  -0.37208  -0.37102  -0.36671  -0.36377
 Alpha  occ. eigenvalues --   -0.35655  -0.35528  -0.35032  -0.33637  -0.33407
 Alpha  occ. eigenvalues --   -0.32812  -0.32648  -0.32299  -0.32123  -0.26163
 Alpha  occ. eigenvalues --   -0.22686
 Alpha virt. eigenvalues --   -0.06470  -0.00105   0.01831   0.04256   0.04719
 Alpha virt. eigenvalues --    0.06651   0.07283   0.08127   0.08380   0.08979
 Alpha virt. eigenvalues --    0.10660   0.11583   0.11864   0.12241   0.12432

 Mulliken charges:
               1
     1  Mg   0.984186
     2  C   -0.028932
     3  C   -0.112635
     4  C   -0.078430
     5  C   -0.092007
     6  N   -0.324217
     7  C   -0.003340
     8  C   -0.043195
     9  C   -0.129488
    10  C    0.067860
    11  C   -0.005649
    12  C    0.023740
    13  C    0.017610
    14  C    0.236777
    15  O   -0.284986
    16  O   -0.352779
    17  N   -0.463813
    18  C    0.195244
    19  C   -0.175367
    20  C   -0.040002
    21  C    0.185785
    22  C    0.075914
    23  C    0.022733
    24  O   -0.229608
    25  C   -0.027965
    26  N   -0.369638
    27  C    0.066841
    28  C   -0.079812
    29  C   -0.068558
    30  C    0.057161
    31  C    0.002046
    32  C   -0.020164
    33  C   -0.063095
    34  N   -0.463639
    35  C    0.154763
    36  C   -0.195918
    37  C   -0.037825
    38  C    0.147673
    39  C    0.085432
    40  C    0.120661
    41  O   -0.233077
    42  C   -0.083058
    43  C    0.272247
    44  O   -0.257319
    45  O   -0.382818
    46  C    0.145970
    47  C    0.239221
    48  C   -0.141578
    49  C   -0.192617
    50  C    0.014713
    51  C    0.023204
    52  C   -0.019268
    53  C    0.018389
    54  C   -0.197664
    55  C    0.024722
    56  C    0.041885
    57  C   -0.006905
    58  C   -0.000458
    59  C   -0.215226
    60  C    0.022455
    61  C   -0.006390
    62  C   -0.009653
    63  C    0.004458
    64  C   -0.244740
    65  C   -0.003477
    66  C    0.021659
    67  H   -0.003038
    68  H    0.022997
    69  H   -0.002119
    70  H    0.065595
    71  H    0.041240
    72  H    0.051479
    73  H    0.034177
    74  H    0.053647
    75  H    0.031893
    76  H    0.045378
    77  H    0.050788
    78  H    0.052660
    79  H    0.072713
    80  H    0.054375
    81  H    0.040756
    82  H    0.050279
    83  H    0.050015
    84  H    0.051452
    85  H    0.044458
    86  H    0.024116
    87  H    0.033476
    88  H    0.033000
    89  H    0.049732
    90  H    0.031426
    91  H    0.031171
    92  H    0.056583
    93  H    0.020346
    94  H    0.034827
    95  H    0.044383
    96  H    0.051500
    97  H    0.048807
    98  H    0.072628
    99  H    0.052509
   100  H    0.074406
   101  H    0.032900
   102  H    0.054831
   103  H    0.053910
   104  H    0.021813
   105  H    0.046293
   106  H    0.024178
   107  H    0.039706
   108  H    0.033323
   109  H    0.011272
   110  H    0.023934
   111  H    0.024436
   112  H    0.027296
   113  H    0.010277
   114  H    0.011251
   115  H    0.013994
   116  H    0.042616
   117  H    0.008691
   118  H    0.013316
   119  H    0.011804
   120  H    0.033202
   121  H    0.024288
   122  H    0.000925
   123  H    0.005044
   124  H    0.011524
   125  H    0.032890
   126  H    0.035964
   127  H    0.014347
   128  H    0.005799
   129  H    0.003176
   130  H    0.020958
   131  H    0.024573
   132  H    0.020322
   133  H    0.025679
   134  H    0.016491
   135  H    0.042454
   136  H    0.005240
   137  H    0.022330
   138  H    0.034501
   139  H    0.038369
   140  H    0.020383
 Sum of Mulliken charges =  -0.00000

 Dipole moment (field-independent basis, Debye):
    X=             -6.3146    Y=              3.3185    Z=              2.7053  Tot=              7.6293
 Quadrupole moment (field-independent basis, Debye-Ang):
   XX=           -387.6145   YY=           -427.9600   ZZ=           -407.2438
   XY=             30.9833   XZ=              7.0943   YZ=            -13.6036

 Normal termination of Gaussian 16 at Thu May  5 13:50:30 2022.
