 Gaussian 16, Revision A.03,
 Gaussian 16:  ES64L-G16RevA.03 25-Dec-2016

 --------------------
 #p ZINDO=(nstates=5)
 --------------------

 -----------------------------
 step_901_chromophore_24 ZINDO
 -----------------------------
 Symbolic Z-matrix:
 Charge =  0 Multiplicity = 1

                         Standard orientation:
 ---------------------------------------------------------------------
 Center     Atomic      Atomic             Coordinates (Angstroms)
 Number     Number       Type             X           Y           Z
 ---------------------------------------------------------------------
      1         12           0        5.243489    0.871818    0.206459
      2          6           0        4.315931   -2.417471    0.131020
      3          6           0        1.867653    1.773775   -0.155897
      4          6           0        6.124718    4.158695   -0.068051
      5          6           0        8.588754   -0.036706    0.189584
      6          7           0        3.325444   -0.226158    0.048808
      7          6           0        3.140135   -1.609742    0.072972
      8          6           0        1.673839   -1.972636    0.010590
      9          6           0        0.983471   -0.567774   -0.306751
     10          6           0        2.170553    0.359152   -0.099516
     11          6           0        0.219404   -0.401530   -1.702620
     12          6           0        1.199602   -2.804923    1.220324
     13          6           0        0.197011   -3.953796    0.910070
     14          6           0       -0.690225   -3.842932   -0.273816
     15          8           0       -0.428144   -4.256292   -1.429613
     16          8           0       -1.788726   -3.098070    0.051252
     17          7           0        4.148842    2.703582    0.033525
     18          6           0        2.777148    2.871878   -0.091774
     19          6           0        2.465083    4.337886   -0.062945
     20          6           0        3.721001    5.052523    0.032335
     21          6           0        4.767295    3.958936    0.006985
     22          6           0        1.013668    4.824537   -0.119806
     23          6           0        3.921413    6.488472    0.195061
     24          8           0        5.027148    7.006613    0.278996
     25          6           0        2.673785    7.461364    0.280339
     26          7           0        7.126194    1.953627    0.235881
     27          6           0        7.178376    3.260515   -0.080146
     28          6           0        8.595314    3.660431   -0.394130
     29          6           0        9.429483    2.376431   -0.000909
     30          6           0        8.362488    1.310925    0.214790
     31          6           0        8.631865    4.015958   -1.932888
     32          6           0       10.358434    2.623503    1.215461
     33          6           0        9.583261    2.485950    2.568977
     34          7           0        6.273460   -0.792867    0.122187
     35          6           0        7.624590   -1.026999    0.135180
     36          6           0        7.854692   -2.470980   -0.045490
     37          6           0        6.591780   -3.026407   -0.061496
     38          6           0        5.666348   -1.950599    0.123561
     39          6           0        9.165347   -3.137840   -0.270868
     40          6           0        5.945091   -4.285632   -0.153218
     41          8           0        6.298433   -5.464736   -0.355283
     42          6           0        4.461122   -3.917926    0.039198
     43          6           0        3.736695   -4.553580   -1.062440
     44          8           0        3.624392   -4.131206   -2.216090
     45          8           0        3.070624   -5.659142   -0.579769
     46          6           0        2.156720   -6.464117   -1.372112
     47          6           0       -2.884356   -3.089513   -0.870246
     48          6           0       -3.954109   -2.137682   -0.374521
     49          6           0       -5.212509   -2.163763   -0.765279
     50          6           0       -5.663436   -2.861954   -2.007390
     51          6           0       -6.351008   -1.324784   -0.262739
     52          6           0       -7.474972   -2.090838    0.446447
     53          6           0       -7.198495   -2.224304    2.009765
     54          6           0       -8.409844   -2.020018    2.884626
     55          6           0       -8.492453   -2.948285    4.079887
     56          6           0       -8.612618   -0.540487    3.191277
     57          6           0       -9.910472    0.187110    2.677498
     58          6           0       -9.632647    1.310552    1.646003
     59          6           0      -10.557283    1.374558    0.417355
     60          6           0      -10.087379    2.178646   -0.799452
     61          6           0      -11.957953    1.933684    0.876298
     62          6           0      -13.117281    1.556863   -0.033984
     63          6           0      -13.841944    2.801018   -0.661169
     64          6           0      -14.380448    2.412792   -2.023354
     65          6           0      -13.376869    2.167711   -3.162498
     66          6           0      -15.561453    3.374674   -2.371570
     67          1           0        0.796917    1.931197   -0.304016
     68          1           0        6.444007    5.197321   -0.171528
     69          1           0        9.654991   -0.266558    0.140618
     70          1           0        1.592523   -2.637486   -0.849473
     71          1           0        0.163580   -0.336714    0.374251
     72          1           0        0.547291    0.538108   -2.146796
     73          1           0       -0.864376   -0.503817   -1.635261
     74          1           0        0.386223   -1.264630   -2.345620
     75          1           0        0.708188   -2.125238    1.917420
     76          1           0        2.038516   -3.244594    1.759734
     77          1           0       -0.327961   -4.059490    1.859455
     78          1           0        0.844561   -4.829142    0.864014
     79          1           0        0.901638    5.332635   -1.077014
     80          1           0        0.849828    5.432673    0.768752
     81          1           0        0.289837    4.014290   -0.030360
     82          1           0        2.126632    7.251939    1.199924
     83          1           0        1.978711    7.385935   -0.555097
     84          1           0        2.980356    8.503682    0.366170
     85          1           0        8.953027    4.521902    0.169863
     86          1           0       10.154536    2.100440   -0.766463
     87          1           0        9.250440    3.290928   -2.462634
     88          1           0        9.105572    4.957924   -2.209887
     89          1           0        7.657864    4.119310   -2.409916
     90          1           0       10.757273    3.634354    1.136094
     91          1           0       11.205377    1.937972    1.173277
     92          1           0        8.505232    2.386353    2.442816
     93          1           0        9.755065    3.397186    3.142895
     94          1           0        9.988064    1.772581    3.286393
     95          1           0        9.812011   -2.530278   -0.902938
     96          1           0        9.015339   -4.100940   -0.757121
     97          1           0        9.592408   -3.416841    0.692368
     98          1           0        4.162855   -4.364186    0.987645
     99          1           0        2.481499   -7.501383   -1.446364
    100          1           0        1.983805   -5.923203   -2.303529
    101          1           0        1.215299   -6.553572   -0.829538
    102          1           0       -3.295765   -4.076995   -1.077107
    103          1           0       -2.570009   -2.681808   -1.830352
    104          1           0       -3.684516   -1.553997    0.506038
    105          1           0       -6.005861   -3.892770   -1.923141
    106          1           0       -4.801835   -3.019994   -2.656703
    107          1           0       -6.431974   -2.286637   -2.523904
    108          1           0       -6.762647   -0.784203   -1.113884
    109          1           0       -5.808807   -0.719180    0.464100
    110          1           0       -7.596490   -3.056694   -0.044574
    111          1           0       -8.358085   -1.522295    0.157196
    112          1           0       -6.249445   -1.848982    2.393182
    113          1           0       -6.992496   -3.293394    1.979071
    114          1           0       -9.317690   -2.288108    2.344788
    115          1           0       -7.590573   -3.554304    4.169438
    116          1           0       -9.356332   -3.609302    4.136345
    117          1           0       -8.416819   -2.315502    4.964393
    118          1           0       -7.749364   -0.061274    2.728985
    119          1           0       -8.579463   -0.408843    4.272554
    120          1           0      -10.400316    0.689158    3.511227
    121          1           0      -10.544725   -0.550869    2.185874
    122          1           0       -8.614526    1.336675    1.258606
    123          1           0       -9.664530    2.283655    2.138203
    124          1           0      -10.616547    0.354333    0.039919
    125          1           0      -10.691956    3.069590   -0.965188
    126          1           0      -10.046318    1.510200   -1.659638
    127          1           0       -9.072242    2.535515   -0.628384
    128          1           0      -11.771076    2.992718    1.052506
    129          1           0      -12.172339    1.633840    1.902181
    130          1           0      -13.914352    1.184426    0.609592
    131          1           0      -12.831801    0.783890   -0.747629
    132          1           0      -13.132801    3.625447   -0.738778
    133          1           0      -14.595126    3.013796    0.095963
    134          1           0      -14.754906    1.391265   -1.967259
    135          1           0      -13.358753    1.158800   -3.573628
    136          1           0      -12.450191    2.454369   -2.665806
    137          1           0      -13.402567    2.860147   -4.003812
    138          1           0      -15.363694    4.357467   -1.944445
    139          1           0      -16.453330    2.911089   -1.950089
    140          1           0      -15.522022    3.371762   -3.461421
 ---------------------------------------------------------------------

 SCF Done:  E(RZINDO/S) =  -474.466804289     A.U. after   19 cycles

 Excitation energies and oscillator strengths:

 Excited State   1:      Singlet-A      1.3535 eV  916.03 nm  f=0.5140  <S**2>=0.000
     175 ->178         0.15300
     176 ->177         0.67427
 This state for optimization and/or second-order correction.
 Total Energy, E(CIS/TDA) =  -474.417064495
 Copying the excited state density for this state as the 1-particle RhoCI density.

 Excited State   2:      Singlet-A      1.9675 eV  630.15 nm  f=0.0038  <S**2>=0.000
     175 ->177        -0.48216
     176 ->178         0.48720

 Excited State   3:      Singlet-A      2.8714 eV  431.80 nm  f=0.2953  <S**2>=0.000
     175 ->177        -0.23854
     176 ->178        -0.24013
     176 ->179         0.50802
     176 ->181         0.29341

 Excited State   4:      Singlet-A      2.9161 eV  425.18 nm  f=0.0854  <S**2>=0.000
     167 ->177         0.16796
     167 ->179        -0.20508
     167 ->186        -0.10715
     168 ->177         0.32472
     168 ->179        -0.36200
     168 ->181         0.16890
     168 ->186        -0.18955
     175 ->177         0.12712
     176 ->178         0.13333

 Excited State   5:      Singlet-A      2.9676 eV  417.80 nm  f=0.8137  <S**2>=0.000
     168 ->179         0.11032
     170 ->177        -0.12043
     175 ->177         0.36339
     176 ->178         0.38676
     176 ->179         0.35300

 The electronic state is 1-A.
 Alpha  occ. eigenvalues --   -1.85755  -1.81060  -1.78939  -1.73891  -1.71015
 Alpha  occ. eigenvalues --   -1.69584  -1.66458  -1.63074  -1.58720  -1.57414
 Alpha  occ. eigenvalues --   -1.57089  -1.53531  -1.49671  -1.46439  -1.45192
 Alpha  occ. eigenvalues --   -1.43494  -1.42467  -1.39253  -1.38760  -1.38083
 Alpha  occ. eigenvalues --   -1.36474  -1.34483  -1.33388  -1.31892  -1.29367
 Alpha  occ. eigenvalues --   -1.28499  -1.24995  -1.21934  -1.20650  -1.18612
 Alpha  occ. eigenvalues --   -1.17494  -1.16999  -1.15529  -1.14641  -1.14071
 Alpha  occ. eigenvalues --   -1.12632  -1.11720  -1.10164  -1.05540  -1.04720
 Alpha  occ. eigenvalues --   -1.03487  -1.00951  -0.99675  -0.98012  -0.97385
 Alpha  occ. eigenvalues --   -0.96563  -0.94859  -0.94480  -0.93914  -0.93291
 Alpha  occ. eigenvalues --   -0.90671  -0.89734  -0.89296  -0.87690  -0.86392
 Alpha  occ. eigenvalues --   -0.86072  -0.85860  -0.83188  -0.81917  -0.80739
 Alpha  occ. eigenvalues --   -0.80189  -0.78275  -0.78048  -0.76754  -0.76156
 Alpha  occ. eigenvalues --   -0.75923  -0.75598  -0.75126  -0.74119  -0.73788
 Alpha  occ. eigenvalues --   -0.73022  -0.72283  -0.72174  -0.71591  -0.70519
 Alpha  occ. eigenvalues --   -0.70375  -0.69184  -0.68841  -0.68594  -0.68429
 Alpha  occ. eigenvalues --   -0.67844  -0.67208  -0.66812  -0.66362  -0.65551
 Alpha  occ. eigenvalues --   -0.65468  -0.64613  -0.64403  -0.63760  -0.63209
 Alpha  occ. eigenvalues --   -0.63077  -0.62497  -0.62200  -0.61911  -0.61870
 Alpha  occ. eigenvalues --   -0.61721  -0.61367  -0.61121  -0.60926  -0.60443
 Alpha  occ. eigenvalues --   -0.60089  -0.59924  -0.59397  -0.58679  -0.58422
 Alpha  occ. eigenvalues --   -0.58190  -0.57336  -0.56955  -0.56588  -0.56323
 Alpha  occ. eigenvalues --   -0.56273  -0.55802  -0.55755  -0.54848  -0.54638
 Alpha  occ. eigenvalues --   -0.54495  -0.54125  -0.52992  -0.52914  -0.52600
 Alpha  occ. eigenvalues --   -0.52369  -0.51969  -0.51820  -0.51377  -0.51234
 Alpha  occ. eigenvalues --   -0.50993  -0.50722  -0.50285  -0.50130  -0.50030
 Alpha  occ. eigenvalues --   -0.49867  -0.49658  -0.49422  -0.48919  -0.48642
 Alpha  occ. eigenvalues --   -0.48523  -0.48451  -0.48016  -0.47874  -0.47601
 Alpha  occ. eigenvalues --   -0.47372  -0.46891  -0.46826  -0.46676  -0.46352
 Alpha  occ. eigenvalues --   -0.45989  -0.45819  -0.45539  -0.45234  -0.45067
 Alpha  occ. eigenvalues --   -0.44676  -0.44521  -0.44173  -0.43977  -0.43415
 Alpha  occ. eigenvalues --   -0.43380  -0.43118  -0.42755  -0.42595  -0.42330
 Alpha  occ. eigenvalues --   -0.41522  -0.41393  -0.39707  -0.39331  -0.38780
 Alpha  occ. eigenvalues --   -0.37163  -0.36777  -0.36290  -0.34880  -0.34097
 Alpha  occ. eigenvalues --   -0.33661  -0.33070  -0.32180  -0.31822  -0.26999
 Alpha  occ. eigenvalues --   -0.21444
 Alpha virt. eigenvalues --   -0.07785  -0.02114  -0.01014   0.00776   0.01380
 Alpha virt. eigenvalues --    0.02984   0.03161   0.03973   0.04684   0.04913
 Alpha virt. eigenvalues --    0.05877   0.06565   0.06819   0.07581   0.07939

 Mulliken charges:
               1
     1  Mg   0.426742
     2  C   -0.036749
     3  C   -0.110094
     4  C   -0.070999
     5  C   -0.046337
     6  N   -0.260082
     7  C    0.079201
     8  C    0.010179
     9  C   -0.001796
    10  C    0.191248
    11  C   -0.055919
    12  C   -0.011492
    13  C    0.003995
    14  C    0.480376
    15  O   -0.524056
    16  O   -0.266331
    17  N   -0.352528
    18  C    0.135689
    19  C    0.037058
    20  C   -0.036954
    21  C    0.158398
    22  C   -0.039143
    23  C    0.330923
    24  O   -0.513277
    25  C   -0.035736
    26  N   -0.288278
    27  C    0.198838
    28  C    0.008502
    29  C    0.001193
    30  C    0.075096
    31  C   -0.054686
    32  C   -0.028042
    33  C   -0.063726
    34  N   -0.279784
    35  C    0.048010
    36  C    0.008441
    37  C   -0.064436
    38  C    0.098207
    39  C   -0.038549
    40  C    0.333086
    41  O   -0.545694
    42  C    0.062929
    43  C    0.501117
    44  O   -0.534651
    45  O   -0.286654
    46  C    0.075172
    47  C    0.109244
    48  C   -0.088718
    49  C   -0.003986
    50  C   -0.050824
    51  C   -0.026304
    52  C   -0.030410
    53  C   -0.031279
    54  C   -0.000569
    55  C   -0.057728
    56  C   -0.038682
    57  C   -0.034566
    58  C   -0.035401
    59  C   -0.014850
    60  C   -0.057309
    61  C   -0.036654
    62  C   -0.043635
    63  C   -0.029467
    64  C   -0.015919
    65  C   -0.060894
    66  C   -0.065332
    67  H    0.028302
    68  H    0.041015
    69  H    0.026304
    70  H    0.049077
    71  H    0.028979
    72  H    0.030321
    73  H    0.023200
    74  H    0.032468
    75  H    0.016546
    76  H    0.029236
    77  H    0.029870
    78  H    0.039644
    79  H    0.042749
    80  H    0.035621
    81  H    0.027534
    82  H    0.031487
    83  H    0.033629
    84  H    0.036074
    85  H    0.038419
    86  H    0.021134
    87  H    0.021126
    88  H    0.017321
    89  H    0.027691
    90  H    0.017852
    91  H    0.020372
    92  H    0.034410
    93  H    0.005291
    94  H    0.022863
    95  H    0.027492
    96  H    0.029368
    97  H    0.031716
    98  H    0.048766
    99  H    0.043009
   100  H    0.060434
   101  H    0.026513
   102  H    0.052182
   103  H    0.048651
   104  H    0.027582
   105  H    0.029253
   106  H    0.012945
   107  H    0.024777
   108  H    0.028755
   109  H    0.016369
   110  H    0.024871
   111  H    0.018387
   112  H    0.037151
   113  H    0.000405
   114  H    0.014076
   115  H    0.012655
   116  H    0.026728
   117  H    0.013800
   118  H    0.017285
   119  H    0.017391
   120  H    0.024413
   121  H    0.025673
   122  H    0.010325
   123  H    0.010142
   124  H    0.015224
   125  H    0.024976
   126  H    0.019862
   127  H    0.011569
   128  H    0.018205
   129  H    0.007162
   130  H    0.011888
   131  H    0.029232
   132  H    0.022564
   133  H    0.022816
   134  H    0.012168
   135  H    0.026724
   136  H    0.014355
   137  H    0.016680
   138  H    0.025590
   139  H    0.024100
   140  H    0.022111
 Sum of Mulliken charges =  -0.00000

 Dipole moment (field-independent basis, Debye):
    X=             -9.7635    Y=              6.7871    Z=              3.8779  Tot=             12.5071
 N-N= 4.348522892648D+03 E-N= 0.000000000000D+00  KE=-9.371593535001D+03
 Leave Link  601 at Thu May  5 14:03:03 2022, MaxMem=  6710886400 cpu:               0.8 elap:               0.0
 (Enter /sw/apps/gaussian-16.0/g16/l9999.exe)
 1\1\GINC-BP1-COMPUTE100\SP\RZINDO CIS\STO-3G\C55H74Mg1N4O6\OF15641\05-
 May-2022\0\\#p ZINDO=(nstates=5)\\step_901_chromophore_24 ZINDO\\0,1\M
 g,0,-0.279,44.056,24.992\C,0,1.742,43.81,27.738\C,0,-3.036,43.264,27.0
 2\C,0,-2.302,43.949,22.244\C,0,2.491,44.468,22.949\N,0,-0.583,43.63,27
 .145\C,0,0.389,43.609,28.147\C,0,-0.222,43.348,29.505\C,0,-1.728,42.96
 3,29.138\C,0,-1.742,43.339,27.665\C,0,-2.23,41.481,29.472\C,0,0.056,44
 .472,30.525\C,0,0.365,44.015,31.98\C,0,-0.184,42.726,32.468\O,0,0.383,

 Normal termination of Gaussian 16 at Thu May  5 14:03:03 2022.
