 Gaussian 16, Revision A.03,
 Gaussian 16:  ES64L-G16RevA.03 25-Dec-2016

 ------------------------------
 #p blyp/Def2SVP td=(nstates=5)
 ------------------------------

 --------------------------------------------------
 step_1751_chromophore_2 TDDFT with blyp functional
 --------------------------------------------------
 Symbolic Z-matrix:
 Charge =  0 Multiplicity = 1

                         Standard orientation:
 ---------------------------------------------------------------------
 Center     Atomic      Atomic             Coordinates (Angstroms)
 Number     Number       Type             X           Y           Z
 ---------------------------------------------------------------------
      1         12           0        4.069467    1.289085   -0.341695
      2          6           0        3.853797   -2.306219   -0.949188
      3          6           0        1.586105    1.647805   -2.727492
      4          6           0        3.771844    4.446674    0.594334
      5          6           0        6.035114    0.459737    2.569377
      6          7           0        2.785638   -0.195118   -1.586563
      7          6           0        3.050743   -1.497831   -1.803071
      8          6           0        2.219061   -2.024180   -3.010828
      9          6           0        1.511625   -0.760669   -3.680973
     10          6           0        2.011949    0.309840   -2.640839
     11          6           0        1.815244   -0.377892   -5.201416
     12          6           0        1.242424   -3.171861   -2.587494
     13          6           0        0.281347   -3.056093   -1.301575
     14          6           0       -1.186833   -3.022287   -1.535116
     15          8           0       -1.735662   -3.388816   -2.601703
     16          8           0       -1.869999   -2.538472   -0.474804
     17          7           0        2.854656    2.835028   -0.984548
     18          6           0        1.897400    2.794752   -1.949318
     19          6           0        1.422886    4.125046   -2.252211
     20          6           0        2.008243    5.006756   -1.266966
     21          6           0        2.871443    4.074614   -0.447587
     22          6           0        0.489036    4.579982   -3.303804
     23          6           0        1.874588    6.444757   -1.103652
     24          8           0        1.086196    7.072790   -1.831998
     25          6           0        2.592591    7.346852   -0.099212
     26          7           0        4.708029    2.234224    1.333285
     27          6           0        4.600877    3.616534    1.396295
     28          6           0        5.460860    4.217145    2.543420
     29          6           0        6.132634    2.891917    3.103979
     30          6           0        5.601317    1.781077    2.266572
     31          6           0        6.493832    5.199303    2.018628
     32          6           0        5.918567    2.710853    4.693000
     33          6           0        7.232593    2.451142    5.480855
     34          7           0        4.904552   -0.505638    0.543646
     35          6           0        5.577491   -0.642948    1.794201
     36          6           0        5.811304   -1.981082    2.042960
     37          6           0        5.256581   -2.761955    1.019474
     38          6           0        4.658725   -1.790466    0.126592
     39          6           0        6.530778   -2.449480    3.311522
     40          6           0        4.972673   -4.055741    0.423720
     41          8           0        5.380588   -5.145679    0.759344
     42          6           0        4.163336   -3.807173   -0.896665
     43          6           0        4.938562   -4.208756   -2.081992
     44          8           0        4.398927   -4.746663   -3.056889
     45          8           0        6.236640   -3.856799   -1.960282
     46          6           0        7.026172   -4.593636   -3.002776
     47          6           0       -3.281039   -2.640466   -0.293444
     48          6           0       -3.532197   -3.785757    0.660254
     49          6           0       -3.791817   -3.569836    1.992837
     50          6           0       -3.739194   -2.234863    2.655140
     51          6           0       -4.294640   -4.713710    2.816321
     52          6           0       -5.844326   -4.637436    3.218402
     53          6           0       -6.803953   -5.093789    2.081317
     54          6           0       -7.926447   -4.069480    1.737667
     55          6           0       -8.950291   -4.929123    1.049413
     56          6           0       -7.439025   -2.860054    0.733025
     57          6           0       -8.033047   -1.514563    1.169254
     58          6           0       -7.192946   -0.223155    1.135242
     59          6           0       -7.686831    0.831184    0.101166
     60          6           0       -6.479519    1.170874   -0.871326
     61          6           0       -8.256922    2.106003    0.705474
     62          6           0       -9.177398    2.913811   -0.252679
     63          6           0      -10.609226    3.125589    0.110812
     64          6           0      -10.991455    4.612245   -0.059685
     65          6           0      -12.493184    4.851512    0.329423
     66          6           0      -10.834414    5.004157   -1.604370
     67          1           0        0.813904    1.696964   -3.497467
     68          1           0        3.947606    5.477790    0.908438
     69          1           0        6.757954    0.264996    3.364320
     70          1           0        2.888363   -2.475021   -3.743716
     71          1           0        0.443506   -0.864388   -3.487163
     72          1           0        2.248573    0.622353   -5.178269
     73          1           0        0.852432   -0.295411   -5.706086
     74          1           0        2.576689   -1.011981   -5.656773
     75          1           0        1.817129   -4.097852   -2.604306
     76          1           0        0.625409   -3.395671   -3.458132
     77          1           0        0.560534   -2.136793   -0.786301
     78          1           0        0.707945   -3.790076   -0.616920
     79          1           0       -0.438438    4.983511   -2.899025
     80          1           0        0.146258    3.705521   -3.857009
     81          1           0        0.951085    5.266178   -4.014113
     82          1           0        3.672950    7.322333   -0.243920
     83          1           0        2.366635    7.148843    0.947606
     84          1           0        2.285488    8.375895   -0.287044
     85          1           0        4.801108    4.709888    3.257869
     86          1           0        7.211320    2.767995    3.016911
     87          1           0        6.343283    6.151243    2.528196
     88          1           0        6.388814    5.482293    0.971711
     89          1           0        7.561425    5.031760    2.159569
     90          1           0        5.212632    1.913280    4.923179
     91          1           0        5.449282    3.608170    5.095746
     92          1           0        7.328600    1.423027    5.831385
     93          1           0        7.313006    3.160246    6.304827
     94          1           0        8.017218    2.695830    4.764542
     95          1           0        7.280171   -1.702621    3.574971
     96          1           0        6.897424   -3.470563    3.202057
     97          1           0        5.844732   -2.388722    4.155736
     98          1           0        3.248975   -4.395082   -0.817471
     99          1           0        8.068172   -4.354610   -2.786621
    100          1           0        6.638806   -4.491363   -4.016493
    101          1           0        6.850595   -5.645871   -2.778568
    102          1           0       -3.760445   -2.838780   -1.250935
    103          1           0       -3.834212   -1.798248    0.123191
    104          1           0       -3.708086   -4.776055    0.239699
    105          1           0       -4.754566   -1.985820    2.963832
    106          1           0       -3.396406   -1.481871    1.944883
    107          1           0       -3.102839   -2.284264    3.538710
    108          1           0       -3.684965   -4.738825    3.719625
    109          1           0       -4.049533   -5.669755    2.354207
    110          1           0       -6.043050   -3.684845    3.709216
    111          1           0       -5.889770   -5.317496    4.069262
    112          1           0       -7.308852   -6.007636    2.396086
    113          1           0       -6.175684   -5.345221    1.226831
    114          1           0       -8.361143   -3.722690    2.675636
    115          1           0       -9.808641   -5.080695    1.703886
    116          1           0       -8.667965   -5.823059    0.493579
    117          1           0       -9.472543   -4.296274    0.331878
    118          1           0       -7.822768   -3.124310   -0.252861
    119          1           0       -6.351153   -2.850433    0.677115
    120          1           0       -8.493660   -1.602554    2.153221
    121          1           0       -8.819635   -1.489681    0.415078
    122          1           0       -6.173936   -0.596758    1.037213
    123          1           0       -7.217094    0.261697    2.110511
    124          1           0       -8.481185    0.330122   -0.451884
    125          1           0       -6.729938    1.149620   -1.931481
    126          1           0       -5.701041    0.413454   -0.779261
    127          1           0       -6.125487    2.178435   -0.652486
    128          1           0       -7.459117    2.807567    0.949798
    129          1           0       -8.808852    1.866955    1.615320
    130          1           0       -9.130595    2.457460   -1.242072
    131          1           0       -8.827906    3.945440   -0.303156
    132          1           0      -10.876935    2.813640    1.120802
    133          1           0      -11.225517    2.471690   -0.505516
    134          1           0      -10.309410    5.346518    0.368552
    135          1           0      -12.710510    5.113309    1.363844
    136          1           0      -13.059523    3.933862    0.172572
    137          1           0      -12.905970    5.674648   -0.253512
    138          1           0       -9.901240    5.564286   -1.658043
    139          1           0      -11.593776    5.759056   -1.808921
    140          1           0      -10.715105    4.278048   -2.407801
 ---------------------------------------------------------------------

 SCF Done:  E(RB-LYP) =  -3007.37012654     A.U. after   22 cycles

 Excitation energies and oscillator strengths:

 Excited State   1:      Singlet-A      1.5534 eV  798.14 nm  f=0.0006  <S**2>=0.000
     244 -> 247        0.67621
     245 -> 247       -0.20303
 This state for optimization and/or second-order correction.
 Total Energy, E(TD-HF/TD-DFT) =  -3007.31303955
 Copying the excited state density for this state as the 1-particle RhoCI density.

 Excited State   2:      Singlet-A      1.7607 eV  704.16 nm  f=0.2447  <S**2>=0.000
     243 -> 247        0.18060
     245 -> 247        0.16374
     245 -> 248       -0.17282
     246 -> 247        0.64369
     246 <- 247       -0.14400

 Excited State   3:      Singlet-A      1.8178 eV  682.05 nm  f=0.0831  <S**2>=0.000
     243 -> 247        0.49344
     244 -> 247        0.11791
     245 -> 247        0.40566
     246 -> 247       -0.25117

 Excited State   4:      Singlet-A      2.0160 eV  615.01 nm  f=0.0591  <S**2>=0.000
     243 -> 247        0.46267
     244 -> 247       -0.13054
     245 -> 247       -0.44924
     246 -> 248       -0.21161

 Excited State   5:      Singlet-A      2.2175 eV  559.13 nm  f=0.0008  <S**2>=0.000
     242 -> 247        0.69967

 The electronic state is 1-A.
 Alpha  occ. eigenvalues --  -46.28030 -18.83207 -18.81832 -18.77042 -18.75918
 Alpha  occ. eigenvalues --  -18.75591 -18.74411 -14.03864 -14.03748 -14.01894
 Alpha  occ. eigenvalues --  -14.00914 -10.04274 -10.04195  -9.99522  -9.99142
 Alpha  occ. eigenvalues --   -9.98129  -9.97565  -9.97323  -9.97169  -9.97038
 Alpha  occ. eigenvalues --   -9.96713  -9.96697  -9.96069  -9.95163  -9.95029
 Alpha  occ. eigenvalues --   -9.94961  -9.94507  -9.94371  -9.94106  -9.93925
 Alpha  occ. eigenvalues --   -9.93837  -9.93812  -9.93533  -9.93530  -9.93355
 Alpha  occ. eigenvalues --   -9.93285  -9.93238  -9.93136  -9.93055  -9.92871
 Alpha  occ. eigenvalues --   -9.92727  -9.92667  -9.92579  -9.92511  -9.92484
 Alpha  occ. eigenvalues --   -9.92274  -9.92243  -9.92085  -9.92073  -9.91994
 Alpha  occ. eigenvalues --   -9.91941  -9.91747  -9.91554  -9.91490  -9.91442
 Alpha  occ. eigenvalues --   -9.91370  -9.91282  -9.90991  -9.90928  -9.90811
 Alpha  occ. eigenvalues --   -9.90719  -9.90681  -9.90672  -9.90494  -9.90452
 Alpha  occ. eigenvalues --   -9.90355  -2.92638  -1.73029  -1.72539  -1.72353
 Alpha  occ. eigenvalues --   -0.98604  -0.97823  -0.91795  -0.89988  -0.89874
 Alpha  occ. eigenvalues --   -0.88398  -0.86575  -0.85788  -0.85346  -0.84244
 Alpha  occ. eigenvalues --   -0.75189  -0.73669  -0.72931  -0.72390  -0.72077
 Alpha  occ. eigenvalues --   -0.71946  -0.71174  -0.70872  -0.70703  -0.70132
 Alpha  occ. eigenvalues --   -0.69724  -0.68908  -0.67904  -0.67677  -0.67328
 Alpha  occ. eigenvalues --   -0.66242  -0.65598  -0.64957  -0.64786  -0.64338
 Alpha  occ. eigenvalues --   -0.64059  -0.62412  -0.62259  -0.61745  -0.60898
 Alpha  occ. eigenvalues --   -0.60644  -0.60102  -0.59590  -0.59316  -0.59192
 Alpha  occ. eigenvalues --   -0.58398  -0.57953  -0.57091  -0.55764  -0.54607
 Alpha  occ. eigenvalues --   -0.54005  -0.53440  -0.53254  -0.52729  -0.52172
 Alpha  occ. eigenvalues --   -0.51104  -0.50938  -0.50628  -0.50390  -0.49837
 Alpha  occ. eigenvalues --   -0.49596  -0.49407  -0.49256  -0.48839  -0.46822
 Alpha  occ. eigenvalues --   -0.45885  -0.45838  -0.45471  -0.45091  -0.44614
 Alpha  occ. eigenvalues --   -0.44101  -0.43582  -0.43147  -0.42899  -0.42245
 Alpha  occ. eigenvalues --   -0.42187  -0.41850  -0.41517  -0.41295  -0.40984
 Alpha  occ. eigenvalues --   -0.40843  -0.40630  -0.40544  -0.40265  -0.39957
 Alpha  occ. eigenvalues --   -0.39720  -0.39591  -0.39496  -0.38989  -0.38913
 Alpha  occ. eigenvalues --   -0.38802  -0.38627  -0.38396  -0.38285  -0.38168
 Alpha  occ. eigenvalues --   -0.37994  -0.37991  -0.37420  -0.37251  -0.37201
 Alpha  occ. eigenvalues --   -0.37085  -0.36814  -0.36650  -0.36313  -0.36106
 Alpha  occ. eigenvalues --   -0.35937  -0.35880  -0.35676  -0.35506  -0.35479
 Alpha  occ. eigenvalues --   -0.35242  -0.35086  -0.34895  -0.34752  -0.34683
 Alpha  occ. eigenvalues --   -0.34459  -0.34307  -0.33908  -0.33824  -0.33717
 Alpha  occ. eigenvalues --   -0.33632  -0.33505  -0.33444  -0.33182  -0.33129
 Alpha  occ. eigenvalues --   -0.32907  -0.32851  -0.32788  -0.32539  -0.32282
 Alpha  occ. eigenvalues --   -0.32040  -0.31960  -0.31555  -0.31482  -0.31338
 Alpha  occ. eigenvalues --   -0.31126  -0.31013  -0.30854  -0.30785  -0.30479
 Alpha  occ. eigenvalues --   -0.30430  -0.30290  -0.30035  -0.29947  -0.29676
 Alpha  occ. eigenvalues --   -0.29545  -0.29332  -0.29149  -0.29029  -0.28687
 Alpha  occ. eigenvalues --   -0.28410  -0.28132  -0.28057  -0.27782  -0.27636
 Alpha  occ. eigenvalues --   -0.27470  -0.27127  -0.27016  -0.26631  -0.26516
 Alpha  occ. eigenvalues --   -0.26436  -0.26410  -0.25872  -0.25630  -0.25547
 Alpha  occ. eigenvalues --   -0.25467  -0.24784  -0.24122  -0.24003  -0.23731
 Alpha  occ. eigenvalues --   -0.23706  -0.22556  -0.21766  -0.21402  -0.20571
 Alpha  occ. eigenvalues --   -0.20340  -0.20193  -0.18819  -0.17693  -0.17518
 Alpha  occ. eigenvalues --   -0.16156
 Alpha virt. eigenvalues --   -0.12051  -0.07411  -0.06126  -0.04550  -0.03789
 Alpha virt. eigenvalues --   -0.03319  -0.03061  -0.02215  -0.02127   0.00014
 Alpha virt. eigenvalues --    0.00877   0.01843   0.02142   0.02444   0.02941

 Mulliken charges:
               1
     1  Mg   0.707317
     2  C   -0.004256
     3  C   -0.059517
     4  C   -0.031226
     5  C   -0.111993
     6  N   -0.188313
     7  C   -0.067016
     8  C    0.049091
     9  C    0.008204
    10  C   -0.063268
    11  C    0.141212
    12  C    0.054210
    13  C    0.094357
    14  C    0.114886
    15  O   -0.217784
    16  O   -0.241191
    17  N   -0.281683
    18  C    0.182365
    19  C   -0.157089
    20  C    0.098150
    21  C    0.148796
    22  C    0.212794
    23  C   -0.124599
    24  O   -0.198962
    25  C    0.143678
    26  N   -0.278466
    27  C   -0.029636
    28  C    0.062073
    29  C    0.016283
    30  C    0.075559
    31  C    0.106683
    32  C    0.058014
    33  C    0.057036
    34  N   -0.269582
    35  C    0.156240
    36  C   -0.211746
    37  C    0.124701
    38  C    0.019896
    39  C    0.178813
    40  C   -0.069491
    41  O   -0.117429
    42  C    0.088866
    43  C    0.123150
    44  O   -0.200519
    45  O   -0.259848
    46  C    0.237792
    47  C    0.310672
    48  C   -0.097397
    49  C   -0.156840
    50  C    0.157211
    51  C    0.112398
    52  C    0.072455
    53  C    0.117874
    54  C   -0.094292
    55  C    0.127004
    56  C    0.106302
    57  C    0.030679
    58  C    0.134512
    59  C   -0.077503
    60  C    0.097229
    61  C    0.137613
    62  C    0.072018
    63  C    0.109909
    64  C   -0.099248
    65  C    0.109123
    66  C    0.073292
    67  H   -0.051875
    68  H   -0.084974
    69  H   -0.056157
    70  H   -0.023995
    71  H   -0.003401
    72  H   -0.013968
    73  H    0.007732
    74  H    0.002937
    75  H   -0.015134
    76  H   -0.016490
    77  H    0.004298
    78  H    0.016502
    79  H    0.008593
    80  H   -0.049503
    81  H    0.012755
    82  H    0.004647
    83  H    0.007538
    84  H   -0.015549
    85  H   -0.003515
    86  H   -0.017425
    87  H   -0.022252
    88  H   -0.006286
    89  H   -0.007018
    90  H   -0.015934
    91  H   -0.025063
    92  H    0.010391
    93  H   -0.005775
    94  H   -0.017439
    95  H   -0.013601
    96  H    0.013957
    97  H   -0.004212
    98  H   -0.007821
    99  H    0.021465
   100  H    0.024563
   101  H    0.010364
   102  H   -0.018131
   103  H    0.007581
   104  H   -0.028575
   105  H    0.007585
   106  H   -0.005540
   107  H   -0.001796
   108  H   -0.041180
   109  H   -0.033693
   110  H   -0.030273
   111  H   -0.036925
   112  H   -0.029993
   113  H   -0.025416
   114  H   -0.031269
   115  H   -0.031329
   116  H   -0.001690
   117  H   -0.050024
   118  H   -0.030547
   119  H   -0.029940
   120  H   -0.025604
   121  H   -0.028459
   122  H   -0.042571
   123  H   -0.043925
   124  H   -0.032758
   125  H   -0.018138
   126  H   -0.018844
   127  H   -0.013124
   128  H   -0.034873
   129  H   -0.037090
   130  H   -0.026115
   131  H   -0.038553
   132  H   -0.040298
   133  H   -0.036237
   134  H   -0.024553
   135  H   -0.019867
   136  H   -0.017594
   137  H   -0.021250
   138  H   -0.029782
   139  H   -0.022838
   140  H   -0.004292
 Sum of Mulliken charges =  -0.00000

 Dipole moment (field-independent basis, Debye):
    X=              2.5506    Y=              2.5814    Z=              3.6397  Tot=              5.1397
 Quadrupole moment (field-independent basis, Debye-Ang):
   XX=           -362.1860   YY=           -445.7795   ZZ=           -391.8906
   XY=             30.6284   XZ=             -6.9276   YZ=             11.1511

 Normal termination of Gaussian 16 at Wed May  4 14:00:32 2022.
