 Gaussian 16, Revision A.03,
 Gaussian 16:  ES64L-G16RevA.03 25-Dec-2016

 -----------------------------------
 #p cam-b3lyp/Def2SVP td=(nstates=5)
 -----------------------------------

 -------------------------------------------------------
 step_1751_chromophore_2 TDDFT with cam-b3lyp functional
 -------------------------------------------------------
 Symbolic Z-matrix:
 Charge =  0 Multiplicity = 1

                         Standard orientation:
 ---------------------------------------------------------------------
 Center     Atomic      Atomic             Coordinates (Angstroms)
 Number     Number       Type             X           Y           Z
 ---------------------------------------------------------------------
      1         12           0        4.069467    1.289085   -0.341695
      2          6           0        3.853797   -2.306219   -0.949188
      3          6           0        1.586105    1.647805   -2.727492
      4          6           0        3.771844    4.446674    0.594334
      5          6           0        6.035114    0.459737    2.569377
      6          7           0        2.785638   -0.195118   -1.586563
      7          6           0        3.050743   -1.497831   -1.803071
      8          6           0        2.219061   -2.024180   -3.010828
      9          6           0        1.511625   -0.760669   -3.680973
     10          6           0        2.011949    0.309840   -2.640839
     11          6           0        1.815244   -0.377892   -5.201416
     12          6           0        1.242424   -3.171861   -2.587494
     13          6           0        0.281347   -3.056093   -1.301575
     14          6           0       -1.186833   -3.022287   -1.535116
     15          8           0       -1.735662   -3.388816   -2.601703
     16          8           0       -1.869999   -2.538472   -0.474804
     17          7           0        2.854656    2.835028   -0.984548
     18          6           0        1.897400    2.794752   -1.949318
     19          6           0        1.422886    4.125046   -2.252211
     20          6           0        2.008243    5.006756   -1.266966
     21          6           0        2.871443    4.074614   -0.447587
     22          6           0        0.489036    4.579982   -3.303804
     23          6           0        1.874588    6.444757   -1.103652
     24          8           0        1.086196    7.072790   -1.831998
     25          6           0        2.592591    7.346852   -0.099212
     26          7           0        4.708029    2.234224    1.333285
     27          6           0        4.600877    3.616534    1.396295
     28          6           0        5.460860    4.217145    2.543420
     29          6           0        6.132634    2.891917    3.103979
     30          6           0        5.601317    1.781077    2.266572
     31          6           0        6.493832    5.199303    2.018628
     32          6           0        5.918567    2.710853    4.693000
     33          6           0        7.232593    2.451142    5.480855
     34          7           0        4.904552   -0.505638    0.543646
     35          6           0        5.577491   -0.642948    1.794201
     36          6           0        5.811304   -1.981082    2.042960
     37          6           0        5.256581   -2.761955    1.019474
     38          6           0        4.658725   -1.790466    0.126592
     39          6           0        6.530778   -2.449480    3.311522
     40          6           0        4.972673   -4.055741    0.423720
     41          8           0        5.380588   -5.145679    0.759344
     42          6           0        4.163336   -3.807173   -0.896665
     43          6           0        4.938562   -4.208756   -2.081992
     44          8           0        4.398927   -4.746663   -3.056889
     45          8           0        6.236640   -3.856799   -1.960282
     46          6           0        7.026172   -4.593636   -3.002776
     47          6           0       -3.281039   -2.640466   -0.293444
     48          6           0       -3.532197   -3.785757    0.660254
     49          6           0       -3.791817   -3.569836    1.992837
     50          6           0       -3.739194   -2.234863    2.655140
     51          6           0       -4.294640   -4.713710    2.816321
     52          6           0       -5.844326   -4.637436    3.218402
     53          6           0       -6.803953   -5.093789    2.081317
     54          6           0       -7.926447   -4.069480    1.737667
     55          6           0       -8.950291   -4.929123    1.049413
     56          6           0       -7.439025   -2.860054    0.733025
     57          6           0       -8.033047   -1.514563    1.169254
     58          6           0       -7.192946   -0.223155    1.135242
     59          6           0       -7.686831    0.831184    0.101166
     60          6           0       -6.479519    1.170874   -0.871326
     61          6           0       -8.256922    2.106003    0.705474
     62          6           0       -9.177398    2.913811   -0.252679
     63          6           0      -10.609226    3.125589    0.110812
     64          6           0      -10.991455    4.612245   -0.059685
     65          6           0      -12.493184    4.851512    0.329423
     66          6           0      -10.834414    5.004157   -1.604370
     67          1           0        0.813904    1.696964   -3.497467
     68          1           0        3.947606    5.477790    0.908438
     69          1           0        6.757954    0.264996    3.364320
     70          1           0        2.888363   -2.475021   -3.743716
     71          1           0        0.443506   -0.864388   -3.487163
     72          1           0        2.248573    0.622353   -5.178269
     73          1           0        0.852432   -0.295411   -5.706086
     74          1           0        2.576689   -1.011981   -5.656773
     75          1           0        1.817129   -4.097852   -2.604306
     76          1           0        0.625409   -3.395671   -3.458132
     77          1           0        0.560534   -2.136793   -0.786301
     78          1           0        0.707945   -3.790076   -0.616920
     79          1           0       -0.438438    4.983511   -2.899025
     80          1           0        0.146258    3.705521   -3.857009
     81          1           0        0.951085    5.266178   -4.014113
     82          1           0        3.672950    7.322333   -0.243920
     83          1           0        2.366635    7.148843    0.947606
     84          1           0        2.285488    8.375895   -0.287044
     85          1           0        4.801108    4.709888    3.257869
     86          1           0        7.211320    2.767995    3.016911
     87          1           0        6.343283    6.151243    2.528196
     88          1           0        6.388814    5.482293    0.971711
     89          1           0        7.561425    5.031760    2.159569
     90          1           0        5.212632    1.913280    4.923179
     91          1           0        5.449282    3.608170    5.095746
     92          1           0        7.328600    1.423027    5.831385
     93          1           0        7.313006    3.160246    6.304827
     94          1           0        8.017218    2.695830    4.764542
     95          1           0        7.280171   -1.702621    3.574971
     96          1           0        6.897424   -3.470563    3.202057
     97          1           0        5.844732   -2.388722    4.155736
     98          1           0        3.248975   -4.395082   -0.817471
     99          1           0        8.068172   -4.354610   -2.786621
    100          1           0        6.638806   -4.491363   -4.016493
    101          1           0        6.850595   -5.645871   -2.778568
    102          1           0       -3.760445   -2.838780   -1.250935
    103          1           0       -3.834212   -1.798248    0.123191
    104          1           0       -3.708086   -4.776055    0.239699
    105          1           0       -4.754566   -1.985820    2.963832
    106          1           0       -3.396406   -1.481871    1.944883
    107          1           0       -3.102839   -2.284264    3.538710
    108          1           0       -3.684965   -4.738825    3.719625
    109          1           0       -4.049533   -5.669755    2.354207
    110          1           0       -6.043050   -3.684845    3.709216
    111          1           0       -5.889770   -5.317496    4.069262
    112          1           0       -7.308852   -6.007636    2.396086
    113          1           0       -6.175684   -5.345221    1.226831
    114          1           0       -8.361143   -3.722690    2.675636
    115          1           0       -9.808641   -5.080695    1.703886
    116          1           0       -8.667965   -5.823059    0.493579
    117          1           0       -9.472543   -4.296274    0.331878
    118          1           0       -7.822768   -3.124310   -0.252861
    119          1           0       -6.351153   -2.850433    0.677115
    120          1           0       -8.493660   -1.602554    2.153221
    121          1           0       -8.819635   -1.489681    0.415078
    122          1           0       -6.173936   -0.596758    1.037213
    123          1           0       -7.217094    0.261697    2.110511
    124          1           0       -8.481185    0.330122   -0.451884
    125          1           0       -6.729938    1.149620   -1.931481
    126          1           0       -5.701041    0.413454   -0.779261
    127          1           0       -6.125487    2.178435   -0.652486
    128          1           0       -7.459117    2.807567    0.949798
    129          1           0       -8.808852    1.866955    1.615320
    130          1           0       -9.130595    2.457460   -1.242072
    131          1           0       -8.827906    3.945440   -0.303156
    132          1           0      -10.876935    2.813640    1.120802
    133          1           0      -11.225517    2.471690   -0.505516
    134          1           0      -10.309410    5.346518    0.368552
    135          1           0      -12.710510    5.113309    1.363844
    136          1           0      -13.059523    3.933862    0.172572
    137          1           0      -12.905970    5.674648   -0.253512
    138          1           0       -9.901240    5.564286   -1.658043
    139          1           0      -11.593776    5.759056   -1.808921
    140          1           0      -10.715105    4.278048   -2.407801
 ---------------------------------------------------------------------

 SCF Done:  E(RCAM-B3LYP) =  -3007.15341293     A.U. after   18 cycles

 Excitation energies and oscillator strengths:

 Excited State   1:      Singlet-A      1.6410 eV  755.55 nm  f=0.3834  <S**2>=0.000
     245 -> 248       -0.17403
     246 -> 247        0.68712
     245 <- 248       -0.10759
 This state for optimization and/or second-order correction.
 Total Energy, E(TD-HF/TD-DFT) =  -3007.09310795
 Copying the excited state density for this state as the 1-particle RhoCI density.

 Excited State   2:      Singlet-A      2.1769 eV  569.54 nm  f=0.1212  <S**2>=0.000
     245 -> 247        0.64141
     246 -> 248        0.27811

 Excited State   3:      Singlet-A      3.1729 eV  390.77 nm  f=0.0025  <S**2>=0.000
     242 -> 247        0.11394
     244 -> 247        0.65648
     246 -> 248       -0.18717

 Excited State   4:      Singlet-A      3.3039 eV  375.26 nm  f=0.0025  <S**2>=0.000
     241 -> 247       -0.37129
     241 -> 248        0.15285
     241 -> 249       -0.26896
     241 -> 251       -0.16826
     242 -> 247        0.39934
     242 -> 249        0.14170

 Excited State   5:      Singlet-A      3.3991 eV  364.76 nm  f=0.0577  <S**2>=0.000
     239 -> 247        0.22527
     240 -> 247        0.38200
     240 -> 249       -0.14059
     240 -> 251        0.12924
     241 -> 247        0.26224
     242 -> 247        0.22211
     244 -> 247       -0.16784
     246 -> 248       -0.25367

 The electronic state is 1-A.
 Alpha  occ. eigenvalues --  -46.89640 -19.26207 -19.24624 -19.20156 -19.18940
 Alpha  occ. eigenvalues --  -19.18810 -19.17532 -14.42797 -14.42653 -14.40415
 Alpha  occ. eigenvalues --  -14.39344 -10.39641 -10.39599 -10.34977 -10.34234
 Alpha  occ. eigenvalues --  -10.32213 -10.31923 -10.31765 -10.31610 -10.31555
 Alpha  occ. eigenvalues --  -10.31225 -10.31177 -10.30282 -10.29490 -10.29416
 Alpha  occ. eigenvalues --  -10.29029 -10.28967 -10.28445 -10.28431 -10.28406
 Alpha  occ. eigenvalues --  -10.28063 -10.27897 -10.27707 -10.27584 -10.27469
 Alpha  occ. eigenvalues --  -10.27418 -10.27402 -10.27158 -10.27024 -10.26872
 Alpha  occ. eigenvalues --  -10.26607 -10.26434 -10.26331 -10.26252 -10.26174
 Alpha  occ. eigenvalues --  -10.26048 -10.26002 -10.25843 -10.25814 -10.25752
 Alpha  occ. eigenvalues --  -10.25673 -10.25648 -10.25540 -10.25333 -10.25292
 Alpha  occ. eigenvalues --  -10.25088 -10.25078 -10.24643 -10.24560 -10.24422
 Alpha  occ. eigenvalues --  -10.24315 -10.24285 -10.24281 -10.24112 -10.24071
 Alpha  occ. eigenvalues --  -10.23874  -3.18146  -1.93013  -1.92618  -1.92442
 Alpha  occ. eigenvalues --   -1.17173  -1.16187  -1.10370  -1.08266  -1.07857
 Alpha  occ. eigenvalues --   -1.06215  -1.04252  -1.03388  -1.03046  -1.01787
 Alpha  occ. eigenvalues --   -0.92406  -0.90505  -0.89711  -0.89077  -0.88728
 Alpha  occ. eigenvalues --   -0.88601  -0.87846  -0.87463  -0.87261  -0.86709
 Alpha  occ. eigenvalues --   -0.86285  -0.85178  -0.84137  -0.83883  -0.83484
 Alpha  occ. eigenvalues --   -0.82283  -0.81667  -0.80849  -0.80598  -0.80271
 Alpha  occ. eigenvalues --   -0.79850  -0.78048  -0.77819  -0.77404  -0.76398
 Alpha  occ. eigenvalues --   -0.75974  -0.75396  -0.74906  -0.74578  -0.74437
 Alpha  occ. eigenvalues --   -0.73442  -0.73002  -0.72012  -0.70622  -0.69180
 Alpha  occ. eigenvalues --   -0.68683  -0.67929  -0.67751  -0.67071  -0.66266
 Alpha  occ. eigenvalues --   -0.65156  -0.65085  -0.64661  -0.64457  -0.63828
 Alpha  occ. eigenvalues --   -0.63544  -0.63175  -0.63082  -0.62731  -0.60554
 Alpha  occ. eigenvalues --   -0.59355  -0.59325  -0.58909  -0.58620  -0.58204
 Alpha  occ. eigenvalues --   -0.57515  -0.56978  -0.56351  -0.56094  -0.55541
 Alpha  occ. eigenvalues --   -0.55426  -0.54792  -0.54539  -0.54045  -0.53996
 Alpha  occ. eigenvalues --   -0.53689  -0.53257  -0.53199  -0.52862  -0.52754
 Alpha  occ. eigenvalues --   -0.52672  -0.52383  -0.52083  -0.51635  -0.51426
 Alpha  occ. eigenvalues --   -0.51224  -0.51207  -0.51072  -0.50829  -0.50554
 Alpha  occ. eigenvalues --   -0.50283  -0.50235  -0.49668  -0.49482  -0.49422
 Alpha  occ. eigenvalues --   -0.49293  -0.49209  -0.48964  -0.48782  -0.48377
 Alpha  occ. eigenvalues --   -0.48318  -0.48158  -0.47843  -0.47762  -0.47605
 Alpha  occ. eigenvalues --   -0.47314  -0.47062  -0.46864  -0.46776  -0.46633
 Alpha  occ. eigenvalues --   -0.46503  -0.46317  -0.45807  -0.45532  -0.45397
 Alpha  occ. eigenvalues --   -0.45374  -0.45271  -0.45016  -0.44923  -0.44826
 Alpha  occ. eigenvalues --   -0.44593  -0.44515  -0.44440  -0.44303  -0.44145
 Alpha  occ. eigenvalues --   -0.43855  -0.43647  -0.43214  -0.43146  -0.42766
 Alpha  occ. eigenvalues --   -0.42538  -0.42464  -0.42346  -0.42162  -0.42068
 Alpha  occ. eigenvalues --   -0.41739  -0.41516  -0.41365  -0.41198  -0.40963
 Alpha  occ. eigenvalues --   -0.40667  -0.40452  -0.40273  -0.40182  -0.39885
 Alpha  occ. eigenvalues --   -0.39445  -0.39327  -0.39094  -0.39015  -0.38696
 Alpha  occ. eigenvalues --   -0.38352  -0.38326  -0.37837  -0.37661  -0.37517
 Alpha  occ. eigenvalues --   -0.37314  -0.37147  -0.36649  -0.36498  -0.36495
 Alpha  occ. eigenvalues --   -0.36070  -0.35306  -0.35115  -0.35080  -0.34438
 Alpha  occ. eigenvalues --   -0.34025  -0.33647  -0.33195  -0.31325  -0.30799
 Alpha  occ. eigenvalues --   -0.30217  -0.29817  -0.29758  -0.29645  -0.24399
 Alpha  occ. eigenvalues --   -0.21422
 Alpha virt. eigenvalues --   -0.09336  -0.02216   0.00246   0.01215   0.02443
 Alpha virt. eigenvalues --    0.04256   0.04702   0.04924   0.05498   0.07070
 Alpha virt. eigenvalues --    0.08029   0.08209   0.08348   0.08489   0.09282

 Mulliken charges:
               1
     1  Mg   0.836156
     2  C   -0.034326
     3  C   -0.067922
     4  C   -0.058880
     5  C   -0.116800
     6  N   -0.249094
     7  C   -0.035722
     8  C    0.008092
     9  C   -0.042406
    10  C   -0.047685
    11  C    0.080190
    12  C   -0.000679
    13  C    0.021806
    14  C    0.201277
    15  O   -0.262040
    16  O   -0.306636
    17  N   -0.367908
    18  C    0.182135
    19  C   -0.154871
    20  C    0.021257
    21  C    0.178919
    22  C    0.156566
    23  C   -0.052370
    24  O   -0.239925
    25  C    0.064471
    26  N   -0.356427
    27  C   -0.000349
    28  C    0.003625
    29  C   -0.043514
    30  C    0.101920
    31  C    0.045245
    32  C    0.004039
    33  C   -0.004108
    34  N   -0.355138
    35  C    0.158575
    36  C   -0.209038
    37  C    0.047918
    38  C    0.063580
    39  C    0.129311
    40  C    0.034752
    41  O   -0.155371
    42  C    0.010795
    43  C    0.213234
    44  O   -0.242821
    45  O   -0.321062
    46  C    0.190881
    47  C    0.274923
    48  C   -0.118072
    49  C   -0.175041
    50  C    0.095506
    51  C    0.053647
    52  C    0.016063
    53  C    0.064208
    54  C   -0.146592
    55  C    0.061524
    56  C    0.059883
    57  C   -0.020977
    58  C    0.084898
    59  C   -0.133510
    60  C    0.044143
    61  C    0.083499
    62  C    0.013223
    63  C    0.058856
    64  C   -0.162289
    65  C    0.050865
    66  C    0.012627
    67  H   -0.016997
    68  H   -0.049301
    69  H   -0.021720
    70  H    0.011720
    71  H    0.029261
    72  H    0.012093
    73  H    0.031569
    74  H    0.027831
    75  H    0.016533
    76  H    0.020323
    77  H    0.037614
    78  H    0.047011
    79  H    0.037260
    80  H   -0.022891
    81  H    0.040347
    82  H    0.030519
    83  H    0.035296
    84  H    0.021838
    85  H    0.030734
    86  H    0.016162
    87  H    0.002875
    88  H    0.019275
    89  H    0.019257
    90  H    0.014647
    91  H    0.003630
    92  H    0.031311
    93  H    0.019200
    94  H    0.004606
    95  H    0.008916
    96  H    0.040808
    97  H    0.022974
    98  H    0.032857
    99  H    0.047687
   100  H    0.051309
   101  H    0.034577
   102  H    0.018403
   103  H    0.026359
   104  H    0.003176
   105  H    0.027406
   106  H    0.021152
   107  H    0.024397
   108  H   -0.010324
   109  H   -0.002185
   110  H   -0.003680
   111  H   -0.005882
   112  H    0.001124
   113  H    0.000611
   114  H    0.000103
   115  H   -0.004400
   116  H    0.023131
   117  H   -0.024061
   118  H   -0.001404
   119  H   -0.009741
   120  H    0.002029
   121  H   -0.002008
   122  H   -0.020247
   123  H   -0.013180
   124  H   -0.001757
   125  H    0.005810
   126  H    0.002598
   127  H    0.009698
   128  H   -0.005685
   129  H   -0.008258
   130  H    0.000661
   131  H   -0.008966
   132  H   -0.010631
   133  H   -0.007185
   134  H    0.007324
   135  H    0.005009
   136  H    0.006102
   137  H    0.002515
   138  H   -0.005670
   139  H    0.002125
   140  H    0.019368
 Sum of Mulliken charges =  -0.00000

 Dipole moment (field-independent basis, Debye):
    X=              2.7720    Y=              2.8038    Z=              3.6972  Tot=              5.4051
 Quadrupole moment (field-independent basis, Debye-Ang):
   XX=           -359.9662   YY=           -442.5626   ZZ=           -390.2357
   XY=             31.3769   XZ=             -6.4678   YZ=             12.2496

 Normal termination of Gaussian 16 at Wed May  4 12:59:30 2022.
