 Gaussian 16, Revision A.03,
 Gaussian 16:  ES64L-G16RevA.03 25-Dec-2016

 ---------------------------------
 #p PBE1PBE/Def2SVP td=(nstates=5)
 ---------------------------------

 -----------------------------------------------------
 step_1751_chromophore_2 TDDFT with PBE1PBE functional
 -----------------------------------------------------
 Symbolic Z-matrix:
 Charge =  0 Multiplicity = 1

                         Standard orientation:
 ---------------------------------------------------------------------
 Center     Atomic      Atomic             Coordinates (Angstroms)
 Number     Number       Type             X           Y           Z
 ---------------------------------------------------------------------
      1         12           0        4.069467    1.289085   -0.341695
      2          6           0        3.853797   -2.306219   -0.949188
      3          6           0        1.586105    1.647805   -2.727492
      4          6           0        3.771844    4.446674    0.594334
      5          6           0        6.035114    0.459737    2.569377
      6          7           0        2.785638   -0.195118   -1.586563
      7          6           0        3.050743   -1.497831   -1.803071
      8          6           0        2.219061   -2.024180   -3.010828
      9          6           0        1.511625   -0.760669   -3.680973
     10          6           0        2.011949    0.309840   -2.640839
     11          6           0        1.815244   -0.377892   -5.201416
     12          6           0        1.242424   -3.171861   -2.587494
     13          6           0        0.281347   -3.056093   -1.301575
     14          6           0       -1.186833   -3.022287   -1.535116
     15          8           0       -1.735662   -3.388816   -2.601703
     16          8           0       -1.869999   -2.538472   -0.474804
     17          7           0        2.854656    2.835028   -0.984548
     18          6           0        1.897400    2.794752   -1.949318
     19          6           0        1.422886    4.125046   -2.252211
     20          6           0        2.008243    5.006756   -1.266966
     21          6           0        2.871443    4.074614   -0.447587
     22          6           0        0.489036    4.579982   -3.303804
     23          6           0        1.874588    6.444757   -1.103652
     24          8           0        1.086196    7.072790   -1.831998
     25          6           0        2.592591    7.346852   -0.099212
     26          7           0        4.708029    2.234224    1.333285
     27          6           0        4.600877    3.616534    1.396295
     28          6           0        5.460860    4.217145    2.543420
     29          6           0        6.132634    2.891917    3.103979
     30          6           0        5.601317    1.781077    2.266572
     31          6           0        6.493832    5.199303    2.018628
     32          6           0        5.918567    2.710853    4.693000
     33          6           0        7.232593    2.451142    5.480855
     34          7           0        4.904552   -0.505638    0.543646
     35          6           0        5.577491   -0.642948    1.794201
     36          6           0        5.811304   -1.981082    2.042960
     37          6           0        5.256581   -2.761955    1.019474
     38          6           0        4.658725   -1.790466    0.126592
     39          6           0        6.530778   -2.449480    3.311522
     40          6           0        4.972673   -4.055741    0.423720
     41          8           0        5.380588   -5.145679    0.759344
     42          6           0        4.163336   -3.807173   -0.896665
     43          6           0        4.938562   -4.208756   -2.081992
     44          8           0        4.398927   -4.746663   -3.056889
     45          8           0        6.236640   -3.856799   -1.960282
     46          6           0        7.026172   -4.593636   -3.002776
     47          6           0       -3.281039   -2.640466   -0.293444
     48          6           0       -3.532197   -3.785757    0.660254
     49          6           0       -3.791817   -3.569836    1.992837
     50          6           0       -3.739194   -2.234863    2.655140
     51          6           0       -4.294640   -4.713710    2.816321
     52          6           0       -5.844326   -4.637436    3.218402
     53          6           0       -6.803953   -5.093789    2.081317
     54          6           0       -7.926447   -4.069480    1.737667
     55          6           0       -8.950291   -4.929123    1.049413
     56          6           0       -7.439025   -2.860054    0.733025
     57          6           0       -8.033047   -1.514563    1.169254
     58          6           0       -7.192946   -0.223155    1.135242
     59          6           0       -7.686831    0.831184    0.101166
     60          6           0       -6.479519    1.170874   -0.871326
     61          6           0       -8.256922    2.106003    0.705474
     62          6           0       -9.177398    2.913811   -0.252679
     63          6           0      -10.609226    3.125589    0.110812
     64          6           0      -10.991455    4.612245   -0.059685
     65          6           0      -12.493184    4.851512    0.329423
     66          6           0      -10.834414    5.004157   -1.604370
     67          1           0        0.813904    1.696964   -3.497467
     68          1           0        3.947606    5.477790    0.908438
     69          1           0        6.757954    0.264996    3.364320
     70          1           0        2.888363   -2.475021   -3.743716
     71          1           0        0.443506   -0.864388   -3.487163
     72          1           0        2.248573    0.622353   -5.178269
     73          1           0        0.852432   -0.295411   -5.706086
     74          1           0        2.576689   -1.011981   -5.656773
     75          1           0        1.817129   -4.097852   -2.604306
     76          1           0        0.625409   -3.395671   -3.458132
     77          1           0        0.560534   -2.136793   -0.786301
     78          1           0        0.707945   -3.790076   -0.616920
     79          1           0       -0.438438    4.983511   -2.899025
     80          1           0        0.146258    3.705521   -3.857009
     81          1           0        0.951085    5.266178   -4.014113
     82          1           0        3.672950    7.322333   -0.243920
     83          1           0        2.366635    7.148843    0.947606
     84          1           0        2.285488    8.375895   -0.287044
     85          1           0        4.801108    4.709888    3.257869
     86          1           0        7.211320    2.767995    3.016911
     87          1           0        6.343283    6.151243    2.528196
     88          1           0        6.388814    5.482293    0.971711
     89          1           0        7.561425    5.031760    2.159569
     90          1           0        5.212632    1.913280    4.923179
     91          1           0        5.449282    3.608170    5.095746
     92          1           0        7.328600    1.423027    5.831385
     93          1           0        7.313006    3.160246    6.304827
     94          1           0        8.017218    2.695830    4.764542
     95          1           0        7.280171   -1.702621    3.574971
     96          1           0        6.897424   -3.470563    3.202057
     97          1           0        5.844732   -2.388722    4.155736
     98          1           0        3.248975   -4.395082   -0.817471
     99          1           0        8.068172   -4.354610   -2.786621
    100          1           0        6.638806   -4.491363   -4.016493
    101          1           0        6.850595   -5.645871   -2.778568
    102          1           0       -3.760445   -2.838780   -1.250935
    103          1           0       -3.834212   -1.798248    0.123191
    104          1           0       -3.708086   -4.776055    0.239699
    105          1           0       -4.754566   -1.985820    2.963832
    106          1           0       -3.396406   -1.481871    1.944883
    107          1           0       -3.102839   -2.284264    3.538710
    108          1           0       -3.684965   -4.738825    3.719625
    109          1           0       -4.049533   -5.669755    2.354207
    110          1           0       -6.043050   -3.684845    3.709216
    111          1           0       -5.889770   -5.317496    4.069262
    112          1           0       -7.308852   -6.007636    2.396086
    113          1           0       -6.175684   -5.345221    1.226831
    114          1           0       -8.361143   -3.722690    2.675636
    115          1           0       -9.808641   -5.080695    1.703886
    116          1           0       -8.667965   -5.823059    0.493579
    117          1           0       -9.472543   -4.296274    0.331878
    118          1           0       -7.822768   -3.124310   -0.252861
    119          1           0       -6.351153   -2.850433    0.677115
    120          1           0       -8.493660   -1.602554    2.153221
    121          1           0       -8.819635   -1.489681    0.415078
    122          1           0       -6.173936   -0.596758    1.037213
    123          1           0       -7.217094    0.261697    2.110511
    124          1           0       -8.481185    0.330122   -0.451884
    125          1           0       -6.729938    1.149620   -1.931481
    126          1           0       -5.701041    0.413454   -0.779261
    127          1           0       -6.125487    2.178435   -0.652486
    128          1           0       -7.459117    2.807567    0.949798
    129          1           0       -8.808852    1.866955    1.615320
    130          1           0       -9.130595    2.457460   -1.242072
    131          1           0       -8.827906    3.945440   -0.303156
    132          1           0      -10.876935    2.813640    1.120802
    133          1           0      -11.225517    2.471690   -0.505516
    134          1           0      -10.309410    5.346518    0.368552
    135          1           0      -12.710510    5.113309    1.363844
    136          1           0      -13.059523    3.933862    0.172572
    137          1           0      -12.905970    5.674648   -0.253512
    138          1           0       -9.901240    5.564286   -1.658043
    139          1           0      -11.593776    5.759056   -1.808921
    140          1           0      -10.715105    4.278048   -2.407801
 ---------------------------------------------------------------------

 SCF Done:  E(RPBE1PBE) =  -3005.34380807     A.U. after   15 cycles

 Excitation energies and oscillator strengths:

 Excited State   1:      Singlet-A      1.8063 eV  686.41 nm  f=0.3666  <S**2>=0.000
     245 -> 248       -0.16803
     246 -> 247        0.69440
     246 <- 247       -0.11373
 This state for optimization and/or second-order correction.
 Total Energy, E(TD-HF/TD-DFT) =  -3005.27742932
 Copying the excited state density for this state as the 1-particle RhoCI density.

 Excited State   2:      Singlet-A      2.1784 eV  569.14 nm  f=0.1154  <S**2>=0.000
     245 -> 247        0.65132
     246 -> 248        0.24721

 Excited State   3:      Singlet-A      2.7383 eV  452.78 nm  f=0.0004  <S**2>=0.000
     244 -> 247        0.66793
     244 -> 248       -0.10975
     244 -> 249        0.16296

 Excited State   4:      Singlet-A      2.8645 eV  432.83 nm  f=0.0004  <S**2>=0.000
     240 -> 247        0.48589
     242 -> 247        0.46466
     246 -> 248       -0.14832

 Excited State   5:      Singlet-A      2.9182 eV  424.86 nm  f=0.0015  <S**2>=0.000
     240 -> 247       -0.46386
     242 -> 247        0.50410

 The electronic state is 1-A.
 Alpha  occ. eigenvalues --  -46.93036 -19.26762 -19.25291 -19.20378 -19.19094
 Alpha  occ. eigenvalues --  -19.19084 -19.17819 -14.42254 -14.42211 -14.40033
 Alpha  occ. eigenvalues --  -14.39029 -10.36602 -10.36568 -10.32050 -10.31413
 Alpha  occ. eigenvalues --  -10.29674 -10.29472 -10.29374 -10.29253 -10.28990
 Alpha  occ. eigenvalues --  -10.28990 -10.28909 -10.28030 -10.27155 -10.27104
 Alpha  occ. eigenvalues --  -10.26859 -10.26725 -10.26274 -10.26093 -10.25953
 Alpha  occ. eigenvalues --  -10.25945 -10.25718 -10.25351 -10.25309 -10.25160
 Alpha  occ. eigenvalues --  -10.24980 -10.24948 -10.24805 -10.24705 -10.24686
 Alpha  occ. eigenvalues --  -10.24102 -10.24031 -10.23932 -10.23730 -10.23723
 Alpha  occ. eigenvalues --  -10.23682 -10.23635 -10.23343 -10.23342 -10.23235
 Alpha  occ. eigenvalues --  -10.23212 -10.23211 -10.23141 -10.22927 -10.22726
 Alpha  occ. eigenvalues --  -10.22652 -10.22645 -10.22203 -10.22100 -10.21953
 Alpha  occ. eigenvalues --  -10.21795 -10.21711 -10.21685 -10.21627 -10.21516
 Alpha  occ. eigenvalues --  -10.21277  -3.15121  -1.87926  -1.87511  -1.87338
 Alpha  occ. eigenvalues --   -1.11863  -1.10996  -1.05056  -1.03034  -1.02624
 Alpha  occ. eigenvalues --   -1.01027  -0.98897  -0.98025  -0.97617  -0.96417
 Alpha  occ. eigenvalues --   -0.86671  -0.84616  -0.83792  -0.83381  -0.83047
 Alpha  occ. eigenvalues --   -0.82706  -0.82051  -0.81771  -0.81372  -0.81035
 Alpha  occ. eigenvalues --   -0.80622  -0.79412  -0.78359  -0.78157  -0.77674
 Alpha  occ. eigenvalues --   -0.76492  -0.75886  -0.75034  -0.74897  -0.74477
 Alpha  occ. eigenvalues --   -0.74047  -0.72291  -0.72121  -0.71673  -0.70659
 Alpha  occ. eigenvalues --   -0.70131  -0.69760  -0.68984  -0.68693  -0.68600
 Alpha  occ. eigenvalues --   -0.67789  -0.67372  -0.66434  -0.64942  -0.63517
 Alpha  occ. eigenvalues --   -0.63116  -0.62338  -0.62125  -0.61362  -0.60729
 Alpha  occ. eigenvalues --   -0.59729  -0.59371  -0.59162  -0.58835  -0.57989
 Alpha  occ. eigenvalues --   -0.57665  -0.57653  -0.57591  -0.56888  -0.55055
 Alpha  occ. eigenvalues --   -0.53999  -0.53648  -0.53482  -0.52998  -0.52664
 Alpha  occ. eigenvalues --   -0.52083  -0.51534  -0.50908  -0.50544  -0.50062
 Alpha  occ. eigenvalues --   -0.49867  -0.49290  -0.49082  -0.48631  -0.48414
 Alpha  occ. eigenvalues --   -0.48175  -0.47800  -0.47695  -0.47359  -0.47281
 Alpha  occ. eigenvalues --   -0.47230  -0.46957  -0.46555  -0.46079  -0.45978
 Alpha  occ. eigenvalues --   -0.45814  -0.45706  -0.45599  -0.45374  -0.45130
 Alpha  occ. eigenvalues --   -0.44935  -0.44721  -0.44240  -0.44033  -0.43987
 Alpha  occ. eigenvalues --   -0.43816  -0.43768  -0.43601  -0.43375  -0.43058
 Alpha  occ. eigenvalues --   -0.42964  -0.42737  -0.42395  -0.42346  -0.42231
 Alpha  occ. eigenvalues --   -0.42042  -0.41724  -0.41568  -0.41502  -0.41326
 Alpha  occ. eigenvalues --   -0.41182  -0.41006  -0.40562  -0.40263  -0.40090
 Alpha  occ. eigenvalues --   -0.40053  -0.39914  -0.39655  -0.39624  -0.39395
 Alpha  occ. eigenvalues --   -0.39379  -0.39279  -0.39114  -0.39074  -0.38847
 Alpha  occ. eigenvalues --   -0.38602  -0.38332  -0.38001  -0.37937  -0.37507
 Alpha  occ. eigenvalues --   -0.37409  -0.37325  -0.37183  -0.36920  -0.36912
 Alpha  occ. eigenvalues --   -0.36508  -0.36378  -0.36217  -0.35973  -0.35848
 Alpha  occ. eigenvalues --   -0.35430  -0.35350  -0.35192  -0.34929  -0.34827
 Alpha  occ. eigenvalues --   -0.34226  -0.34093  -0.34020  -0.33850  -0.33517
 Alpha  occ. eigenvalues --   -0.33279  -0.33086  -0.32640  -0.32592  -0.32474
 Alpha  occ. eigenvalues --   -0.32170  -0.31938  -0.31698  -0.31558  -0.31329
 Alpha  occ. eigenvalues --   -0.30945  -0.30222  -0.30094  -0.30030  -0.29551
 Alpha  occ. eigenvalues --   -0.28992  -0.28739  -0.28345  -0.26913  -0.25685
 Alpha  occ. eigenvalues --   -0.25553  -0.25289  -0.25135  -0.24833  -0.21316
 Alpha  occ. eigenvalues --   -0.19084
 Alpha virt. eigenvalues --   -0.11730  -0.05736  -0.03910  -0.01987  -0.01505
 Alpha virt. eigenvalues --   -0.00202   0.00102   0.00657   0.00988   0.03030
 Alpha virt. eigenvalues --    0.03903   0.04576   0.04979   0.05166   0.05918

 Mulliken charges:
               1
     1  Mg   0.978584
     2  C   -0.043372
     3  C   -0.064069
     4  C   -0.057620
     5  C   -0.100030
     6  N   -0.345813
     7  C    0.022983
     8  C   -0.052165
     9  C   -0.114955
    10  C   -0.010846
    11  C    0.018395
    12  C   -0.048035
    13  C   -0.054853
    14  C    0.269124
    15  O   -0.295936
    16  O   -0.339332
    17  N   -0.482675
    18  C    0.200364
    19  C   -0.177161
    20  C   -0.026799
    21  C    0.209330
    22  C    0.097974
    23  C   -0.007578
    24  O   -0.271250
    25  C   -0.010458
    26  N   -0.463103
    27  C    0.037568
    28  C   -0.083641
    29  C   -0.116430
    30  C    0.136550
    31  C   -0.006635
    32  C   -0.050716
    33  C   -0.078654
    34  N   -0.470275
    35  C    0.174649
    36  C   -0.227255
    37  C   -0.004478
    38  C    0.123792
    39  C    0.075094
    40  C    0.137047
    41  O   -0.202444
    42  C   -0.109751
    43  C    0.307025
    44  O   -0.278298
    45  O   -0.349131
    46  C    0.132137
    47  C    0.223087
    48  C   -0.130578
    49  C   -0.211482
    50  C    0.030110
    51  C   -0.008884
    52  C   -0.044404
    53  C    0.006350
    54  C   -0.229336
    55  C    0.000458
    56  C   -0.001702
    57  C   -0.078613
    58  C    0.024124
    59  C   -0.220653
    60  C   -0.015527
    61  C    0.027971
    62  C   -0.052328
    63  C    0.013917
    64  C   -0.265672
    65  C   -0.008828
    66  C   -0.044158
    67  H    0.014382
    68  H   -0.013777
    69  H    0.011342
    70  H    0.050242
    71  H    0.068157
    72  H    0.040758
    73  H    0.058253
    74  H    0.054801
    75  H    0.049209
    76  H    0.052947
    77  H    0.071739
    78  H    0.078793
    79  H    0.064588
    80  H    0.006990
    81  H    0.067394
    82  H    0.056488
    83  H    0.061418
    84  H    0.050246
    85  H    0.064949
    86  H    0.052931
    87  H    0.030764
    88  H    0.046161
    89  H    0.045928
    90  H    0.047228
    91  H    0.036574
    92  H    0.057404
    93  H    0.047475
    94  H    0.032479
    95  H    0.036017
    96  H    0.068118
    97  H    0.051931
    98  H    0.070749
    99  H    0.069143
   100  H    0.072761
   101  H    0.057266
   102  H    0.045708
   103  H    0.053831
   104  H    0.031482
   105  H    0.055900
   106  H    0.048789
   107  H    0.052559
   108  H    0.023619
   109  H    0.029729
   110  H    0.027623
   111  H    0.027807
   112  H    0.034992
   113  H    0.033701
   114  H    0.036081
   115  H    0.024727
   116  H    0.049541
   117  H    0.005566
   118  H    0.030803
   119  H    0.031308
   120  H    0.033234
   121  H    0.029667
   122  H    0.018127
   123  H    0.019655
   124  H    0.036800
   125  H    0.032882
   126  H    0.031792
   127  H    0.036442
   128  H    0.027269
   129  H    0.024514
   130  H    0.032448
   131  H    0.025347
   132  H    0.022063
   133  H    0.025085
   134  H    0.044365
   135  H    0.033230
   136  H    0.033434
   137  H    0.029167
   138  H    0.022168
   139  H    0.030274
   140  H    0.045712
 Sum of Mulliken charges =  -0.00000

 Dipole moment (field-independent basis, Debye):
    X=              2.7350    Y=              2.9426    Z=              3.7581  Tot=              5.5011
 Quadrupole moment (field-independent basis, Debye-Ang):
   XX=           -356.1966   YY=           -439.3980   ZZ=           -385.8401
   XY=             32.5937   XZ=             -5.1838   YZ=             12.4450

 Normal termination of Gaussian 16 at Wed May  4 13:17:58 2022.
