 Gaussian 16, Revision A.03,
 Gaussian 16:  ES64L-G16RevA.03 25-Dec-2016

 --------------------------------
 #p wB97XD/Def2SVP td=(nstates=5)
 --------------------------------

 ----------------------------------------------------
 step_1751_chromophore_2 TDDFT with wB97XD functional
 ----------------------------------------------------
 Symbolic Z-matrix:
 Charge =  0 Multiplicity = 1

                         Standard orientation:
 ---------------------------------------------------------------------
 Center     Atomic      Atomic             Coordinates (Angstroms)
 Number     Number       Type             X           Y           Z
 ---------------------------------------------------------------------
      1         12           0        4.069467    1.289085   -0.341695
      2          6           0        3.853797   -2.306219   -0.949188
      3          6           0        1.586105    1.647805   -2.727492
      4          6           0        3.771844    4.446674    0.594334
      5          6           0        6.035114    0.459737    2.569377
      6          7           0        2.785638   -0.195118   -1.586563
      7          6           0        3.050743   -1.497831   -1.803071
      8          6           0        2.219061   -2.024180   -3.010828
      9          6           0        1.511625   -0.760669   -3.680973
     10          6           0        2.011949    0.309840   -2.640839
     11          6           0        1.815244   -0.377892   -5.201416
     12          6           0        1.242424   -3.171861   -2.587494
     13          6           0        0.281347   -3.056093   -1.301575
     14          6           0       -1.186833   -3.022287   -1.535116
     15          8           0       -1.735662   -3.388816   -2.601703
     16          8           0       -1.869999   -2.538472   -0.474804
     17          7           0        2.854656    2.835028   -0.984548
     18          6           0        1.897400    2.794752   -1.949318
     19          6           0        1.422886    4.125046   -2.252211
     20          6           0        2.008243    5.006756   -1.266966
     21          6           0        2.871443    4.074614   -0.447587
     22          6           0        0.489036    4.579982   -3.303804
     23          6           0        1.874588    6.444757   -1.103652
     24          8           0        1.086196    7.072790   -1.831998
     25          6           0        2.592591    7.346852   -0.099212
     26          7           0        4.708029    2.234224    1.333285
     27          6           0        4.600877    3.616534    1.396295
     28          6           0        5.460860    4.217145    2.543420
     29          6           0        6.132634    2.891917    3.103979
     30          6           0        5.601317    1.781077    2.266572
     31          6           0        6.493832    5.199303    2.018628
     32          6           0        5.918567    2.710853    4.693000
     33          6           0        7.232593    2.451142    5.480855
     34          7           0        4.904552   -0.505638    0.543646
     35          6           0        5.577491   -0.642948    1.794201
     36          6           0        5.811304   -1.981082    2.042960
     37          6           0        5.256581   -2.761955    1.019474
     38          6           0        4.658725   -1.790466    0.126592
     39          6           0        6.530778   -2.449480    3.311522
     40          6           0        4.972673   -4.055741    0.423720
     41          8           0        5.380588   -5.145679    0.759344
     42          6           0        4.163336   -3.807173   -0.896665
     43          6           0        4.938562   -4.208756   -2.081992
     44          8           0        4.398927   -4.746663   -3.056889
     45          8           0        6.236640   -3.856799   -1.960282
     46          6           0        7.026172   -4.593636   -3.002776
     47          6           0       -3.281039   -2.640466   -0.293444
     48          6           0       -3.532197   -3.785757    0.660254
     49          6           0       -3.791817   -3.569836    1.992837
     50          6           0       -3.739194   -2.234863    2.655140
     51          6           0       -4.294640   -4.713710    2.816321
     52          6           0       -5.844326   -4.637436    3.218402
     53          6           0       -6.803953   -5.093789    2.081317
     54          6           0       -7.926447   -4.069480    1.737667
     55          6           0       -8.950291   -4.929123    1.049413
     56          6           0       -7.439025   -2.860054    0.733025
     57          6           0       -8.033047   -1.514563    1.169254
     58          6           0       -7.192946   -0.223155    1.135242
     59          6           0       -7.686831    0.831184    0.101166
     60          6           0       -6.479519    1.170874   -0.871326
     61          6           0       -8.256922    2.106003    0.705474
     62          6           0       -9.177398    2.913811   -0.252679
     63          6           0      -10.609226    3.125589    0.110812
     64          6           0      -10.991455    4.612245   -0.059685
     65          6           0      -12.493184    4.851512    0.329423
     66          6           0      -10.834414    5.004157   -1.604370
     67          1           0        0.813904    1.696964   -3.497467
     68          1           0        3.947606    5.477790    0.908438
     69          1           0        6.757954    0.264996    3.364320
     70          1           0        2.888363   -2.475021   -3.743716
     71          1           0        0.443506   -0.864388   -3.487163
     72          1           0        2.248573    0.622353   -5.178269
     73          1           0        0.852432   -0.295411   -5.706086
     74          1           0        2.576689   -1.011981   -5.656773
     75          1           0        1.817129   -4.097852   -2.604306
     76          1           0        0.625409   -3.395671   -3.458132
     77          1           0        0.560534   -2.136793   -0.786301
     78          1           0        0.707945   -3.790076   -0.616920
     79          1           0       -0.438438    4.983511   -2.899025
     80          1           0        0.146258    3.705521   -3.857009
     81          1           0        0.951085    5.266178   -4.014113
     82          1           0        3.672950    7.322333   -0.243920
     83          1           0        2.366635    7.148843    0.947606
     84          1           0        2.285488    8.375895   -0.287044
     85          1           0        4.801108    4.709888    3.257869
     86          1           0        7.211320    2.767995    3.016911
     87          1           0        6.343283    6.151243    2.528196
     88          1           0        6.388814    5.482293    0.971711
     89          1           0        7.561425    5.031760    2.159569
     90          1           0        5.212632    1.913280    4.923179
     91          1           0        5.449282    3.608170    5.095746
     92          1           0        7.328600    1.423027    5.831385
     93          1           0        7.313006    3.160246    6.304827
     94          1           0        8.017218    2.695830    4.764542
     95          1           0        7.280171   -1.702621    3.574971
     96          1           0        6.897424   -3.470563    3.202057
     97          1           0        5.844732   -2.388722    4.155736
     98          1           0        3.248975   -4.395082   -0.817471
     99          1           0        8.068172   -4.354610   -2.786621
    100          1           0        6.638806   -4.491363   -4.016493
    101          1           0        6.850595   -5.645871   -2.778568
    102          1           0       -3.760445   -2.838780   -1.250935
    103          1           0       -3.834212   -1.798248    0.123191
    104          1           0       -3.708086   -4.776055    0.239699
    105          1           0       -4.754566   -1.985820    2.963832
    106          1           0       -3.396406   -1.481871    1.944883
    107          1           0       -3.102839   -2.284264    3.538710
    108          1           0       -3.684965   -4.738825    3.719625
    109          1           0       -4.049533   -5.669755    2.354207
    110          1           0       -6.043050   -3.684845    3.709216
    111          1           0       -5.889770   -5.317496    4.069262
    112          1           0       -7.308852   -6.007636    2.396086
    113          1           0       -6.175684   -5.345221    1.226831
    114          1           0       -8.361143   -3.722690    2.675636
    115          1           0       -9.808641   -5.080695    1.703886
    116          1           0       -8.667965   -5.823059    0.493579
    117          1           0       -9.472543   -4.296274    0.331878
    118          1           0       -7.822768   -3.124310   -0.252861
    119          1           0       -6.351153   -2.850433    0.677115
    120          1           0       -8.493660   -1.602554    2.153221
    121          1           0       -8.819635   -1.489681    0.415078
    122          1           0       -6.173936   -0.596758    1.037213
    123          1           0       -7.217094    0.261697    2.110511
    124          1           0       -8.481185    0.330122   -0.451884
    125          1           0       -6.729938    1.149620   -1.931481
    126          1           0       -5.701041    0.413454   -0.779261
    127          1           0       -6.125487    2.178435   -0.652486
    128          1           0       -7.459117    2.807567    0.949798
    129          1           0       -8.808852    1.866955    1.615320
    130          1           0       -9.130595    2.457460   -1.242072
    131          1           0       -8.827906    3.945440   -0.303156
    132          1           0      -10.876935    2.813640    1.120802
    133          1           0      -11.225517    2.471690   -0.505516
    134          1           0      -10.309410    5.346518    0.368552
    135          1           0      -12.710510    5.113309    1.363844
    136          1           0      -13.059523    3.933862    0.172572
    137          1           0      -12.905970    5.674648   -0.253512
    138          1           0       -9.901240    5.564286   -1.658043
    139          1           0      -11.593776    5.759056   -1.808921
    140          1           0      -10.715105    4.278048   -2.407801
 ---------------------------------------------------------------------

 SCF Done:  E(RwB97XD) =  -3007.85391186     A.U. after   20 cycles

 Excitation energies and oscillator strengths:

 Excited State   1:      Singlet-A      1.5785 eV  785.44 nm  f=0.3826  <S**2>=0.000
     245 -> 248       -0.18027
     246 -> 247        0.68482
     245 <- 248       -0.11781
 This state for optimization and/or second-order correction.
 Total Energy, E(TD-HF/TD-DFT) =  -3007.79590182
 Copying the excited state density for this state as the 1-particle RhoCI density.

 Excited State   2:      Singlet-A      2.1198 eV  584.88 nm  f=0.1172  <S**2>=0.000
     245 -> 247        0.63929
     246 -> 248        0.28133

 Excited State   3:      Singlet-A      3.1792 eV  389.98 nm  f=0.0036  <S**2>=0.000
     242 -> 247       -0.22159
     243 -> 247        0.61497
     246 -> 248       -0.19757

 Excited State   4:      Singlet-A      3.3289 eV  372.45 nm  f=0.0032  <S**2>=0.000
     241 -> 247        0.19700
     241 -> 248       -0.11551
     241 -> 249        0.21531
     241 -> 251       -0.12280
     242 -> 247        0.45206
     242 -> 248       -0.11817
     242 -> 249        0.25493
     242 -> 251       -0.11280
     243 -> 247        0.18537

 Excited State   5:      Singlet-A      3.4318 eV  361.28 nm  f=0.0763  <S**2>=0.000
     239 -> 247        0.17686
     240 -> 247        0.43684
     240 -> 249       -0.18102
     240 -> 251       -0.14838
     241 -> 247        0.26532
     243 -> 247       -0.16820
     246 -> 248       -0.25869

 The electronic state is 1-A.
 Alpha  occ. eigenvalues --  -46.95981 -19.31423 -19.29850 -19.25132 -19.24023
 Alpha  occ. eigenvalues --  -19.23763 -19.22542 -14.47418 -14.47229 -14.44995
 Alpha  occ. eigenvalues --  -14.43977 -10.43498 -10.43397 -10.39021 -10.38182
 Alpha  occ. eigenvalues --  -10.35961 -10.35960 -10.35800 -10.35567 -10.35476
 Alpha  occ. eigenvalues --  -10.35259 -10.35209 -10.34288 -10.33528 -10.33457
 Alpha  occ. eigenvalues --  -10.33169 -10.33071 -10.32562 -10.32511 -10.32474
 Alpha  occ. eigenvalues --  -10.32112 -10.31977 -10.31825 -10.31616 -10.31479
 Alpha  occ. eigenvalues --  -10.31468 -10.31377 -10.31122 -10.30968 -10.30953
 Alpha  occ. eigenvalues --  -10.30485 -10.30296 -10.30286 -10.30151 -10.30085
 Alpha  occ. eigenvalues --  -10.29998 -10.29992 -10.29689 -10.29672 -10.29652
 Alpha  occ. eigenvalues --  -10.29622 -10.29617 -10.29585 -10.29245 -10.29197
 Alpha  occ. eigenvalues --  -10.29019 -10.29012 -10.28566 -10.28477 -10.28326
 Alpha  occ. eigenvalues --  -10.28170 -10.28136 -10.28102 -10.28011 -10.27912
 Alpha  occ. eigenvalues --  -10.27695  -3.21944  -1.95496  -1.95080  -1.94905
 Alpha  occ. eigenvalues --   -1.19351  -1.18378  -1.12642  -1.10454  -1.10068
 Alpha  occ. eigenvalues --   -1.08389  -1.06253  -1.05390  -1.05061  -1.03836
 Alpha  occ. eigenvalues --   -0.94398  -0.92280  -0.91459  -0.90963  -0.90616
 Alpha  occ. eigenvalues --   -0.90368  -0.89698  -0.89384  -0.89033  -0.88671
 Alpha  occ. eigenvalues --   -0.88244  -0.87057  -0.85997  -0.85788  -0.85333
 Alpha  occ. eigenvalues --   -0.84143  -0.83568  -0.82707  -0.82551  -0.82153
 Alpha  occ. eigenvalues --   -0.81704  -0.79954  -0.79740  -0.79329  -0.78342
 Alpha  occ. eigenvalues --   -0.77795  -0.77339  -0.76685  -0.76378  -0.76266
 Alpha  occ. eigenvalues --   -0.75378  -0.74962  -0.73979  -0.72548  -0.71080
 Alpha  occ. eigenvalues --   -0.70683  -0.69856  -0.69706  -0.68956  -0.68202
 Alpha  occ. eigenvalues --   -0.67177  -0.66964  -0.66653  -0.66393  -0.65640
 Alpha  occ. eigenvalues --   -0.65343  -0.65136  -0.65060  -0.64542  -0.62529
 Alpha  occ. eigenvalues --   -0.61363  -0.61185  -0.60876  -0.60513  -0.60154
 Alpha  occ. eigenvalues --   -0.59498  -0.58959  -0.58314  -0.58002  -0.57485
 Alpha  occ. eigenvalues --   -0.57372  -0.56706  -0.56495  -0.55992  -0.55859
 Alpha  occ. eigenvalues --   -0.55573  -0.55133  -0.55117  -0.54756  -0.54655
 Alpha  occ. eigenvalues --   -0.54626  -0.54275  -0.53954  -0.53552  -0.53359
 Alpha  occ. eigenvalues --   -0.53152  -0.53064  -0.52955  -0.52777  -0.52464
 Alpha  occ. eigenvalues --   -0.52200  -0.52085  -0.51587  -0.51416  -0.51308
 Alpha  occ. eigenvalues --   -0.51186  -0.51131  -0.50888  -0.50697  -0.50287
 Alpha  occ. eigenvalues --   -0.50272  -0.50024  -0.49696  -0.49641  -0.49503
 Alpha  occ. eigenvalues --   -0.49235  -0.48992  -0.48801  -0.48695  -0.48529
 Alpha  occ. eigenvalues --   -0.48422  -0.48229  -0.47731  -0.47454  -0.47308
 Alpha  occ. eigenvalues --   -0.47279  -0.47119  -0.46900  -0.46850  -0.46646
 Alpha  occ. eigenvalues --   -0.46537  -0.46478  -0.46302  -0.46267  -0.46030
 Alpha  occ. eigenvalues --   -0.45791  -0.45493  -0.45145  -0.45037  -0.44648
 Alpha  occ. eigenvalues --   -0.44471  -0.44422  -0.44261  -0.44042  -0.44029
 Alpha  occ. eigenvalues --   -0.43614  -0.43477  -0.43315  -0.43049  -0.42858
 Alpha  occ. eigenvalues --   -0.42517  -0.42376  -0.42151  -0.42025  -0.41799
 Alpha  occ. eigenvalues --   -0.41337  -0.41174  -0.40943  -0.40934  -0.40564
 Alpha  occ. eigenvalues --   -0.40253  -0.40170  -0.39688  -0.39664  -0.39474
 Alpha  occ. eigenvalues --   -0.39144  -0.38988  -0.38774  -0.38415  -0.38330
 Alpha  occ. eigenvalues --   -0.37917  -0.37179  -0.37069  -0.37035  -0.36443
 Alpha  occ. eigenvalues --   -0.35866  -0.35576  -0.35395  -0.33519  -0.32832
 Alpha  occ. eigenvalues --   -0.32199  -0.31906  -0.31820  -0.31762  -0.26309
 Alpha  occ. eigenvalues --   -0.23210
 Alpha virt. eigenvalues --   -0.07704  -0.00281   0.02320   0.04397   0.04555
 Alpha virt. eigenvalues --    0.06508   0.06856   0.07369   0.07783   0.09713
 Alpha virt. eigenvalues --    0.10604   0.11147   0.11526   0.11783   0.12619

 Mulliken charges:
               1
     1  Mg   0.969972
     2  C   -0.049768
     3  C   -0.076812
     4  C   -0.070088
     5  C   -0.121284
     6  N   -0.311812
     7  C   -0.003521
     8  C   -0.033540
     9  C   -0.092667
    10  C   -0.024268
    11  C    0.031383
    12  C   -0.034911
    13  C   -0.037804
    14  C    0.258892
    15  O   -0.292335
    16  O   -0.337394
    17  N   -0.450194
    18  C    0.192859
    19  C   -0.168395
    20  C   -0.023593
    21  C    0.203683
    22  C    0.107874
    23  C   -0.010532
    24  O   -0.268224
    25  C    0.003470
    26  N   -0.433083
    27  C    0.027257
    28  C   -0.053951
    29  C   -0.088740
    30  C    0.127641
    31  C    0.000160
    32  C   -0.040199
    33  C   -0.060370
    34  N   -0.437655
    35  C    0.171363
    36  C   -0.223531
    37  C   -0.000369
    38  C    0.105757
    39  C    0.086349
    40  C    0.119088
    41  O   -0.192531
    42  C   -0.062873
    43  C    0.282042
    44  O   -0.272686
    45  O   -0.350605
    46  C    0.147972
    47  C    0.243284
    48  C   -0.138598
    49  C   -0.199203
    50  C    0.044729
    51  C    0.008333
    52  C   -0.031047
    53  C    0.024596
    54  C   -0.202962
    55  C    0.012126
    56  C    0.026618
    57  C   -0.061926
    58  C    0.047880
    59  C   -0.190423
    60  C   -0.001235
    61  C    0.043776
    62  C   -0.032000
    63  C    0.020122
    64  C   -0.228451
    65  C    0.003590
    66  C   -0.035268
    67  H    0.007054
    68  H   -0.028273
    69  H    0.001997
    70  H    0.039691
    71  H    0.056584
    72  H    0.032515
    73  H    0.053674
    74  H    0.050317
    75  H    0.038918
    76  H    0.045647
    77  H    0.062105
    78  H    0.073231
    79  H    0.061245
    80  H    0.000305
    81  H    0.064239
    82  H    0.050725
    83  H    0.056866
    84  H    0.048749
    85  H    0.056703
    86  H    0.037557
    87  H    0.025106
    88  H    0.039278
    89  H    0.041431
    90  H    0.039204
    91  H    0.028293
    92  H    0.052038
    93  H    0.042552
    94  H    0.024394
    95  H    0.029468
    96  H    0.065381
    97  H    0.046657
    98  H    0.062815
    99  H    0.067403
   100  H    0.069219
   101  H    0.052078
   102  H    0.042556
   103  H    0.043416
   104  H    0.028631
   105  H    0.046377
   106  H    0.043590
   107  H    0.048197
   108  H    0.015776
   109  H    0.022686
   110  H    0.018027
   111  H    0.021188
   112  H    0.026687
   113  H    0.021393
   114  H    0.024811
   115  H    0.019309
   116  H    0.044511
   117  H   -0.003082
   118  H    0.022567
   119  H    0.005477
   120  H    0.025067
   121  H    0.019267
   122  H   -0.002293
   123  H    0.011930
   124  H    0.021991
   125  H    0.027581
   126  H    0.024418
   127  H    0.029641
   128  H    0.018361
   129  H    0.014801
   130  H    0.022860
   131  H    0.012868
   132  H    0.013390
   133  H    0.016705
   134  H    0.034123
   135  H    0.027828
   136  H    0.026727
   137  H    0.022580
   138  H    0.015186
   139  H    0.023223
   140  H    0.040498
 Sum of Mulliken charges =  -0.00000

 Dipole moment (field-independent basis, Debye):
    X=              2.8165    Y=              2.8494    Z=              3.6968  Tot=              5.4514
 Quadrupole moment (field-independent basis, Debye-Ang):
   XX=           -355.3403   YY=           -438.6032   ZZ=           -385.9479
   XY=             31.5162   XZ=             -5.9462   YZ=             12.2425

 Normal termination of Gaussian 16 at Wed May  4 13:46:41 2022.
