 Gaussian 16, Revision A.03,
 Gaussian 16:  ES64L-G16RevA.03 25-Dec-2016

 --------------------
 #p ZINDO=(nstates=5)
 --------------------

 -----------------------------
 step_1751_chromophore_2 ZINDO
 -----------------------------
 Symbolic Z-matrix:
 Charge =  0 Multiplicity = 1

                         Standard orientation:
 ---------------------------------------------------------------------
 Center     Atomic      Atomic             Coordinates (Angstroms)
 Number     Number       Type             X           Y           Z
 ---------------------------------------------------------------------
      1         12           0        4.069467    1.289085   -0.341695
      2          6           0        3.853797   -2.306219   -0.949188
      3          6           0        1.586105    1.647805   -2.727492
      4          6           0        3.771844    4.446674    0.594334
      5          6           0        6.035114    0.459737    2.569377
      6          7           0        2.785638   -0.195118   -1.586563
      7          6           0        3.050743   -1.497831   -1.803071
      8          6           0        2.219061   -2.024180   -3.010828
      9          6           0        1.511625   -0.760669   -3.680973
     10          6           0        2.011949    0.309840   -2.640839
     11          6           0        1.815244   -0.377892   -5.201416
     12          6           0        1.242424   -3.171861   -2.587494
     13          6           0        0.281347   -3.056093   -1.301575
     14          6           0       -1.186833   -3.022287   -1.535116
     15          8           0       -1.735662   -3.388816   -2.601703
     16          8           0       -1.869999   -2.538472   -0.474804
     17          7           0        2.854656    2.835028   -0.984548
     18          6           0        1.897400    2.794752   -1.949318
     19          6           0        1.422886    4.125046   -2.252211
     20          6           0        2.008243    5.006756   -1.266966
     21          6           0        2.871443    4.074614   -0.447587
     22          6           0        0.489036    4.579982   -3.303804
     23          6           0        1.874588    6.444757   -1.103652
     24          8           0        1.086196    7.072790   -1.831998
     25          6           0        2.592591    7.346852   -0.099212
     26          7           0        4.708029    2.234224    1.333285
     27          6           0        4.600877    3.616534    1.396295
     28          6           0        5.460860    4.217145    2.543420
     29          6           0        6.132634    2.891917    3.103979
     30          6           0        5.601317    1.781077    2.266572
     31          6           0        6.493832    5.199303    2.018628
     32          6           0        5.918567    2.710853    4.693000
     33          6           0        7.232593    2.451142    5.480855
     34          7           0        4.904552   -0.505638    0.543646
     35          6           0        5.577491   -0.642948    1.794201
     36          6           0        5.811304   -1.981082    2.042960
     37          6           0        5.256581   -2.761955    1.019474
     38          6           0        4.658725   -1.790466    0.126592
     39          6           0        6.530778   -2.449480    3.311522
     40          6           0        4.972673   -4.055741    0.423720
     41          8           0        5.380588   -5.145679    0.759344
     42          6           0        4.163336   -3.807173   -0.896665
     43          6           0        4.938562   -4.208756   -2.081992
     44          8           0        4.398927   -4.746663   -3.056889
     45          8           0        6.236640   -3.856799   -1.960282
     46          6           0        7.026172   -4.593636   -3.002776
     47          6           0       -3.281039   -2.640466   -0.293444
     48          6           0       -3.532197   -3.785757    0.660254
     49          6           0       -3.791817   -3.569836    1.992837
     50          6           0       -3.739194   -2.234863    2.655140
     51          6           0       -4.294640   -4.713710    2.816321
     52          6           0       -5.844326   -4.637436    3.218402
     53          6           0       -6.803953   -5.093789    2.081317
     54          6           0       -7.926447   -4.069480    1.737667
     55          6           0       -8.950291   -4.929123    1.049413
     56          6           0       -7.439025   -2.860054    0.733025
     57          6           0       -8.033047   -1.514563    1.169254
     58          6           0       -7.192946   -0.223155    1.135242
     59          6           0       -7.686831    0.831184    0.101166
     60          6           0       -6.479519    1.170874   -0.871326
     61          6           0       -8.256922    2.106003    0.705474
     62          6           0       -9.177398    2.913811   -0.252679
     63          6           0      -10.609226    3.125589    0.110812
     64          6           0      -10.991455    4.612245   -0.059685
     65          6           0      -12.493184    4.851512    0.329423
     66          6           0      -10.834414    5.004157   -1.604370
     67          1           0        0.813904    1.696964   -3.497467
     68          1           0        3.947606    5.477790    0.908438
     69          1           0        6.757954    0.264996    3.364320
     70          1           0        2.888363   -2.475021   -3.743716
     71          1           0        0.443506   -0.864388   -3.487163
     72          1           0        2.248573    0.622353   -5.178269
     73          1           0        0.852432   -0.295411   -5.706086
     74          1           0        2.576689   -1.011981   -5.656773
     75          1           0        1.817129   -4.097852   -2.604306
     76          1           0        0.625409   -3.395671   -3.458132
     77          1           0        0.560534   -2.136793   -0.786301
     78          1           0        0.707945   -3.790076   -0.616920
     79          1           0       -0.438438    4.983511   -2.899025
     80          1           0        0.146258    3.705521   -3.857009
     81          1           0        0.951085    5.266178   -4.014113
     82          1           0        3.672950    7.322333   -0.243920
     83          1           0        2.366635    7.148843    0.947606
     84          1           0        2.285488    8.375895   -0.287044
     85          1           0        4.801108    4.709888    3.257869
     86          1           0        7.211320    2.767995    3.016911
     87          1           0        6.343283    6.151243    2.528196
     88          1           0        6.388814    5.482293    0.971711
     89          1           0        7.561425    5.031760    2.159569
     90          1           0        5.212632    1.913280    4.923179
     91          1           0        5.449282    3.608170    5.095746
     92          1           0        7.328600    1.423027    5.831385
     93          1           0        7.313006    3.160246    6.304827
     94          1           0        8.017218    2.695830    4.764542
     95          1           0        7.280171   -1.702621    3.574971
     96          1           0        6.897424   -3.470563    3.202057
     97          1           0        5.844732   -2.388722    4.155736
     98          1           0        3.248975   -4.395082   -0.817471
     99          1           0        8.068172   -4.354610   -2.786621
    100          1           0        6.638806   -4.491363   -4.016493
    101          1           0        6.850595   -5.645871   -2.778568
    102          1           0       -3.760445   -2.838780   -1.250935
    103          1           0       -3.834212   -1.798248    0.123191
    104          1           0       -3.708086   -4.776055    0.239699
    105          1           0       -4.754566   -1.985820    2.963832
    106          1           0       -3.396406   -1.481871    1.944883
    107          1           0       -3.102839   -2.284264    3.538710
    108          1           0       -3.684965   -4.738825    3.719625
    109          1           0       -4.049533   -5.669755    2.354207
    110          1           0       -6.043050   -3.684845    3.709216
    111          1           0       -5.889770   -5.317496    4.069262
    112          1           0       -7.308852   -6.007636    2.396086
    113          1           0       -6.175684   -5.345221    1.226831
    114          1           0       -8.361143   -3.722690    2.675636
    115          1           0       -9.808641   -5.080695    1.703886
    116          1           0       -8.667965   -5.823059    0.493579
    117          1           0       -9.472543   -4.296274    0.331878
    118          1           0       -7.822768   -3.124310   -0.252861
    119          1           0       -6.351153   -2.850433    0.677115
    120          1           0       -8.493660   -1.602554    2.153221
    121          1           0       -8.819635   -1.489681    0.415078
    122          1           0       -6.173936   -0.596758    1.037213
    123          1           0       -7.217094    0.261697    2.110511
    124          1           0       -8.481185    0.330122   -0.451884
    125          1           0       -6.729938    1.149620   -1.931481
    126          1           0       -5.701041    0.413454   -0.779261
    127          1           0       -6.125487    2.178435   -0.652486
    128          1           0       -7.459117    2.807567    0.949798
    129          1           0       -8.808852    1.866955    1.615320
    130          1           0       -9.130595    2.457460   -1.242072
    131          1           0       -8.827906    3.945440   -0.303156
    132          1           0      -10.876935    2.813640    1.120802
    133          1           0      -11.225517    2.471690   -0.505516
    134          1           0      -10.309410    5.346518    0.368552
    135          1           0      -12.710510    5.113309    1.363844
    136          1           0      -13.059523    3.933862    0.172572
    137          1           0      -12.905970    5.674648   -0.253512
    138          1           0       -9.901240    5.564286   -1.658043
    139          1           0      -11.593776    5.759056   -1.808921
    140          1           0      -10.715105    4.278048   -2.407801
 ---------------------------------------------------------------------

 SCF Done:  E(RZINDO/S) =  -473.997696220     A.U. after   20 cycles

 Excitation energies and oscillator strengths:

 Excited State   1:      Singlet-A      1.1916 eV 1040.45 nm  f=0.6173  <S**2>=0.000
     175 ->178        -0.19324
     176 ->177         0.66137
 This state for optimization and/or second-order correction.
 Total Energy, E(CIS/TDA) =  -473.953904199
 Copying the excited state density for this state as the 1-particle RhoCI density.

 Excited State   2:      Singlet-A      1.8514 eV  669.68 nm  f=0.0670  <S**2>=0.000
     175 ->177         0.55959
     176 ->178         0.40578

 Excited State   3:      Singlet-A      2.8032 eV  442.30 nm  f=0.0125  <S**2>=0.000
     170 ->177         0.31061
     170 ->178         0.18263
     170 ->179        -0.38155
     170 ->181        -0.30711
     170 ->185         0.19952
     170 ->187         0.13751
     170 ->195        -0.12652

 Excited State   4:      Singlet-A      2.9023 eV  427.19 nm  f=0.7758  <S**2>=0.000
     171 ->177        -0.11151
     172 ->177         0.10731
     175 ->177        -0.32629
     176 ->178         0.49780
     176 ->179        -0.12390
     176 ->180         0.18413

 Excited State   5:      Singlet-A      2.9916 eV  414.44 nm  f=0.0053  <S**2>=0.000
     168 ->177         0.30320
     168 ->179         0.26072
     168 ->181        -0.25011
     168 ->185        -0.15039
     168 ->187         0.10135
     169 ->177        -0.12950
     169 ->179        -0.10093
     169 ->181         0.13225
     176 ->179        -0.28422
     176 ->180         0.18039

 The electronic state is 1-A.
 Alpha  occ. eigenvalues --   -1.82337  -1.80807  -1.78530  -1.73789  -1.72939
 Alpha  occ. eigenvalues --   -1.69330  -1.64286  -1.61063  -1.58937  -1.58312
 Alpha  occ. eigenvalues --   -1.55023  -1.51796  -1.48594  -1.47148  -1.47072
 Alpha  occ. eigenvalues --   -1.45582  -1.40970  -1.40349  -1.39098  -1.38781
 Alpha  occ. eigenvalues --   -1.35859  -1.33989  -1.32424  -1.30131  -1.27987
 Alpha  occ. eigenvalues --   -1.27574  -1.25986  -1.21733  -1.20897  -1.17782
 Alpha  occ. eigenvalues --   -1.16101  -1.15135  -1.14716  -1.14036  -1.12896
 Alpha  occ. eigenvalues --   -1.12197  -1.11601  -1.10497  -1.05304  -1.04228
 Alpha  occ. eigenvalues --   -1.04114  -1.01683  -1.00205  -0.97982  -0.96846
 Alpha  occ. eigenvalues --   -0.95694  -0.94085  -0.93031  -0.92704  -0.91519
 Alpha  occ. eigenvalues --   -0.91307  -0.90140  -0.89343  -0.88319  -0.87888
 Alpha  occ. eigenvalues --   -0.85438  -0.84137  -0.83401  -0.82796  -0.80485
 Alpha  occ. eigenvalues --   -0.79148  -0.78166  -0.77350  -0.77335  -0.77213
 Alpha  occ. eigenvalues --   -0.76569  -0.75929  -0.75079  -0.74744  -0.73751
 Alpha  occ. eigenvalues --   -0.73563  -0.72937  -0.72532  -0.71532  -0.70606
 Alpha  occ. eigenvalues --   -0.70541  -0.69574  -0.69173  -0.68981  -0.68235
 Alpha  occ. eigenvalues --   -0.67828  -0.67061  -0.66543  -0.66150  -0.65370
 Alpha  occ. eigenvalues --   -0.64902  -0.64740  -0.64414  -0.64253  -0.63679
 Alpha  occ. eigenvalues --   -0.63149  -0.62952  -0.62505  -0.62236  -0.62067
 Alpha  occ. eigenvalues --   -0.61600  -0.61325  -0.60683  -0.60179  -0.59769
 Alpha  occ. eigenvalues --   -0.59100  -0.58606  -0.58188  -0.57832  -0.57652
 Alpha  occ. eigenvalues --   -0.57313  -0.57142  -0.56827  -0.56536  -0.56341
 Alpha  occ. eigenvalues --   -0.56157  -0.55912  -0.55528  -0.55101  -0.54653
 Alpha  occ. eigenvalues --   -0.54509  -0.54221  -0.53824  -0.53404  -0.53023
 Alpha  occ. eigenvalues --   -0.52832  -0.52552  -0.52477  -0.51978  -0.51790
 Alpha  occ. eigenvalues --   -0.51700  -0.51535  -0.51267  -0.51213  -0.50699
 Alpha  occ. eigenvalues --   -0.49825  -0.49596  -0.49302  -0.49005  -0.48723
 Alpha  occ. eigenvalues --   -0.48453  -0.48259  -0.48064  -0.47758  -0.47662
 Alpha  occ. eigenvalues --   -0.47356  -0.47171  -0.46894  -0.46612  -0.46012
 Alpha  occ. eigenvalues --   -0.45901  -0.45821  -0.45690  -0.45594  -0.45336
 Alpha  occ. eigenvalues --   -0.45301  -0.45101  -0.44931  -0.44701  -0.44232
 Alpha  occ. eigenvalues --   -0.44142  -0.43829  -0.43346  -0.43005  -0.42786
 Alpha  occ. eigenvalues --   -0.41977  -0.41903  -0.40679  -0.39257  -0.38851
 Alpha  occ. eigenvalues --   -0.38610  -0.37885  -0.35396  -0.35142  -0.34958
 Alpha  occ. eigenvalues --   -0.33303  -0.32993  -0.32497  -0.31770  -0.27006
 Alpha  occ. eigenvalues --   -0.22248
 Alpha virt. eigenvalues --   -0.09384  -0.02763  -0.00975   0.00543   0.01149
 Alpha virt. eigenvalues --    0.01509   0.02125   0.02393   0.04440   0.04454
 Alpha virt. eigenvalues --    0.05853   0.06524   0.07151   0.07660   0.07898

 Mulliken charges:
               1
     1  Mg   0.439673
     2  C   -0.049561
     3  C   -0.062628
     4  C   -0.096241
     5  C   -0.082517
     6  N   -0.278158
     7  C    0.141172
     8  C    0.008913
     9  C   -0.006643
    10  C    0.110019
    11  C   -0.048171
    12  C   -0.037945
    13  C    0.006188
    14  C    0.486048
    15  O   -0.534485
    16  O   -0.261255
    17  N   -0.303753
    18  C    0.109055
    19  C    0.054031
    20  C   -0.064474
    21  C    0.129410
    22  C   -0.029283
    23  C    0.324610
    24  O   -0.543387
    25  C   -0.026370
    26  N   -0.271494
    27  C    0.127454
    28  C    0.012907
    29  C   -0.008551
    30  C    0.133796
    31  C   -0.051287
    32  C   -0.038884
    33  C   -0.060695
    34  N   -0.353315
    35  C    0.093726
    36  C    0.036952
    37  C   -0.057372
    38  C    0.105366
    39  C   -0.047661
    40  C    0.335979
    41  O   -0.516246
    42  C    0.063646
    43  C    0.498658
    44  O   -0.546305
    45  O   -0.255952
    46  C    0.069460
    47  C    0.107006
    48  C   -0.106636
    49  C    0.001086
    50  C   -0.040589
    51  C   -0.024162
    52  C   -0.039477
    53  C   -0.028862
    54  C   -0.016834
    55  C   -0.060464
    56  C   -0.036434
    57  C   -0.042643
    58  C   -0.036264
    59  C   -0.007404
    60  C   -0.063638
    61  C   -0.028996
    62  C   -0.040430
    63  C   -0.021039
    64  C   -0.011947
    65  C   -0.063149
    66  C   -0.074249
    67  H    0.029214
    68  H    0.031585
    69  H    0.045110
    70  H    0.037983
    71  H    0.040535
    72  H    0.018976
    73  H    0.032389
    74  H    0.035745
    75  H    0.030051
    76  H    0.026622
    77  H    0.034538
    78  H    0.054087
    79  H    0.043683
    80  H    0.007692
    81  H    0.046848
    82  H    0.030347
    83  H    0.034508
    84  H    0.033904
    85  H    0.043074
    86  H    0.040015
    87  H    0.007251
    88  H    0.021528
    89  H    0.025605
    90  H    0.022248
    91  H    0.016720
    92  H    0.027580
    93  H    0.021047
    94  H    0.018895
    95  H    0.025279
    96  H    0.037799
    97  H    0.027447
    98  H    0.053259
    99  H    0.038673
   100  H    0.059576
   101  H    0.039958
   102  H    0.042485
   103  H    0.046446
   104  H    0.038010
   105  H    0.030006
   106  H    0.025460
   107  H    0.029573
   108  H    0.011540
   109  H    0.021132
   110  H    0.025911
   111  H    0.009049
   112  H    0.018123
   113  H    0.027045
   114  H    0.031071
   115  H    0.013187
   116  H    0.032614
   117  H   -0.000917
   118  H    0.024254
   119  H    0.021356
   120  H    0.019220
   121  H    0.017357
   122  H    0.021035
   123  H    0.012386
   124  H    0.024341
   125  H    0.015893
   126  H    0.018681
   127  H    0.022968
   128  H    0.018518
   129  H    0.016268
   130  H    0.020173
   131  H    0.019152
   132  H    0.011431
   133  H    0.017082
   134  H    0.035817
   135  H    0.013583
   136  H    0.018980
   137  H    0.018169
   138  H    0.003714
   139  H    0.017120
   140  H    0.032695
 Sum of Mulliken charges =  -0.00000

 Dipole moment (field-independent basis, Debye):
    X=              3.3359    Y=              4.7880    Z=              4.9919  Tot=              7.6793
 N-N= 4.478651943627D+03 E-N= 0.000000000000D+00  KE=-9.630977505361D+03
 Leave Link  601 at Wed May  4 14:00:38 2022, MaxMem=  6710886400 cpu:               0.8 elap:               0.0
 (Enter /sw/apps/gaussian-16.0/g16/l9999.exe)
 1\1\GINC-BP1-COMPUTE059\SP\RZINDO CIS\STO-3G\C55H74Mg1N4O6\OF15641\04-
 May-2022\0\\#p ZINDO=(nstates=5)\\step_1751_chromophore_2 ZINDO\\0,1\M
 g,0,2.077,-0.142,42.94\C,0,5.624,0.489,42.338\C,0,1.466,2.866,41.338\C
 ,0,-1.132,-0.939,42.893\C,0,3.048,-3.503,43.827\N,0,3.41,1.418,41.849\
 C,0,4.747,1.543,41.954\C,0,5.201,2.939,41.432\C,0,3.88,3.791,41.158\C,
 0,2.847,2.654,41.502\C,0,3.624,5.158,41.943\C,0,6.165,2.815,40.205\C,0
 ,5.841,1.866,38.946\C,0,5.597,2.518,37.632\O,0,5.929,3.697,37.362\O,0,

 Normal termination of Gaussian 16 at Wed May  4 14:00:38 2022.
