 Gaussian 16, Revision A.03,
 Gaussian 16:  ES64L-G16RevA.03 25-Dec-2016

 ------------------------------
 #p blyp/Def2SVP td=(nstates=5)
 ------------------------------

 ---------------------------------------------------
 step_1351_chromophore_11 TDDFT with blyp functional
 ---------------------------------------------------
 Symbolic Z-matrix:
 Charge =  0 Multiplicity = 1

                         Standard orientation:
 ---------------------------------------------------------------------
 Center     Atomic      Atomic             Coordinates (Angstroms)
 Number     Number       Type             X           Y           Z
 ---------------------------------------------------------------------
      1         12           0       -4.738060    1.509441    0.608180
      2          6           0       -5.344835   -2.043430    0.404568
      3          6           0       -2.247618    0.795333    2.826900
      4          6           0       -3.590350    4.613230    0.177571
      5          6           0       -7.008193    1.832240   -2.084382
      6          7           0       -3.869516   -0.373697    1.527928
      7          6           0       -4.264221   -1.740768    1.277450
      8          6           0       -3.484818   -2.660924    2.243907
      9          6           0       -2.872748   -1.623415    3.273235
     10          6           0       -2.970847   -0.333173    2.483378
     11          6           0       -3.706571   -1.472581    4.562700
     12          6           0       -2.517895   -3.606613    1.498356
     13          6           0       -1.860367   -3.217837    0.235542
     14          6           0       -0.901345   -4.163203   -0.498199
     15          8           0       -1.238413   -4.833399   -1.455196
     16          8           0        0.319312   -4.087833    0.069248
     17          7           0       -3.125794    2.634196    1.386405
     18          6           0       -2.274634    2.121935    2.347375
     19          6           0       -1.438586    3.149169    2.783374
     20          6           0       -1.723781    4.268812    1.987321
     21          6           0       -2.860164    3.815768    1.128997
     22          6           0       -0.402604    3.040687    3.943917
     23          6           0       -1.153331    5.655735    2.171005
     24          8           0       -0.315313    5.840207    3.075334
     25          6           0       -1.621949    6.794743    1.357549
     26          7           0       -5.110480    2.875674   -0.893895
     27          6           0       -4.656156    4.190638   -0.714301
     28          6           0       -5.401728    5.227221   -1.632941
     29          6           0       -6.309670    4.295567   -2.459971
     30          6           0       -6.188735    2.900290   -1.736047
     31          6           0       -5.951545    6.443888   -0.839454
     32          6           0       -5.765011    3.952183   -3.919345
     33          6           0       -6.933205    3.762039   -4.925368
     34          7           0       -6.057777    0.254612   -0.509133
     35          6           0       -6.987852    0.597970   -1.434875
     36          6           0       -7.715841   -0.630666   -1.847854
     37          6           0       -7.112940   -1.639473   -1.076657
     38          6           0       -6.048524   -1.086519   -0.340598
     39          6           0       -8.844147   -0.762899   -2.782285
     40          6           0       -7.325169   -3.008199   -0.688644
     41          8           0       -8.198038   -3.816773   -0.871930
     42          6           0       -6.120707   -3.395574    0.202821
     43          6           0       -5.421158   -4.486410   -0.480212
     44          8           0       -4.853724   -4.391784   -1.555961
     45          8           0       -5.506121   -5.674649    0.196740
     46          6           0       -4.721315   -6.797728   -0.340137
     47          6           0        1.331869   -5.073296   -0.300472
     48          6           0        2.518030   -4.271100   -0.741894
     49          6           0        3.442795   -3.667605    0.032376
     50          6           0        3.495018   -3.565278    1.515370
     51          6           0        4.559624   -2.945696   -0.752232
     52          6           0        5.711058   -2.211728   -0.075017
     53          6           0        6.374533   -1.028461   -0.974623
     54          6           0        6.336799    0.360301   -0.225127
     55          6           0        6.037707    1.545318   -1.231087
     56          6           0        7.602127    0.582924    0.653456
     57          6           0        8.954741    0.912240   -0.046152
     58          6           0        9.966885   -0.258823    0.135687
     59          6           0       11.243259    0.189129    0.919643
     60          6           0       10.935663    0.570693    2.363245
     61          6           0       12.183985    1.234950    0.185413
     62          6           0       12.991762    0.652375   -1.079101
     63          6           0       14.568845    0.738438   -0.852500
     64          6           0       15.325805    0.381227   -2.144306
     65          6           0       16.652123   -0.361408   -1.681936
     66          6           0       15.641875    1.691171   -2.916459
     67          1           0       -1.479534    0.675281    3.593359
     68          1           0       -3.459862    5.691170    0.063156
     69          1           0       -7.857349    2.000456   -2.749409
     70          1           0       -4.252586   -3.219759    2.778660
     71          1           0       -1.824177   -1.884406    3.417041
     72          1           0       -4.760601   -1.385497    4.301028
     73          1           0       -3.402755   -0.644395    5.202941
     74          1           0       -3.442961   -2.330745    5.180931
     75          1           0       -3.054570   -4.544220    1.353261
     76          1           0       -1.739022   -3.952785    2.178300
     77          1           0       -1.351258   -2.270853    0.415453
     78          1           0       -2.671717   -3.118266   -0.485381
     79          1           0        0.560836    2.638335    3.629454
     80          1           0       -0.645467    2.312124    4.717393
     81          1           0       -0.181326    3.963808    4.479852
     82          1           0       -0.995359    7.624201    1.684306
     83          1           0       -2.665447    6.990850    1.603514
     84          1           0       -1.482976    6.671254    0.283417
     85          1           0       -4.546270    5.587043   -2.205449
     86          1           0       -7.367791    4.556379   -2.435050
     87          1           0       -7.020261    6.450051   -1.051666
     88          1           0       -5.435246    7.258428   -1.347323
     89          1           0       -5.765915    6.470165    0.234267
     90          1           0       -5.116984    3.079812   -3.835345
     91          1           0       -5.113221    4.775196   -4.211982
     92          1           0       -6.685348    2.801384   -5.377653
     93          1           0       -6.839640    4.614787   -5.597802
     94          1           0       -7.926998    3.728917   -4.481107
     95          1           0       -9.731432   -1.211650   -2.335163
     96          1           0       -8.509120   -1.324791   -3.653473
     97          1           0       -9.169960    0.175018   -3.232622
     98          1           0       -6.596142   -3.827972    1.083475
     99          1           0       -3.696515   -6.490730   -0.133019
    100          1           0       -4.895355   -7.006250   -1.396208
    101          1           0       -4.954943   -7.652599    0.295042
    102          1           0        1.004146   -5.515546   -1.241787
    103          1           0        1.644496   -5.795397    0.454456
    104          1           0        2.677944   -4.139416   -1.811535
    105          1           0        4.309519   -4.172522    1.909939
    106          1           0        2.564314   -3.865590    1.994923
    107          1           0        3.563062   -2.507593    1.772870
    108          1           0        4.008320   -2.226816   -1.358873
    109          1           0        5.041772   -3.657494   -1.422324
    110          1           0        6.602150   -2.827059    0.050514
    111          1           0        5.396609   -1.833663    0.897018
    112          1           0        5.795395   -0.958871   -1.894753
    113          1           0        7.414221   -1.277597   -1.188239
    114          1           0        5.459546    0.303917    0.420269
    115          1           0        4.999164    1.849904   -1.362093
    116          1           0        6.515010    1.230552   -2.158727
    117          1           0        6.672614    2.420310   -1.090787
    118          1           0        7.577032   -0.260023    1.345353
    119          1           0        7.417936    1.491104    1.226236
    120          1           0        9.397874    1.847965    0.295606
    121          1           0        8.826398    0.991243   -1.124816
    122          1           0       10.304025   -0.633779   -0.830651
    123          1           0        9.545548   -0.989625    0.825211
    124          1           0       11.879249   -0.696358    0.927275
    125          1           0       11.398463   -0.034296    3.142113
    126          1           0        9.888236    0.432833    2.633669
    127          1           0       11.104835    1.645341    2.426543
    128          1           0       12.967031    1.534634    0.882660
    129          1           0       11.495876    2.045638   -0.053357
    130          1           0       12.645748    1.104640   -2.008601
    131          1           0       12.796397   -0.418901   -1.064838
    132          1           0       14.876618    0.120536   -0.009594
    133          1           0       14.858813    1.735772   -0.522690
    134          1           0       14.754008   -0.168952   -2.891001
    135          1           0       16.777509   -0.352990   -0.599174
    136          1           0       17.517120    0.131429   -2.126124
    137          1           0       16.644786   -1.419143   -1.945814
    138          1           0       14.743476    2.281808   -3.094893
    139          1           0       16.153874    1.409884   -3.836789
    140          1           0       16.422540    2.258990   -2.410449
 ---------------------------------------------------------------------

 SCF Done:  E(RB-LYP) =  -3007.37168898     A.U. after   20 cycles

 Excitation energies and oscillator strengths:

 Excited State   1:      Singlet-A      1.7827 eV  695.47 nm  f=0.2868  <S**2>=0.000
     243 -> 247       -0.14613
     245 -> 248        0.17739
     246 -> 247        0.68165
     246 <- 247       -0.15378
 This state for optimization and/or second-order correction.
 Total Energy, E(TD-HF/TD-DFT) =  -3007.30617418
 Copying the excited state density for this state as the 1-particle RhoCI density.

 Excited State   2:      Singlet-A      1.8261 eV  678.96 nm  f=0.0003  <S**2>=0.000
     244 -> 247        0.70420

 Excited State   3:      Singlet-A      1.9174 eV  646.63 nm  f=0.0226  <S**2>=0.000
     243 -> 247        0.68962
     246 -> 247        0.14151

 Excited State   4:      Singlet-A      2.0852 eV  594.58 nm  f=0.0727  <S**2>=0.000
     245 -> 247        0.63240
     246 -> 248       -0.27313

 Excited State   5:      Singlet-A      2.2034 eV  562.70 nm  f=0.0002  <S**2>=0.000
     242 -> 247        0.70705

 The electronic state is 1-A.
 Alpha  occ. eigenvalues --  -46.28117 -18.81990 -18.81086 -18.76379 -18.75455
 Alpha  occ. eigenvalues --  -18.75328 -18.74949 -14.03573 -14.03443 -14.01088
 Alpha  occ. eigenvalues --  -14.00970 -10.03651 -10.02757  -9.99383  -9.99008
 Alpha  occ. eigenvalues --   -9.97472  -9.97348  -9.97184  -9.96963  -9.96738
 Alpha  occ. eigenvalues --   -9.96007  -9.95876  -9.95550  -9.95126  -9.94711
 Alpha  occ. eigenvalues --   -9.94710  -9.94648  -9.94466  -9.94363  -9.94353
 Alpha  occ. eigenvalues --   -9.93394  -9.93376  -9.93275  -9.93220  -9.93181
 Alpha  occ. eigenvalues --   -9.93149  -9.93136  -9.92992  -9.92873  -9.92736
 Alpha  occ. eigenvalues --   -9.92630  -9.92398  -9.92367  -9.92182  -9.92177
 Alpha  occ. eigenvalues --   -9.92130  -9.91986  -9.91944  -9.91924  -9.91739
 Alpha  occ. eigenvalues --   -9.91662  -9.91630  -9.91617  -9.91486  -9.91384
 Alpha  occ. eigenvalues --   -9.91322  -9.91199  -9.91183  -9.91179  -9.90964
 Alpha  occ. eigenvalues --   -9.90944  -9.90751  -9.90746  -9.90653  -9.90618
 Alpha  occ. eigenvalues --   -9.90553  -2.92676  -1.73075  -1.72558  -1.72396
 Alpha  occ. eigenvalues --   -0.98038  -0.96860  -0.92180  -0.90111  -0.90084
 Alpha  occ. eigenvalues --   -0.88719  -0.88556  -0.86492  -0.85745  -0.84846
 Alpha  occ. eigenvalues --   -0.75434  -0.73467  -0.72978  -0.72384  -0.72223
 Alpha  occ. eigenvalues --   -0.72058  -0.71340  -0.71014  -0.70409  -0.70266
 Alpha  occ. eigenvalues --   -0.69664  -0.69060  -0.67961  -0.67906  -0.67199
 Alpha  occ. eigenvalues --   -0.66049  -0.65937  -0.65095  -0.64958  -0.64610
 Alpha  occ. eigenvalues --   -0.63650  -0.62590  -0.62160  -0.61333  -0.60845
 Alpha  occ. eigenvalues --   -0.60739  -0.60394  -0.59953  -0.59350  -0.58466
 Alpha  occ. eigenvalues --   -0.58147  -0.57630  -0.57094  -0.56034  -0.54253
 Alpha  occ. eigenvalues --   -0.54195  -0.53997  -0.52711  -0.52304  -0.51905
 Alpha  occ. eigenvalues --   -0.51658  -0.51001  -0.50800  -0.50502  -0.49736
 Alpha  occ. eigenvalues --   -0.49368  -0.47979  -0.47834  -0.46944  -0.46553
 Alpha  occ. eigenvalues --   -0.46087  -0.45754  -0.45368  -0.45301  -0.44586
 Alpha  occ. eigenvalues --   -0.44274  -0.43992  -0.43207  -0.42847  -0.42497
 Alpha  occ. eigenvalues --   -0.42185  -0.42092  -0.41765  -0.41193  -0.41035
 Alpha  occ. eigenvalues --   -0.40708  -0.40415  -0.40309  -0.40105  -0.39782
 Alpha  occ. eigenvalues --   -0.39746  -0.39588  -0.39322  -0.39088  -0.39077
 Alpha  occ. eigenvalues --   -0.38968  -0.38899  -0.38559  -0.38440  -0.38116
 Alpha  occ. eigenvalues --   -0.38057  -0.37971  -0.37697  -0.37629  -0.37516
 Alpha  occ. eigenvalues --   -0.37177  -0.36990  -0.36843  -0.36576  -0.36382
 Alpha  occ. eigenvalues --   -0.36120  -0.35976  -0.35822  -0.35560  -0.35535
 Alpha  occ. eigenvalues --   -0.35425  -0.35208  -0.35017  -0.34906  -0.34632
 Alpha  occ. eigenvalues --   -0.34444  -0.34118  -0.33925  -0.33705  -0.33647
 Alpha  occ. eigenvalues --   -0.33418  -0.33263  -0.33207  -0.33068  -0.32934
 Alpha  occ. eigenvalues --   -0.32889  -0.32838  -0.32579  -0.32278  -0.32175
 Alpha  occ. eigenvalues --   -0.32017  -0.31925  -0.31869  -0.31567  -0.31481
 Alpha  occ. eigenvalues --   -0.31388  -0.31231  -0.31144  -0.30957  -0.30881
 Alpha  occ. eigenvalues --   -0.30768  -0.30464  -0.30215  -0.29993  -0.29840
 Alpha  occ. eigenvalues --   -0.29402  -0.29258  -0.29003  -0.28922  -0.28725
 Alpha  occ. eigenvalues --   -0.28396  -0.28209  -0.28077  -0.27857  -0.27755
 Alpha  occ. eigenvalues --   -0.27659  -0.27501  -0.26927  -0.26432  -0.26298
 Alpha  occ. eigenvalues --   -0.26034  -0.25784  -0.25406  -0.25239  -0.25048
 Alpha  occ. eigenvalues --   -0.24692  -0.24410  -0.24197  -0.24091  -0.24038
 Alpha  occ. eigenvalues --   -0.23392  -0.22260  -0.21752  -0.20795  -0.20570
 Alpha  occ. eigenvalues --   -0.20348  -0.19732  -0.18577  -0.18248  -0.17663
 Alpha  occ. eigenvalues --   -0.15776
 Alpha virt. eigenvalues --   -0.11636  -0.06847  -0.05990  -0.04488  -0.03959
 Alpha virt. eigenvalues --   -0.02577  -0.02026  -0.02011  -0.01476   0.00341
 Alpha virt. eigenvalues --    0.01083   0.02072   0.02221   0.02558   0.03116

 Mulliken charges:
               1
     1  Mg   0.694264
     2  C    0.018367
     3  C   -0.068544
     4  C   -0.062601
     5  C   -0.054569
     6  N   -0.201076
     7  C   -0.116059
     8  C    0.072775
     9  C    0.024302
    10  C   -0.002449
    11  C    0.147786
    12  C    0.097335
    13  C    0.156702
    14  C    0.052735
    15  O   -0.165495
    16  O   -0.259166
    17  N   -0.184152
    18  C    0.111336
    19  C   -0.100033
    20  C    0.021273
    21  C    0.094653
    22  C    0.167133
    23  C   -0.099874
    24  O   -0.185761
    25  C    0.158164
    26  N   -0.268331
    27  C   -0.035642
    28  C    0.022110
    29  C    0.000193
    30  C    0.034018
    31  C    0.145847
    32  C    0.067887
    33  C    0.080666
    34  N   -0.229686
    35  C    0.089842
    36  C   -0.169603
    37  C    0.078725
    38  C    0.097122
    39  C    0.176377
    40  C   -0.085222
    41  O   -0.110215
    42  C    0.095191
    43  C    0.084563
    44  O   -0.183042
    45  O   -0.274075
    46  C    0.228309
    47  C    0.377336
    48  C   -0.159830
    49  C   -0.150214
    50  C    0.173655
    51  C    0.077031
    52  C    0.062740
    53  C    0.076248
    54  C   -0.076276
    55  C    0.098716
    56  C    0.097153
    57  C    0.063612
    58  C    0.101417
    59  C   -0.117057
    60  C    0.121108
    61  C    0.104567
    62  C    0.053513
    63  C    0.074435
    64  C   -0.075852
    65  C    0.097918
    66  C    0.086689
    67  H   -0.072775
    68  H   -0.083046
    69  H   -0.060228
    70  H   -0.033625
    71  H   -0.039350
    72  H    0.004829
    73  H   -0.009724
    74  H   -0.006793
    75  H   -0.029480
    76  H   -0.039859
    77  H   -0.011452
    78  H    0.014018
    79  H   -0.012761
    80  H   -0.029990
    81  H    0.013118
    82  H   -0.014581
    83  H    0.018372
    84  H    0.015225
    85  H   -0.019498
    86  H   -0.029969
    87  H   -0.010486
    88  H   -0.004237
    89  H    0.010291
    90  H    0.005339
    91  H   -0.024891
    92  H    0.004208
    93  H    0.000768
    94  H    0.005212
    95  H    0.018189
    96  H    0.007787
    97  H   -0.037558
    98  H   -0.017691
    99  H    0.008061
   100  H    0.032424
   101  H    0.007587
   102  H   -0.015416
   103  H    0.008167
   104  H   -0.038597
   105  H    0.008817
   106  H   -0.022872
   107  H    0.006011
   108  H   -0.002716
   109  H   -0.006947
   110  H   -0.029082
   111  H   -0.025017
   112  H   -0.028362
   113  H   -0.023403
   114  H   -0.039670
   115  H    0.001667
   116  H   -0.027445
   117  H   -0.031647
   118  H   -0.022254
   119  H   -0.036437
   120  H   -0.013214
   121  H   -0.029116
   122  H   -0.029697
   123  H   -0.022158
   124  H   -0.050973
   125  H   -0.012738
   126  H   -0.034454
   127  H   -0.017076
   128  H   -0.030353
   129  H   -0.033671
   130  H   -0.019555
   131  H   -0.020552
   132  H   -0.029357
   133  H   -0.030117
   134  H   -0.027442
   135  H   -0.016397
   136  H   -0.022324
   137  H   -0.011458
   138  H   -0.006665
   139  H   -0.022077
   140  H   -0.021828
 Sum of Mulliken charges =  -0.00000

 Dipole moment (field-independent basis, Debye):
    X=              0.6056    Y=              2.4878    Z=              1.8066  Tot=              3.1336
 Quadrupole moment (field-independent basis, Debye-Ang):
   XX=           -399.0984   YY=           -405.0070   ZZ=           -401.4298
   XY=            -56.9954   XZ=             -8.1731   YZ=            -39.8324

 Normal termination of Gaussian 16 at Wed May  4 04:36:24 2022.
