 Gaussian 16, Revision A.03,
 Gaussian 16:  ES64L-G16RevA.03 25-Dec-2016

 -----------------------------------
 #p cam-b3lyp/Def2SVP td=(nstates=5)
 -----------------------------------

 --------------------------------------------------------
 step_1351_chromophore_11 TDDFT with cam-b3lyp functional
 --------------------------------------------------------
 Symbolic Z-matrix:
 Charge =  0 Multiplicity = 1

                         Standard orientation:
 ---------------------------------------------------------------------
 Center     Atomic      Atomic             Coordinates (Angstroms)
 Number     Number       Type             X           Y           Z
 ---------------------------------------------------------------------
      1         12           0       -4.738060    1.509441    0.608180
      2          6           0       -5.344835   -2.043430    0.404568
      3          6           0       -2.247618    0.795333    2.826900
      4          6           0       -3.590350    4.613230    0.177571
      5          6           0       -7.008193    1.832240   -2.084382
      6          7           0       -3.869516   -0.373697    1.527928
      7          6           0       -4.264221   -1.740768    1.277450
      8          6           0       -3.484818   -2.660924    2.243907
      9          6           0       -2.872748   -1.623415    3.273235
     10          6           0       -2.970847   -0.333173    2.483378
     11          6           0       -3.706571   -1.472581    4.562700
     12          6           0       -2.517895   -3.606613    1.498356
     13          6           0       -1.860367   -3.217837    0.235542
     14          6           0       -0.901345   -4.163203   -0.498199
     15          8           0       -1.238413   -4.833399   -1.455196
     16          8           0        0.319312   -4.087833    0.069248
     17          7           0       -3.125794    2.634196    1.386405
     18          6           0       -2.274634    2.121935    2.347375
     19          6           0       -1.438586    3.149169    2.783374
     20          6           0       -1.723781    4.268812    1.987321
     21          6           0       -2.860164    3.815768    1.128997
     22          6           0       -0.402604    3.040687    3.943917
     23          6           0       -1.153331    5.655735    2.171005
     24          8           0       -0.315313    5.840207    3.075334
     25          6           0       -1.621949    6.794743    1.357549
     26          7           0       -5.110480    2.875674   -0.893895
     27          6           0       -4.656156    4.190638   -0.714301
     28          6           0       -5.401728    5.227221   -1.632941
     29          6           0       -6.309670    4.295567   -2.459971
     30          6           0       -6.188735    2.900290   -1.736047
     31          6           0       -5.951545    6.443888   -0.839454
     32          6           0       -5.765011    3.952183   -3.919345
     33          6           0       -6.933205    3.762039   -4.925368
     34          7           0       -6.057777    0.254612   -0.509133
     35          6           0       -6.987852    0.597970   -1.434875
     36          6           0       -7.715841   -0.630666   -1.847854
     37          6           0       -7.112940   -1.639473   -1.076657
     38          6           0       -6.048524   -1.086519   -0.340598
     39          6           0       -8.844147   -0.762899   -2.782285
     40          6           0       -7.325169   -3.008199   -0.688644
     41          8           0       -8.198038   -3.816773   -0.871930
     42          6           0       -6.120707   -3.395574    0.202821
     43          6           0       -5.421158   -4.486410   -0.480212
     44          8           0       -4.853724   -4.391784   -1.555961
     45          8           0       -5.506121   -5.674649    0.196740
     46          6           0       -4.721315   -6.797728   -0.340137
     47          6           0        1.331869   -5.073296   -0.300472
     48          6           0        2.518030   -4.271100   -0.741894
     49          6           0        3.442795   -3.667605    0.032376
     50          6           0        3.495018   -3.565278    1.515370
     51          6           0        4.559624   -2.945696   -0.752232
     52          6           0        5.711058   -2.211728   -0.075017
     53          6           0        6.374533   -1.028461   -0.974623
     54          6           0        6.336799    0.360301   -0.225127
     55          6           0        6.037707    1.545318   -1.231087
     56          6           0        7.602127    0.582924    0.653456
     57          6           0        8.954741    0.912240   -0.046152
     58          6           0        9.966885   -0.258823    0.135687
     59          6           0       11.243259    0.189129    0.919643
     60          6           0       10.935663    0.570693    2.363245
     61          6           0       12.183985    1.234950    0.185413
     62          6           0       12.991762    0.652375   -1.079101
     63          6           0       14.568845    0.738438   -0.852500
     64          6           0       15.325805    0.381227   -2.144306
     65          6           0       16.652123   -0.361408   -1.681936
     66          6           0       15.641875    1.691171   -2.916459
     67          1           0       -1.479534    0.675281    3.593359
     68          1           0       -3.459862    5.691170    0.063156
     69          1           0       -7.857349    2.000456   -2.749409
     70          1           0       -4.252586   -3.219759    2.778660
     71          1           0       -1.824177   -1.884406    3.417041
     72          1           0       -4.760601   -1.385497    4.301028
     73          1           0       -3.402755   -0.644395    5.202941
     74          1           0       -3.442961   -2.330745    5.180931
     75          1           0       -3.054570   -4.544220    1.353261
     76          1           0       -1.739022   -3.952785    2.178300
     77          1           0       -1.351258   -2.270853    0.415453
     78          1           0       -2.671717   -3.118266   -0.485381
     79          1           0        0.560836    2.638335    3.629454
     80          1           0       -0.645467    2.312124    4.717393
     81          1           0       -0.181326    3.963808    4.479852
     82          1           0       -0.995359    7.624201    1.684306
     83          1           0       -2.665447    6.990850    1.603514
     84          1           0       -1.482976    6.671254    0.283417
     85          1           0       -4.546270    5.587043   -2.205449
     86          1           0       -7.367791    4.556379   -2.435050
     87          1           0       -7.020261    6.450051   -1.051666
     88          1           0       -5.435246    7.258428   -1.347323
     89          1           0       -5.765915    6.470165    0.234267
     90          1           0       -5.116984    3.079812   -3.835345
     91          1           0       -5.113221    4.775196   -4.211982
     92          1           0       -6.685348    2.801384   -5.377653
     93          1           0       -6.839640    4.614787   -5.597802
     94          1           0       -7.926998    3.728917   -4.481107
     95          1           0       -9.731432   -1.211650   -2.335163
     96          1           0       -8.509120   -1.324791   -3.653473
     97          1           0       -9.169960    0.175018   -3.232622
     98          1           0       -6.596142   -3.827972    1.083475
     99          1           0       -3.696515   -6.490730   -0.133019
    100          1           0       -4.895355   -7.006250   -1.396208
    101          1           0       -4.954943   -7.652599    0.295042
    102          1           0        1.004146   -5.515546   -1.241787
    103          1           0        1.644496   -5.795397    0.454456
    104          1           0        2.677944   -4.139416   -1.811535
    105          1           0        4.309519   -4.172522    1.909939
    106          1           0        2.564314   -3.865590    1.994923
    107          1           0        3.563062   -2.507593    1.772870
    108          1           0        4.008320   -2.226816   -1.358873
    109          1           0        5.041772   -3.657494   -1.422324
    110          1           0        6.602150   -2.827059    0.050514
    111          1           0        5.396609   -1.833663    0.897018
    112          1           0        5.795395   -0.958871   -1.894753
    113          1           0        7.414221   -1.277597   -1.188239
    114          1           0        5.459546    0.303917    0.420269
    115          1           0        4.999164    1.849904   -1.362093
    116          1           0        6.515010    1.230552   -2.158727
    117          1           0        6.672614    2.420310   -1.090787
    118          1           0        7.577032   -0.260023    1.345353
    119          1           0        7.417936    1.491104    1.226236
    120          1           0        9.397874    1.847965    0.295606
    121          1           0        8.826398    0.991243   -1.124816
    122          1           0       10.304025   -0.633779   -0.830651
    123          1           0        9.545548   -0.989625    0.825211
    124          1           0       11.879249   -0.696358    0.927275
    125          1           0       11.398463   -0.034296    3.142113
    126          1           0        9.888236    0.432833    2.633669
    127          1           0       11.104835    1.645341    2.426543
    128          1           0       12.967031    1.534634    0.882660
    129          1           0       11.495876    2.045638   -0.053357
    130          1           0       12.645748    1.104640   -2.008601
    131          1           0       12.796397   -0.418901   -1.064838
    132          1           0       14.876618    0.120536   -0.009594
    133          1           0       14.858813    1.735772   -0.522690
    134          1           0       14.754008   -0.168952   -2.891001
    135          1           0       16.777509   -0.352990   -0.599174
    136          1           0       17.517120    0.131429   -2.126124
    137          1           0       16.644786   -1.419143   -1.945814
    138          1           0       14.743476    2.281808   -3.094893
    139          1           0       16.153874    1.409884   -3.836789
    140          1           0       16.422540    2.258990   -2.410449
 ---------------------------------------------------------------------

 SCF Done:  E(RCAM-B3LYP) =  -3007.16743322     A.U. after   17 cycles

 Excitation energies and oscillator strengths:

 Excited State   1:      Singlet-A      1.6704 eV  742.22 nm  f=0.3778  <S**2>=0.000
     245 -> 248        0.16632
     246 -> 247        0.68936
     245 <- 248        0.10627
 This state for optimization and/or second-order correction.
 Total Energy, E(TD-HF/TD-DFT) =  -3007.10604562
 Copying the excited state density for this state as the 1-particle RhoCI density.

 Excited State   2:      Singlet-A      2.3183 eV  534.80 nm  f=0.0905  <S**2>=0.000
     245 -> 247        0.62455
     246 -> 248       -0.31931

 Excited State   3:      Singlet-A      3.4201 eV  362.51 nm  f=0.0025  <S**2>=0.000
     243 -> 247        0.66150
     246 -> 248       -0.12047

 Excited State   4:      Singlet-A      3.4867 eV  355.59 nm  f=0.0128  <S**2>=0.000
     240 -> 247        0.43883
     240 -> 249       -0.22783
     240 -> 250        0.10704
     240 -> 251        0.20453
     242 -> 247       -0.38115
     246 -> 248       -0.12562

 Excited State   5:      Singlet-A      3.5304 eV  351.19 nm  f=0.1848  <S**2>=0.000
     240 -> 247        0.30981
     240 -> 249       -0.14718
     240 -> 251        0.12784
     242 -> 247        0.40098
     245 -> 247        0.16298
     246 -> 248        0.37229
     246 -> 250       -0.10627

 The electronic state is 1-A.
 Alpha  occ. eigenvalues --  -46.89772 -19.24800 -19.24031 -19.19246 -19.18600
 Alpha  occ. eigenvalues --  -19.18483 -19.18241 -14.42794 -14.42065 -14.39648
 Alpha  occ. eigenvalues --  -14.39316 -10.38826 -10.38209 -10.34678 -10.34228
 Alpha  occ. eigenvalues --  -10.32102 -10.31691 -10.31581 -10.31098 -10.30951
 Alpha  occ. eigenvalues --  -10.30502 -10.30493 -10.29682 -10.29553 -10.29256
 Alpha  occ. eigenvalues --  -10.28818 -10.28736 -10.28456 -10.28430 -10.28274
 Alpha  occ. eigenvalues --  -10.27935 -10.27753 -10.27553 -10.27263 -10.27100
 Alpha  occ. eigenvalues --  -10.27032 -10.27030 -10.26943 -10.26862 -10.26835
 Alpha  occ. eigenvalues --  -10.26369 -10.26364 -10.26015 -10.25984 -10.25942
 Alpha  occ. eigenvalues --  -10.25914 -10.25907 -10.25815 -10.25698 -10.25633
 Alpha  occ. eigenvalues --  -10.25435 -10.25417 -10.25373 -10.25275 -10.25152
 Alpha  occ. eigenvalues --  -10.25050 -10.24959 -10.24917 -10.24900 -10.24675
 Alpha  occ. eigenvalues --  -10.24641 -10.24617 -10.24585 -10.24357 -10.24256
 Alpha  occ. eigenvalues --  -10.24165  -3.18227  -1.93104  -1.92679  -1.92529
 Alpha  occ. eigenvalues --   -1.16440  -1.15443  -1.10596  -1.08515  -1.07940
 Alpha  occ. eigenvalues --   -1.06647  -1.06520  -1.04128  -1.03453  -1.02306
 Alpha  occ. eigenvalues --   -0.92571  -0.90322  -0.89811  -0.89203  -0.88997
 Alpha  occ. eigenvalues --   -0.88671  -0.88024  -0.87560  -0.86979  -0.86828
 Alpha  occ. eigenvalues --   -0.86066  -0.85690  -0.84246  -0.84051  -0.83449
 Alpha  occ. eigenvalues --   -0.82105  -0.82042  -0.81054  -0.80800  -0.80482
 Alpha  occ. eigenvalues --   -0.79441  -0.78209  -0.77616  -0.77056  -0.76286
 Alpha  occ. eigenvalues --   -0.76109  -0.75747  -0.75295  -0.74672  -0.73681
 Alpha  occ. eigenvalues --   -0.73219  -0.72627  -0.72010  -0.70922  -0.68890
 Alpha  occ. eigenvalues --   -0.68694  -0.68641  -0.67233  -0.66738  -0.66078
 Alpha  occ. eigenvalues --   -0.65750  -0.65055  -0.64807  -0.64610  -0.63620
 Alpha  occ. eigenvalues --   -0.63365  -0.61830  -0.61570  -0.60665  -0.60243
 Alpha  occ. eigenvalues --   -0.59663  -0.59200  -0.58896  -0.58789  -0.58151
 Alpha  occ. eigenvalues --   -0.57683  -0.57423  -0.56429  -0.56009  -0.55747
 Alpha  occ. eigenvalues --   -0.55212  -0.55091  -0.54673  -0.54163  -0.53855
 Alpha  occ. eigenvalues --   -0.53515  -0.53441  -0.53219  -0.52847  -0.52595
 Alpha  occ. eigenvalues --   -0.52359  -0.52181  -0.51997  -0.51816  -0.51804
 Alpha  occ. eigenvalues --   -0.51475  -0.51406  -0.51301  -0.50858  -0.50569
 Alpha  occ. eigenvalues --   -0.50482  -0.50310  -0.50072  -0.49864  -0.49748
 Alpha  occ. eigenvalues --   -0.49395  -0.49292  -0.48994  -0.48941  -0.48832
 Alpha  occ. eigenvalues --   -0.48602  -0.48483  -0.48173  -0.47984  -0.47672
 Alpha  occ. eigenvalues --   -0.47460  -0.47220  -0.47046  -0.46775  -0.46753
 Alpha  occ. eigenvalues --   -0.46434  -0.46085  -0.45896  -0.45459  -0.45346
 Alpha  occ. eigenvalues --   -0.45113  -0.44969  -0.44960  -0.44751  -0.44601
 Alpha  occ. eigenvalues --   -0.44515  -0.44419  -0.44281  -0.44001  -0.43803
 Alpha  occ. eigenvalues --   -0.43654  -0.43644  -0.43363  -0.43255  -0.43132
 Alpha  occ. eigenvalues --   -0.42975  -0.42666  -0.42550  -0.42443  -0.42221
 Alpha  occ. eigenvalues --   -0.42145  -0.41813  -0.41533  -0.41465  -0.41250
 Alpha  occ. eigenvalues --   -0.41170  -0.40631  -0.40518  -0.40216  -0.39887
 Alpha  occ. eigenvalues --   -0.39492  -0.39447  -0.39133  -0.38897  -0.38760
 Alpha  occ. eigenvalues --   -0.38658  -0.38303  -0.37767  -0.37253  -0.37056
 Alpha  occ. eigenvalues --   -0.36992  -0.36853  -0.36359  -0.35957  -0.35785
 Alpha  occ. eigenvalues --   -0.35619  -0.35207  -0.34880  -0.34536  -0.34226
 Alpha  occ. eigenvalues --   -0.33787  -0.33731  -0.33197  -0.31291  -0.30750
 Alpha  occ. eigenvalues --   -0.30557  -0.30232  -0.29540  -0.29471  -0.24571
 Alpha  occ. eigenvalues --   -0.20996
 Alpha virt. eigenvalues --   -0.08753  -0.01645   0.00391   0.01052   0.02609
 Alpha virt. eigenvalues --    0.04846   0.05178   0.05763   0.06052   0.07572
 Alpha virt. eigenvalues --    0.08033   0.08179   0.08724   0.08983   0.09266

 Mulliken charges:
               1
     1  Mg   0.825405
     2  C   -0.000757
     3  C   -0.071027
     4  C   -0.091816
     5  C   -0.069669
     6  N   -0.262174
     7  C   -0.083423
     8  C    0.024973
     9  C   -0.032608
    10  C    0.007918
    11  C    0.088782
    12  C    0.048021
    13  C    0.086152
    14  C    0.138380
    15  O   -0.208487
    16  O   -0.323025
    17  N   -0.276437
    18  C    0.112518
    19  C   -0.105250
    20  C   -0.047727
    21  C    0.130290
    22  C    0.113643
    23  C   -0.018118
    24  O   -0.228248
    25  C    0.067365
    26  N   -0.342909
    27  C   -0.001657
    28  C   -0.033205
    29  C   -0.056195
    30  C    0.053704
    31  C    0.084444
    32  C    0.018753
    33  C    0.016750
    34  N   -0.318097
    35  C    0.104273
    36  C   -0.172972
    37  C    0.006449
    38  C    0.123537
    39  C    0.123035
    40  C    0.011771
    41  O   -0.149384
    42  C    0.017073
    43  C    0.174474
    44  O   -0.217303
    45  O   -0.338713
    46  C    0.190655
    47  C    0.333009
    48  C   -0.180670
    49  C   -0.160996
    50  C    0.103915
    51  C    0.018209
    52  C    0.012035
    53  C    0.026085
    54  C   -0.127452
    55  C    0.036923
    56  C    0.046931
    57  C    0.002728
    58  C    0.054263
    59  C   -0.167369
    60  C    0.057174
    61  C    0.053944
    62  C    0.000389
    63  C    0.021543
    64  C   -0.138722
    65  C    0.038183
    66  C    0.031050
    67  H   -0.033544
    68  H   -0.048899
    69  H   -0.027750
    70  H    0.004972
    71  H   -0.002633
    72  H    0.028343
    73  H    0.016163
    74  H    0.019145
    75  H   -0.002606
    76  H   -0.007804
    77  H    0.019348
    78  H    0.043526
    79  H    0.016274
    80  H   -0.003965
    81  H    0.045386
    82  H    0.023569
    83  H    0.044982
    84  H    0.044364
    85  H    0.015851
    86  H    0.004761
    87  H    0.014716
    88  H    0.019416
    89  H    0.034864
    90  H    0.034703
    91  H    0.002573
    92  H    0.027761
    93  H    0.024219
    94  H    0.024403
    95  H    0.043370
    96  H    0.033835
    97  H   -0.011837
    98  H    0.029138
    99  H    0.026419
   100  H    0.057126
   101  H    0.031712
   102  H    0.023343
   103  H    0.034602
   104  H   -0.004921
   105  H    0.033520
   106  H    0.004793
   107  H    0.029025
   108  H    0.025074
   109  H    0.021004
   110  H   -0.000493
   111  H   -0.001248
   112  H    0.001392
   113  H    0.002310
   114  H   -0.007030
   115  H    0.026569
   116  H   -0.004731
   117  H   -0.005672
   118  H    0.002422
   119  H   -0.006195
   120  H    0.013284
   121  H   -0.000935
   122  H   -0.001965
   123  H    0.004523
   124  H   -0.018282
   125  H    0.013477
   126  H   -0.009885
   127  H    0.007016
   128  H   -0.001192
   129  H   -0.007780
   130  H    0.006787
   131  H    0.005767
   132  H   -0.001236
   133  H   -0.002314
   134  H    0.004056
   135  H    0.007377
   136  H    0.001945
   137  H    0.012827
   138  H    0.016257
   139  H    0.002862
   140  H    0.001413
 Sum of Mulliken charges =  -0.00000

 Dipole moment (field-independent basis, Debye):
    X=              1.0040    Y=              2.8078    Z=              2.3329  Tot=              3.7860
 Quadrupole moment (field-independent basis, Debye-Ang):
   XX=           -401.2624   YY=           -400.7981   ZZ=           -400.3696
   XY=            -58.1888   XZ=             -9.5205   YZ=            -40.7049

 Normal termination of Gaussian 16 at Wed May  4 03:37:40 2022.
