 Gaussian 16, Revision A.03,
 Gaussian 16:  ES64L-G16RevA.03 25-Dec-2016

 ---------------------------------
 #p PBE1PBE/Def2SVP td=(nstates=5)
 ---------------------------------

 ------------------------------------------------------
 step_1351_chromophore_11 TDDFT with PBE1PBE functional
 ------------------------------------------------------
 Symbolic Z-matrix:
 Charge =  0 Multiplicity = 1

                         Standard orientation:
 ---------------------------------------------------------------------
 Center     Atomic      Atomic             Coordinates (Angstroms)
 Number     Number       Type             X           Y           Z
 ---------------------------------------------------------------------
      1         12           0       -4.738060    1.509441    0.608180
      2          6           0       -5.344835   -2.043430    0.404568
      3          6           0       -2.247618    0.795333    2.826900
      4          6           0       -3.590350    4.613230    0.177571
      5          6           0       -7.008193    1.832240   -2.084382
      6          7           0       -3.869516   -0.373697    1.527928
      7          6           0       -4.264221   -1.740768    1.277450
      8          6           0       -3.484818   -2.660924    2.243907
      9          6           0       -2.872748   -1.623415    3.273235
     10          6           0       -2.970847   -0.333173    2.483378
     11          6           0       -3.706571   -1.472581    4.562700
     12          6           0       -2.517895   -3.606613    1.498356
     13          6           0       -1.860367   -3.217837    0.235542
     14          6           0       -0.901345   -4.163203   -0.498199
     15          8           0       -1.238413   -4.833399   -1.455196
     16          8           0        0.319312   -4.087833    0.069248
     17          7           0       -3.125794    2.634196    1.386405
     18          6           0       -2.274634    2.121935    2.347375
     19          6           0       -1.438586    3.149169    2.783374
     20          6           0       -1.723781    4.268812    1.987321
     21          6           0       -2.860164    3.815768    1.128997
     22          6           0       -0.402604    3.040687    3.943917
     23          6           0       -1.153331    5.655735    2.171005
     24          8           0       -0.315313    5.840207    3.075334
     25          6           0       -1.621949    6.794743    1.357549
     26          7           0       -5.110480    2.875674   -0.893895
     27          6           0       -4.656156    4.190638   -0.714301
     28          6           0       -5.401728    5.227221   -1.632941
     29          6           0       -6.309670    4.295567   -2.459971
     30          6           0       -6.188735    2.900290   -1.736047
     31          6           0       -5.951545    6.443888   -0.839454
     32          6           0       -5.765011    3.952183   -3.919345
     33          6           0       -6.933205    3.762039   -4.925368
     34          7           0       -6.057777    0.254612   -0.509133
     35          6           0       -6.987852    0.597970   -1.434875
     36          6           0       -7.715841   -0.630666   -1.847854
     37          6           0       -7.112940   -1.639473   -1.076657
     38          6           0       -6.048524   -1.086519   -0.340598
     39          6           0       -8.844147   -0.762899   -2.782285
     40          6           0       -7.325169   -3.008199   -0.688644
     41          8           0       -8.198038   -3.816773   -0.871930
     42          6           0       -6.120707   -3.395574    0.202821
     43          6           0       -5.421158   -4.486410   -0.480212
     44          8           0       -4.853724   -4.391784   -1.555961
     45          8           0       -5.506121   -5.674649    0.196740
     46          6           0       -4.721315   -6.797728   -0.340137
     47          6           0        1.331869   -5.073296   -0.300472
     48          6           0        2.518030   -4.271100   -0.741894
     49          6           0        3.442795   -3.667605    0.032376
     50          6           0        3.495018   -3.565278    1.515370
     51          6           0        4.559624   -2.945696   -0.752232
     52          6           0        5.711058   -2.211728   -0.075017
     53          6           0        6.374533   -1.028461   -0.974623
     54          6           0        6.336799    0.360301   -0.225127
     55          6           0        6.037707    1.545318   -1.231087
     56          6           0        7.602127    0.582924    0.653456
     57          6           0        8.954741    0.912240   -0.046152
     58          6           0        9.966885   -0.258823    0.135687
     59          6           0       11.243259    0.189129    0.919643
     60          6           0       10.935663    0.570693    2.363245
     61          6           0       12.183985    1.234950    0.185413
     62          6           0       12.991762    0.652375   -1.079101
     63          6           0       14.568845    0.738438   -0.852500
     64          6           0       15.325805    0.381227   -2.144306
     65          6           0       16.652123   -0.361408   -1.681936
     66          6           0       15.641875    1.691171   -2.916459
     67          1           0       -1.479534    0.675281    3.593359
     68          1           0       -3.459862    5.691170    0.063156
     69          1           0       -7.857349    2.000456   -2.749409
     70          1           0       -4.252586   -3.219759    2.778660
     71          1           0       -1.824177   -1.884406    3.417041
     72          1           0       -4.760601   -1.385497    4.301028
     73          1           0       -3.402755   -0.644395    5.202941
     74          1           0       -3.442961   -2.330745    5.180931
     75          1           0       -3.054570   -4.544220    1.353261
     76          1           0       -1.739022   -3.952785    2.178300
     77          1           0       -1.351258   -2.270853    0.415453
     78          1           0       -2.671717   -3.118266   -0.485381
     79          1           0        0.560836    2.638335    3.629454
     80          1           0       -0.645467    2.312124    4.717393
     81          1           0       -0.181326    3.963808    4.479852
     82          1           0       -0.995359    7.624201    1.684306
     83          1           0       -2.665447    6.990850    1.603514
     84          1           0       -1.482976    6.671254    0.283417
     85          1           0       -4.546270    5.587043   -2.205449
     86          1           0       -7.367791    4.556379   -2.435050
     87          1           0       -7.020261    6.450051   -1.051666
     88          1           0       -5.435246    7.258428   -1.347323
     89          1           0       -5.765915    6.470165    0.234267
     90          1           0       -5.116984    3.079812   -3.835345
     91          1           0       -5.113221    4.775196   -4.211982
     92          1           0       -6.685348    2.801384   -5.377653
     93          1           0       -6.839640    4.614787   -5.597802
     94          1           0       -7.926998    3.728917   -4.481107
     95          1           0       -9.731432   -1.211650   -2.335163
     96          1           0       -8.509120   -1.324791   -3.653473
     97          1           0       -9.169960    0.175018   -3.232622
     98          1           0       -6.596142   -3.827972    1.083475
     99          1           0       -3.696515   -6.490730   -0.133019
    100          1           0       -4.895355   -7.006250   -1.396208
    101          1           0       -4.954943   -7.652599    0.295042
    102          1           0        1.004146   -5.515546   -1.241787
    103          1           0        1.644496   -5.795397    0.454456
    104          1           0        2.677944   -4.139416   -1.811535
    105          1           0        4.309519   -4.172522    1.909939
    106          1           0        2.564314   -3.865590    1.994923
    107          1           0        3.563062   -2.507593    1.772870
    108          1           0        4.008320   -2.226816   -1.358873
    109          1           0        5.041772   -3.657494   -1.422324
    110          1           0        6.602150   -2.827059    0.050514
    111          1           0        5.396609   -1.833663    0.897018
    112          1           0        5.795395   -0.958871   -1.894753
    113          1           0        7.414221   -1.277597   -1.188239
    114          1           0        5.459546    0.303917    0.420269
    115          1           0        4.999164    1.849904   -1.362093
    116          1           0        6.515010    1.230552   -2.158727
    117          1           0        6.672614    2.420310   -1.090787
    118          1           0        7.577032   -0.260023    1.345353
    119          1           0        7.417936    1.491104    1.226236
    120          1           0        9.397874    1.847965    0.295606
    121          1           0        8.826398    0.991243   -1.124816
    122          1           0       10.304025   -0.633779   -0.830651
    123          1           0        9.545548   -0.989625    0.825211
    124          1           0       11.879249   -0.696358    0.927275
    125          1           0       11.398463   -0.034296    3.142113
    126          1           0        9.888236    0.432833    2.633669
    127          1           0       11.104835    1.645341    2.426543
    128          1           0       12.967031    1.534634    0.882660
    129          1           0       11.495876    2.045638   -0.053357
    130          1           0       12.645748    1.104640   -2.008601
    131          1           0       12.796397   -0.418901   -1.064838
    132          1           0       14.876618    0.120536   -0.009594
    133          1           0       14.858813    1.735772   -0.522690
    134          1           0       14.754008   -0.168952   -2.891001
    135          1           0       16.777509   -0.352990   -0.599174
    136          1           0       17.517120    0.131429   -2.126124
    137          1           0       16.644786   -1.419143   -1.945814
    138          1           0       14.743476    2.281808   -3.094893
    139          1           0       16.153874    1.409884   -3.836789
    140          1           0       16.422540    2.258990   -2.410449
 ---------------------------------------------------------------------

 SCF Done:  E(RPBE1PBE) =  -3005.35554351     A.U. after   15 cycles

 Excitation energies and oscillator strengths:

 Excited State   1:      Singlet-A      1.8285 eV  678.06 nm  f=0.3660  <S**2>=0.000
     245 -> 248       -0.16221
     246 -> 247        0.69742
     246 <- 247       -0.11620
 This state for optimization and/or second-order correction.
 Total Energy, E(TD-HF/TD-DFT) =  -3005.28834667
 Copying the excited state density for this state as the 1-particle RhoCI density.

 Excited State   2:      Singlet-A      2.3140 eV  535.79 nm  f=0.0928  <S**2>=0.000
     245 -> 247        0.63652
     246 -> 248        0.29523

 Excited State   3:      Singlet-A      2.9578 eV  419.17 nm  f=0.0002  <S**2>=0.000
     242 -> 247        0.62935
     242 -> 249       -0.15602
     243 -> 247        0.22790

 Excited State   4:      Singlet-A      2.9800 eV  416.05 nm  f=0.0015  <S**2>=0.000
     241 -> 247       -0.22437
     242 -> 247       -0.23992
     243 -> 247        0.59734

 Excited State   5:      Singlet-A      3.0970 eV  400.34 nm  f=0.0011  <S**2>=0.000
     241 -> 247        0.64407
     243 -> 247        0.24277

 The electronic state is 1-A.
 Alpha  occ. eigenvalues --  -46.93131 -19.25472 -19.24665 -19.19518 -19.18853
 Alpha  occ. eigenvalues --  -19.18660 -19.18397 -14.42115 -14.41761 -14.39112
 Alpha  occ. eigenvalues --  -14.39015 -10.35830 -10.35173 -10.31720 -10.31399
 Alpha  occ. eigenvalues --  -10.29805 -10.29593 -10.28944 -10.28936 -10.28165
 Alpha  occ. eigenvalues --  -10.28079 -10.27929 -10.27484 -10.27090 -10.26967
 Alpha  occ. eigenvalues --  -10.26610 -10.26570 -10.26286 -10.26189 -10.26160
 Alpha  occ. eigenvalues --  -10.25437 -10.25397 -10.25374 -10.24931 -10.24667
 Alpha  occ. eigenvalues --  -10.24621 -10.24566 -10.24464 -10.24439 -10.24429
 Alpha  occ. eigenvalues --  -10.24191 -10.24000 -10.23639 -10.23590 -10.23423
 Alpha  occ. eigenvalues --  -10.23341 -10.23264 -10.23255 -10.23231 -10.23000
 Alpha  occ. eigenvalues --  -10.22981 -10.22958 -10.22931 -10.22855 -10.22847
 Alpha  occ. eigenvalues --  -10.22582 -10.22541 -10.22487 -10.22456 -10.22427
 Alpha  occ. eigenvalues --  -10.22227 -10.22166 -10.21999 -10.21745 -10.21647
 Alpha  occ. eigenvalues --  -10.21533  -3.15167  -1.87983  -1.87539  -1.87389
 Alpha  occ. eigenvalues --   -1.11246  -1.10179  -1.05386  -1.03139  -1.02794
 Alpha  occ. eigenvalues --   -1.01309  -1.01258  -0.98809  -0.98023  -0.96978
 Alpha  occ. eigenvalues --   -0.86944  -0.84478  -0.83979  -0.83274  -0.83233
 Alpha  occ. eigenvalues --   -0.82998  -0.82095  -0.81883  -0.81208  -0.81019
 Alpha  occ. eigenvalues --   -0.80362  -0.79884  -0.78476  -0.78348  -0.77615
 Alpha  occ. eigenvalues --   -0.76310  -0.76204  -0.75296  -0.75144  -0.74715
 Alpha  occ. eigenvalues --   -0.73569  -0.72485  -0.71954  -0.71235  -0.70578
 Alpha  occ. eigenvalues --   -0.70311  -0.70042  -0.69379  -0.68767  -0.67847
 Alpha  occ. eigenvalues --   -0.67573  -0.67000  -0.66419  -0.65206  -0.63197
 Alpha  occ. eigenvalues --   -0.63077  -0.62955  -0.61649  -0.60914  -0.60458
 Alpha  occ. eigenvalues --   -0.60182  -0.59520  -0.59335  -0.59127  -0.58064
 Alpha  occ. eigenvalues --   -0.57524  -0.56140  -0.56040  -0.55223  -0.54466
 Alpha  occ. eigenvalues --   -0.54217  -0.53569  -0.53418  -0.53325  -0.52596
 Alpha  occ. eigenvalues --   -0.52109  -0.51954  -0.50979  -0.50436  -0.50305
 Alpha  occ. eigenvalues --   -0.49700  -0.49359  -0.49195  -0.48684  -0.48331
 Alpha  occ. eigenvalues --   -0.48065  -0.47918  -0.47770  -0.47292  -0.46976
 Alpha  occ. eigenvalues --   -0.46776  -0.46758  -0.46542  -0.46459  -0.46224
 Alpha  occ. eigenvalues --   -0.46050  -0.45965  -0.45813  -0.45337  -0.45122
 Alpha  occ. eigenvalues --   -0.45056  -0.44797  -0.44685  -0.44444  -0.44290
 Alpha  occ. eigenvalues --   -0.44045  -0.43808  -0.43713  -0.43540  -0.43421
 Alpha  occ. eigenvalues --   -0.43181  -0.43092  -0.42811  -0.42580  -0.42305
 Alpha  occ. eigenvalues --   -0.42161  -0.41812  -0.41747  -0.41453  -0.41343
 Alpha  occ. eigenvalues --   -0.41204  -0.40731  -0.40595  -0.40190  -0.39985
 Alpha  occ. eigenvalues --   -0.39799  -0.39717  -0.39578  -0.39516  -0.39376
 Alpha  occ. eigenvalues --   -0.39268  -0.39066  -0.39034  -0.38755  -0.38595
 Alpha  occ. eigenvalues --   -0.38421  -0.38334  -0.38055  -0.37981  -0.37857
 Alpha  occ. eigenvalues --   -0.37757  -0.37474  -0.37357  -0.37275  -0.36962
 Alpha  occ. eigenvalues --   -0.36938  -0.36686  -0.36385  -0.36195  -0.36000
 Alpha  occ. eigenvalues --   -0.35917  -0.35448  -0.35329  -0.34989  -0.34778
 Alpha  occ. eigenvalues --   -0.34335  -0.34193  -0.33854  -0.33652  -0.33588
 Alpha  occ. eigenvalues --   -0.33502  -0.33335  -0.32587  -0.32269  -0.32071
 Alpha  occ. eigenvalues --   -0.31874  -0.31838  -0.31307  -0.30837  -0.30724
 Alpha  occ. eigenvalues --   -0.30526  -0.30137  -0.29824  -0.29470  -0.29449
 Alpha  occ. eigenvalues --   -0.29303  -0.28554  -0.28015  -0.26840  -0.25764
 Alpha  occ. eigenvalues --   -0.25562  -0.25368  -0.25156  -0.24745  -0.21427
 Alpha  occ. eigenvalues --   -0.18668
 Alpha virt. eigenvalues --   -0.11224  -0.05171  -0.03678  -0.01980  -0.01633
 Alpha virt. eigenvalues --    0.00442   0.00890   0.01193   0.01593   0.03422
 Alpha virt. eigenvalues --    0.04008   0.04823   0.05141   0.05513   0.05976

 Mulliken charges:
               1
     1  Mg   0.964453
     2  C   -0.004781
     3  C   -0.057377
     4  C   -0.083112
     5  C   -0.057505
     6  N   -0.364747
     7  C   -0.008663
     8  C   -0.041022
     9  C   -0.115244
    10  C    0.049294
    11  C    0.031776
    12  C   -0.002789
    13  C   -0.003589
    14  C    0.212971
    15  O   -0.243526
    16  O   -0.351714
    17  N   -0.403587
    18  C    0.127575
    19  C   -0.125888
    20  C   -0.095103
    21  C    0.166108
    22  C    0.059717
    23  C    0.029134
    24  O   -0.263695
    25  C   -0.009771
    26  N   -0.433751
    27  C    0.030805
    28  C   -0.100331
    29  C   -0.135902
    30  C    0.076385
    31  C    0.022976
    32  C   -0.035626
    33  C   -0.056310
    34  N   -0.445548
    35  C    0.134010
    36  C   -0.191172
    37  C   -0.036155
    38  C    0.164723
    39  C    0.070737
    40  C    0.099704
    41  O   -0.196606
    42  C   -0.091952
    43  C    0.270976
    44  O   -0.252896
    45  O   -0.373535
    46  C    0.133242
    47  C    0.280873
    48  C   -0.193697
    49  C   -0.191957
    50  C    0.035857
    51  C   -0.042312
    52  C   -0.052587
    53  C   -0.026887
    54  C   -0.213662
    55  C   -0.022825
    56  C   -0.010355
    57  C   -0.057749
    58  C   -0.002524
    59  C   -0.254709
    60  C   -0.002853
    61  C    0.000724
    62  C   -0.063793
    63  C   -0.032036
    64  C   -0.231526
    65  C   -0.021317
    66  C   -0.030838
    67  H   -0.002959
    68  H   -0.014069
    69  H    0.006167
    70  H    0.042754
    71  H    0.032625
    72  H    0.055484
    73  H    0.044961
    74  H    0.047957
    75  H    0.035453
    76  H    0.025730
    77  H    0.054442
    78  H    0.080498
    79  H    0.044104
    80  H    0.022211
    81  H    0.071298
    82  H    0.051756
    83  H    0.071132
    84  H    0.070027
    85  H    0.052455
    86  H    0.040626
    87  H    0.043317
    88  H    0.046643
    89  H    0.061250
    90  H    0.067417
    91  H    0.035914
    92  H    0.055510
    93  H    0.052674
    94  H    0.049457
    95  H    0.070460
    96  H    0.062435
    97  H    0.016021
    98  H    0.065442
    99  H    0.050249
   100  H    0.078220
   101  H    0.053760
   102  H    0.051434
   103  H    0.060442
   104  H    0.023484
   105  H    0.061614
   106  H    0.033348
   107  H    0.056331
   108  H    0.057753
   109  H    0.053561
   110  H    0.033154
   111  H    0.029322
   112  H    0.033476
   113  H    0.037280
   114  H    0.032428
   115  H    0.053902
   116  H    0.022332
   117  H    0.022531
   118  H    0.033973
   119  H    0.027874
   120  H    0.043891
   121  H    0.032111
   122  H    0.029857
   123  H    0.037803
   124  H    0.022281
   125  H    0.040720
   126  H    0.019897
   127  H    0.033886
   128  H    0.032373
   129  H    0.025724
   130  H    0.038012
   131  H    0.039428
   132  H    0.030898
   133  H    0.029709
   134  H    0.039955
   135  H    0.033893
   136  H    0.029109
   137  H    0.040667
   138  H    0.044367
   139  H    0.031850
   140  H    0.029385
 Sum of Mulliken charges =  -0.00000

 Dipole moment (field-independent basis, Debye):
    X=              0.7992    Y=              2.8117    Z=              2.1146  Tot=              3.6078
 Quadrupole moment (field-independent basis, Debye-Ang):
   XX=           -394.9924   YY=           -397.8916   ZZ=           -396.5999
   XY=            -58.8197   XZ=             -7.7838   YZ=            -41.9497

 Normal termination of Gaussian 16 at Wed May  4 03:56:33 2022.
