 Gaussian 16, Revision A.03,
 Gaussian 16:  ES64L-G16RevA.03 25-Dec-2016

 --------------------------------
 #p wB97XD/Def2SVP td=(nstates=5)
 --------------------------------

 -----------------------------------------------------
 step_1351_chromophore_11 TDDFT with wB97XD functional
 -----------------------------------------------------
 Symbolic Z-matrix:
 Charge =  0 Multiplicity = 1

                         Standard orientation:
 ---------------------------------------------------------------------
 Center     Atomic      Atomic             Coordinates (Angstroms)
 Number     Number       Type             X           Y           Z
 ---------------------------------------------------------------------
      1         12           0       -4.738060    1.509441    0.608180
      2          6           0       -5.344835   -2.043430    0.404568
      3          6           0       -2.247618    0.795333    2.826900
      4          6           0       -3.590350    4.613230    0.177571
      5          6           0       -7.008193    1.832240   -2.084382
      6          7           0       -3.869516   -0.373697    1.527928
      7          6           0       -4.264221   -1.740768    1.277450
      8          6           0       -3.484818   -2.660924    2.243907
      9          6           0       -2.872748   -1.623415    3.273235
     10          6           0       -2.970847   -0.333173    2.483378
     11          6           0       -3.706571   -1.472581    4.562700
     12          6           0       -2.517895   -3.606613    1.498356
     13          6           0       -1.860367   -3.217837    0.235542
     14          6           0       -0.901345   -4.163203   -0.498199
     15          8           0       -1.238413   -4.833399   -1.455196
     16          8           0        0.319312   -4.087833    0.069248
     17          7           0       -3.125794    2.634196    1.386405
     18          6           0       -2.274634    2.121935    2.347375
     19          6           0       -1.438586    3.149169    2.783374
     20          6           0       -1.723781    4.268812    1.987321
     21          6           0       -2.860164    3.815768    1.128997
     22          6           0       -0.402604    3.040687    3.943917
     23          6           0       -1.153331    5.655735    2.171005
     24          8           0       -0.315313    5.840207    3.075334
     25          6           0       -1.621949    6.794743    1.357549
     26          7           0       -5.110480    2.875674   -0.893895
     27          6           0       -4.656156    4.190638   -0.714301
     28          6           0       -5.401728    5.227221   -1.632941
     29          6           0       -6.309670    4.295567   -2.459971
     30          6           0       -6.188735    2.900290   -1.736047
     31          6           0       -5.951545    6.443888   -0.839454
     32          6           0       -5.765011    3.952183   -3.919345
     33          6           0       -6.933205    3.762039   -4.925368
     34          7           0       -6.057777    0.254612   -0.509133
     35          6           0       -6.987852    0.597970   -1.434875
     36          6           0       -7.715841   -0.630666   -1.847854
     37          6           0       -7.112940   -1.639473   -1.076657
     38          6           0       -6.048524   -1.086519   -0.340598
     39          6           0       -8.844147   -0.762899   -2.782285
     40          6           0       -7.325169   -3.008199   -0.688644
     41          8           0       -8.198038   -3.816773   -0.871930
     42          6           0       -6.120707   -3.395574    0.202821
     43          6           0       -5.421158   -4.486410   -0.480212
     44          8           0       -4.853724   -4.391784   -1.555961
     45          8           0       -5.506121   -5.674649    0.196740
     46          6           0       -4.721315   -6.797728   -0.340137
     47          6           0        1.331869   -5.073296   -0.300472
     48          6           0        2.518030   -4.271100   -0.741894
     49          6           0        3.442795   -3.667605    0.032376
     50          6           0        3.495018   -3.565278    1.515370
     51          6           0        4.559624   -2.945696   -0.752232
     52          6           0        5.711058   -2.211728   -0.075017
     53          6           0        6.374533   -1.028461   -0.974623
     54          6           0        6.336799    0.360301   -0.225127
     55          6           0        6.037707    1.545318   -1.231087
     56          6           0        7.602127    0.582924    0.653456
     57          6           0        8.954741    0.912240   -0.046152
     58          6           0        9.966885   -0.258823    0.135687
     59          6           0       11.243259    0.189129    0.919643
     60          6           0       10.935663    0.570693    2.363245
     61          6           0       12.183985    1.234950    0.185413
     62          6           0       12.991762    0.652375   -1.079101
     63          6           0       14.568845    0.738438   -0.852500
     64          6           0       15.325805    0.381227   -2.144306
     65          6           0       16.652123   -0.361408   -1.681936
     66          6           0       15.641875    1.691171   -2.916459
     67          1           0       -1.479534    0.675281    3.593359
     68          1           0       -3.459862    5.691170    0.063156
     69          1           0       -7.857349    2.000456   -2.749409
     70          1           0       -4.252586   -3.219759    2.778660
     71          1           0       -1.824177   -1.884406    3.417041
     72          1           0       -4.760601   -1.385497    4.301028
     73          1           0       -3.402755   -0.644395    5.202941
     74          1           0       -3.442961   -2.330745    5.180931
     75          1           0       -3.054570   -4.544220    1.353261
     76          1           0       -1.739022   -3.952785    2.178300
     77          1           0       -1.351258   -2.270853    0.415453
     78          1           0       -2.671717   -3.118266   -0.485381
     79          1           0        0.560836    2.638335    3.629454
     80          1           0       -0.645467    2.312124    4.717393
     81          1           0       -0.181326    3.963808    4.479852
     82          1           0       -0.995359    7.624201    1.684306
     83          1           0       -2.665447    6.990850    1.603514
     84          1           0       -1.482976    6.671254    0.283417
     85          1           0       -4.546270    5.587043   -2.205449
     86          1           0       -7.367791    4.556379   -2.435050
     87          1           0       -7.020261    6.450051   -1.051666
     88          1           0       -5.435246    7.258428   -1.347323
     89          1           0       -5.765915    6.470165    0.234267
     90          1           0       -5.116984    3.079812   -3.835345
     91          1           0       -5.113221    4.775196   -4.211982
     92          1           0       -6.685348    2.801384   -5.377653
     93          1           0       -6.839640    4.614787   -5.597802
     94          1           0       -7.926998    3.728917   -4.481107
     95          1           0       -9.731432   -1.211650   -2.335163
     96          1           0       -8.509120   -1.324791   -3.653473
     97          1           0       -9.169960    0.175018   -3.232622
     98          1           0       -6.596142   -3.827972    1.083475
     99          1           0       -3.696515   -6.490730   -0.133019
    100          1           0       -4.895355   -7.006250   -1.396208
    101          1           0       -4.954943   -7.652599    0.295042
    102          1           0        1.004146   -5.515546   -1.241787
    103          1           0        1.644496   -5.795397    0.454456
    104          1           0        2.677944   -4.139416   -1.811535
    105          1           0        4.309519   -4.172522    1.909939
    106          1           0        2.564314   -3.865590    1.994923
    107          1           0        3.563062   -2.507593    1.772870
    108          1           0        4.008320   -2.226816   -1.358873
    109          1           0        5.041772   -3.657494   -1.422324
    110          1           0        6.602150   -2.827059    0.050514
    111          1           0        5.396609   -1.833663    0.897018
    112          1           0        5.795395   -0.958871   -1.894753
    113          1           0        7.414221   -1.277597   -1.188239
    114          1           0        5.459546    0.303917    0.420269
    115          1           0        4.999164    1.849904   -1.362093
    116          1           0        6.515010    1.230552   -2.158727
    117          1           0        6.672614    2.420310   -1.090787
    118          1           0        7.577032   -0.260023    1.345353
    119          1           0        7.417936    1.491104    1.226236
    120          1           0        9.397874    1.847965    0.295606
    121          1           0        8.826398    0.991243   -1.124816
    122          1           0       10.304025   -0.633779   -0.830651
    123          1           0        9.545548   -0.989625    0.825211
    124          1           0       11.879249   -0.696358    0.927275
    125          1           0       11.398463   -0.034296    3.142113
    126          1           0        9.888236    0.432833    2.633669
    127          1           0       11.104835    1.645341    2.426543
    128          1           0       12.967031    1.534634    0.882660
    129          1           0       11.495876    2.045638   -0.053357
    130          1           0       12.645748    1.104640   -2.008601
    131          1           0       12.796397   -0.418901   -1.064838
    132          1           0       14.876618    0.120536   -0.009594
    133          1           0       14.858813    1.735772   -0.522690
    134          1           0       14.754008   -0.168952   -2.891001
    135          1           0       16.777509   -0.352990   -0.599174
    136          1           0       17.517120    0.131429   -2.126124
    137          1           0       16.644786   -1.419143   -1.945814
    138          1           0       14.743476    2.281808   -3.094893
    139          1           0       16.153874    1.409884   -3.836789
    140          1           0       16.422540    2.258990   -2.410449
 ---------------------------------------------------------------------

 SCF Done:  E(RwB97XD) =  -3007.86698967     A.U. after   19 cycles

 Excitation energies and oscillator strengths:

 Excited State   1:      Singlet-A      1.6164 eV  767.02 nm  f=0.3771  <S**2>=0.000
     245 -> 248        0.17162
     246 -> 247        0.68677
     245 <- 248        0.11492
 This state for optimization and/or second-order correction.
 Total Energy, E(TD-HF/TD-DFT) =  -3007.80758683
 Copying the excited state density for this state as the 1-particle RhoCI density.

 Excited State   2:      Singlet-A      2.2689 eV  546.45 nm  f=0.0877  <S**2>=0.000
     245 -> 247        0.62278
     246 -> 248       -0.32097

 Excited State   3:      Singlet-A      3.4543 eV  358.93 nm  f=0.0142  <S**2>=0.000
     243 -> 247        0.64168
     243 -> 249        0.10529
     246 -> 248       -0.17382

 Excited State   4:      Singlet-A      3.5042 eV  353.82 nm  f=0.0086  <S**2>=0.000
     240 -> 247        0.39315
     240 -> 249       -0.27061
     240 -> 251        0.21129
     241 -> 247        0.24705
     242 -> 247       -0.32500

 Excited State   5:      Singlet-A      3.5532 eV  348.94 nm  f=0.2925  <S**2>=0.000
     240 -> 247        0.30826
     240 -> 249       -0.15122
     240 -> 251        0.10704
     241 -> 247       -0.13307
     242 -> 247        0.33495
     245 -> 247        0.19839
     246 -> 248        0.43322

 The electronic state is 1-A.
 Alpha  occ. eigenvalues --  -46.96123 -19.30025 -19.29250 -19.24163 -19.23625
 Alpha  occ. eigenvalues --  -19.23404 -19.23292 -14.47442 -14.46619 -14.44210
 Alpha  occ. eigenvalues --  -14.43884 -10.42616 -10.42038 -10.38654 -10.38211
 Alpha  occ. eigenvalues --  -10.36188 -10.35737 -10.35461 -10.35091 -10.34685
 Alpha  occ. eigenvalues --  -10.34521 -10.34514 -10.33660 -10.33618 -10.33427
 Alpha  occ. eigenvalues --  -10.32885 -10.32691 -10.32490 -10.32488 -10.32309
 Alpha  occ. eigenvalues --  -10.32116 -10.31797 -10.31624 -10.31376 -10.31167
 Alpha  occ. eigenvalues --  -10.31021 -10.30922 -10.30817 -10.30810 -10.30752
 Alpha  occ. eigenvalues --  -10.30485 -10.30321 -10.29937 -10.29891 -10.29864
 Alpha  occ. eigenvalues --  -10.29804 -10.29728 -10.29704 -10.29612 -10.29527
 Alpha  occ. eigenvalues --  -10.29380 -10.29345 -10.29317 -10.29225 -10.29128
 Alpha  occ. eigenvalues --  -10.28989 -10.28910 -10.28855 -10.28851 -10.28660
 Alpha  occ. eigenvalues --  -10.28613 -10.28537 -10.28409 -10.28181 -10.28094
 Alpha  occ. eigenvalues --  -10.27987  -3.22030  -1.95591  -1.95148  -1.94998
 Alpha  occ. eigenvalues --   -1.18619  -1.17598  -1.12815  -1.10730  -1.10119
 Alpha  occ. eigenvalues --   -1.08729  -1.08702  -1.06124  -1.05459  -1.04288
 Alpha  occ. eigenvalues --   -0.94538  -0.92150  -0.91650  -0.90976  -0.90927
 Alpha  occ. eigenvalues --   -0.90528  -0.89784  -0.89462  -0.88829  -0.88687
 Alpha  occ. eigenvalues --   -0.87957  -0.87637  -0.86148  -0.85929  -0.85320
 Alpha  occ. eigenvalues --   -0.84022  -0.83892  -0.82943  -0.82755  -0.82371
 Alpha  occ. eigenvalues --   -0.81257  -0.80108  -0.79520  -0.79007  -0.78210
 Alpha  occ. eigenvalues --   -0.77973  -0.77685  -0.77082  -0.76479  -0.75521
 Alpha  occ. eigenvalues --   -0.75143  -0.74571  -0.73974  -0.72843  -0.70787
 Alpha  occ. eigenvalues --   -0.70594  -0.70566  -0.69240  -0.68587  -0.68012
 Alpha  occ. eigenvalues --   -0.67665  -0.67001  -0.66805  -0.66611  -0.65566
 Alpha  occ. eigenvalues --   -0.65188  -0.63684  -0.63567  -0.62696  -0.62100
 Alpha  occ. eigenvalues --   -0.61614  -0.61081  -0.60877  -0.60751  -0.60101
 Alpha  occ. eigenvalues --   -0.59584  -0.59394  -0.58409  -0.57921  -0.57725
 Alpha  occ. eigenvalues --   -0.57120  -0.56925  -0.56585  -0.56076  -0.55747
 Alpha  occ. eigenvalues --   -0.55416  -0.55339  -0.55131  -0.54743  -0.54540
 Alpha  occ. eigenvalues --   -0.54222  -0.54141  -0.53918  -0.53718  -0.53664
 Alpha  occ. eigenvalues --   -0.53375  -0.53316  -0.53203  -0.52739  -0.52531
 Alpha  occ. eigenvalues --   -0.52403  -0.52177  -0.52027  -0.51764  -0.51630
 Alpha  occ. eigenvalues --   -0.51340  -0.51148  -0.50887  -0.50850  -0.50769
 Alpha  occ. eigenvalues --   -0.50493  -0.50397  -0.50097  -0.49886  -0.49556
 Alpha  occ. eigenvalues --   -0.49346  -0.49094  -0.48976  -0.48716  -0.48614
 Alpha  occ. eigenvalues --   -0.48346  -0.48052  -0.47815  -0.47391  -0.47207
 Alpha  occ. eigenvalues --   -0.47000  -0.46901  -0.46823  -0.46688  -0.46510
 Alpha  occ. eigenvalues --   -0.46411  -0.46286  -0.46178  -0.45924  -0.45699
 Alpha  occ. eigenvalues --   -0.45580  -0.45502  -0.45241  -0.45190  -0.45010
 Alpha  occ. eigenvalues --   -0.44891  -0.44584  -0.44432  -0.44353  -0.44079
 Alpha  occ. eigenvalues --   -0.44063  -0.43726  -0.43517  -0.43431  -0.43170
 Alpha  occ. eigenvalues --   -0.43039  -0.42500  -0.42394  -0.42087  -0.41761
 Alpha  occ. eigenvalues --   -0.41380  -0.41305  -0.40958  -0.40743  -0.40649
 Alpha  occ. eigenvalues --   -0.40533  -0.40291  -0.39620  -0.39227  -0.39023
 Alpha  occ. eigenvalues --   -0.38885  -0.38780  -0.38338  -0.37817  -0.37654
 Alpha  occ. eigenvalues --   -0.37617  -0.37062  -0.36738  -0.36376  -0.36213
 Alpha  occ. eigenvalues --   -0.36020  -0.35636  -0.35143  -0.33487  -0.32686
 Alpha  occ. eigenvalues --   -0.32551  -0.32429  -0.31677  -0.31503  -0.26495
 Alpha  occ. eigenvalues --   -0.22800
 Alpha virt. eigenvalues --   -0.07089   0.00273   0.02605   0.04102   0.04747
 Alpha virt. eigenvalues --    0.07130   0.07580   0.07969   0.08414   0.10150
 Alpha virt. eigenvalues --    0.10620   0.11381   0.11889   0.12238   0.12631

 Mulliken charges:
               1
     1  Mg   0.957645
     2  C   -0.010167
     3  C   -0.072336
     4  C   -0.102701
     5  C   -0.077968
     6  N   -0.328010
     7  C   -0.043681
     8  C   -0.019332
     9  C   -0.087413
    10  C    0.031127
    11  C    0.039143
    12  C    0.010558
    13  C    0.024725
    14  C    0.201310
    15  O   -0.240839
    16  O   -0.351590
    17  N   -0.364993
    18  C    0.122424
    19  C   -0.119524
    20  C   -0.091756
    21  C    0.161295
    22  C    0.069921
    23  C    0.027440
    24  O   -0.258752
    25  C    0.002981
    26  N   -0.412405
    27  C    0.025886
    28  C   -0.078783
    29  C   -0.110263
    30  C    0.074872
    31  C    0.033988
    32  C   -0.020702
    33  C   -0.041763
    34  N   -0.405244
    35  C    0.123883
    36  C   -0.189893
    37  C   -0.033116
    38  C    0.149813
    39  C    0.080842
    40  C    0.085086
    41  O   -0.187307
    42  C   -0.050910
    43  C    0.240353
    44  O   -0.244857
    45  O   -0.370681
    46  C    0.149382
    47  C    0.294282
    48  C   -0.199454
    49  C   -0.184733
    50  C    0.049267
    51  C   -0.024600
    52  C   -0.031768
    53  C   -0.012456
    54  C   -0.182570
    55  C   -0.011586
    56  C    0.007055
    57  C   -0.044637
    58  C    0.014904
    59  C   -0.218447
    60  C    0.007591
    61  C    0.013673
    62  C   -0.046519
    63  C   -0.015744
    64  C   -0.204859
    65  C   -0.009081
    66  C   -0.018214
    67  H   -0.008471
    68  H   -0.028162
    69  H   -0.004721
    70  H    0.032708
    71  H    0.025241
    72  H    0.049612
    73  H    0.038896
    74  H    0.042708
    75  H    0.020838
    76  H    0.018217
    77  H    0.045748
    78  H    0.066955
    79  H    0.040394
    80  H    0.016957
    81  H    0.069127
    82  H    0.050586
    83  H    0.065585
    84  H    0.066131
    85  H    0.041153
    86  H    0.029902
    87  H    0.037789
    88  H    0.041498
    89  H    0.055357
    90  H    0.057882
    91  H    0.026972
    92  H    0.050125
    93  H    0.047464
    94  H    0.043022
    95  H    0.066030
    96  H    0.056739
    97  H    0.010113
    98  H    0.060649
    99  H    0.044506
   100  H    0.075267
   101  H    0.050734
   102  H    0.047815
   103  H    0.056996
   104  H    0.021327
   105  H    0.056578
   106  H    0.028988
   107  H    0.049982
   108  H    0.047607
   109  H    0.045629
   110  H    0.025348
   111  H    0.015730
   112  H    0.023907
   113  H    0.026126
   114  H    0.020268
   115  H    0.050455
   116  H    0.014058
   117  H    0.016077
   118  H    0.022744
   119  H    0.019531
   120  H    0.034054
   121  H    0.022632
   122  H    0.021979
   123  H    0.025732
   124  H    0.008367
   125  H    0.036922
   126  H    0.010913
   127  H    0.027560
   128  H    0.022273
   129  H    0.015177
   130  H    0.030986
   131  H    0.027322
   132  H    0.021136
   133  H    0.019804
   134  H    0.030758
   135  H    0.027301
   136  H    0.023341
   137  H    0.035383
   138  H    0.038311
   139  H    0.025631
   140  H    0.021906
 Sum of Mulliken charges =  -0.00000

 Dipole moment (field-independent basis, Debye):
    X=              1.0749    Y=              2.8884    Z=              2.4665  Tot=              3.9474
 Quadrupole moment (field-independent basis, Debye-Ang):
   XX=           -397.3388   YY=           -396.5133   ZZ=           -396.3842
   XY=            -58.3326   XZ=             -9.3920   YZ=            -41.1691

 Normal termination of Gaussian 16 at Wed May  4 04:24:32 2022.
