 Gaussian 16, Revision A.03,
 Gaussian 16:  ES64L-G16RevA.03 25-Dec-2016

 --------------------
 #p ZINDO=(nstates=5)
 --------------------

 ------------------------------
 step_1351_chromophore_11 ZINDO
 ------------------------------
 Symbolic Z-matrix:
 Charge =  0 Multiplicity = 1

                         Standard orientation:
 ---------------------------------------------------------------------
 Center     Atomic      Atomic             Coordinates (Angstroms)
 Number     Number       Type             X           Y           Z
 ---------------------------------------------------------------------
      1         12           0       -4.738060    1.509441    0.608180
      2          6           0       -5.344835   -2.043430    0.404568
      3          6           0       -2.247618    0.795333    2.826900
      4          6           0       -3.590350    4.613230    0.177571
      5          6           0       -7.008193    1.832240   -2.084382
      6          7           0       -3.869516   -0.373697    1.527928
      7          6           0       -4.264221   -1.740768    1.277450
      8          6           0       -3.484818   -2.660924    2.243907
      9          6           0       -2.872748   -1.623415    3.273235
     10          6           0       -2.970847   -0.333173    2.483378
     11          6           0       -3.706571   -1.472581    4.562700
     12          6           0       -2.517895   -3.606613    1.498356
     13          6           0       -1.860367   -3.217837    0.235542
     14          6           0       -0.901345   -4.163203   -0.498199
     15          8           0       -1.238413   -4.833399   -1.455196
     16          8           0        0.319312   -4.087833    0.069248
     17          7           0       -3.125794    2.634196    1.386405
     18          6           0       -2.274634    2.121935    2.347375
     19          6           0       -1.438586    3.149169    2.783374
     20          6           0       -1.723781    4.268812    1.987321
     21          6           0       -2.860164    3.815768    1.128997
     22          6           0       -0.402604    3.040687    3.943917
     23          6           0       -1.153331    5.655735    2.171005
     24          8           0       -0.315313    5.840207    3.075334
     25          6           0       -1.621949    6.794743    1.357549
     26          7           0       -5.110480    2.875674   -0.893895
     27          6           0       -4.656156    4.190638   -0.714301
     28          6           0       -5.401728    5.227221   -1.632941
     29          6           0       -6.309670    4.295567   -2.459971
     30          6           0       -6.188735    2.900290   -1.736047
     31          6           0       -5.951545    6.443888   -0.839454
     32          6           0       -5.765011    3.952183   -3.919345
     33          6           0       -6.933205    3.762039   -4.925368
     34          7           0       -6.057777    0.254612   -0.509133
     35          6           0       -6.987852    0.597970   -1.434875
     36          6           0       -7.715841   -0.630666   -1.847854
     37          6           0       -7.112940   -1.639473   -1.076657
     38          6           0       -6.048524   -1.086519   -0.340598
     39          6           0       -8.844147   -0.762899   -2.782285
     40          6           0       -7.325169   -3.008199   -0.688644
     41          8           0       -8.198038   -3.816773   -0.871930
     42          6           0       -6.120707   -3.395574    0.202821
     43          6           0       -5.421158   -4.486410   -0.480212
     44          8           0       -4.853724   -4.391784   -1.555961
     45          8           0       -5.506121   -5.674649    0.196740
     46          6           0       -4.721315   -6.797728   -0.340137
     47          6           0        1.331869   -5.073296   -0.300472
     48          6           0        2.518030   -4.271100   -0.741894
     49          6           0        3.442795   -3.667605    0.032376
     50          6           0        3.495018   -3.565278    1.515370
     51          6           0        4.559624   -2.945696   -0.752232
     52          6           0        5.711058   -2.211728   -0.075017
     53          6           0        6.374533   -1.028461   -0.974623
     54          6           0        6.336799    0.360301   -0.225127
     55          6           0        6.037707    1.545318   -1.231087
     56          6           0        7.602127    0.582924    0.653456
     57          6           0        8.954741    0.912240   -0.046152
     58          6           0        9.966885   -0.258823    0.135687
     59          6           0       11.243259    0.189129    0.919643
     60          6           0       10.935663    0.570693    2.363245
     61          6           0       12.183985    1.234950    0.185413
     62          6           0       12.991762    0.652375   -1.079101
     63          6           0       14.568845    0.738438   -0.852500
     64          6           0       15.325805    0.381227   -2.144306
     65          6           0       16.652123   -0.361408   -1.681936
     66          6           0       15.641875    1.691171   -2.916459
     67          1           0       -1.479534    0.675281    3.593359
     68          1           0       -3.459862    5.691170    0.063156
     69          1           0       -7.857349    2.000456   -2.749409
     70          1           0       -4.252586   -3.219759    2.778660
     71          1           0       -1.824177   -1.884406    3.417041
     72          1           0       -4.760601   -1.385497    4.301028
     73          1           0       -3.402755   -0.644395    5.202941
     74          1           0       -3.442961   -2.330745    5.180931
     75          1           0       -3.054570   -4.544220    1.353261
     76          1           0       -1.739022   -3.952785    2.178300
     77          1           0       -1.351258   -2.270853    0.415453
     78          1           0       -2.671717   -3.118266   -0.485381
     79          1           0        0.560836    2.638335    3.629454
     80          1           0       -0.645467    2.312124    4.717393
     81          1           0       -0.181326    3.963808    4.479852
     82          1           0       -0.995359    7.624201    1.684306
     83          1           0       -2.665447    6.990850    1.603514
     84          1           0       -1.482976    6.671254    0.283417
     85          1           0       -4.546270    5.587043   -2.205449
     86          1           0       -7.367791    4.556379   -2.435050
     87          1           0       -7.020261    6.450051   -1.051666
     88          1           0       -5.435246    7.258428   -1.347323
     89          1           0       -5.765915    6.470165    0.234267
     90          1           0       -5.116984    3.079812   -3.835345
     91          1           0       -5.113221    4.775196   -4.211982
     92          1           0       -6.685348    2.801384   -5.377653
     93          1           0       -6.839640    4.614787   -5.597802
     94          1           0       -7.926998    3.728917   -4.481107
     95          1           0       -9.731432   -1.211650   -2.335163
     96          1           0       -8.509120   -1.324791   -3.653473
     97          1           0       -9.169960    0.175018   -3.232622
     98          1           0       -6.596142   -3.827972    1.083475
     99          1           0       -3.696515   -6.490730   -0.133019
    100          1           0       -4.895355   -7.006250   -1.396208
    101          1           0       -4.954943   -7.652599    0.295042
    102          1           0        1.004146   -5.515546   -1.241787
    103          1           0        1.644496   -5.795397    0.454456
    104          1           0        2.677944   -4.139416   -1.811535
    105          1           0        4.309519   -4.172522    1.909939
    106          1           0        2.564314   -3.865590    1.994923
    107          1           0        3.563062   -2.507593    1.772870
    108          1           0        4.008320   -2.226816   -1.358873
    109          1           0        5.041772   -3.657494   -1.422324
    110          1           0        6.602150   -2.827059    0.050514
    111          1           0        5.396609   -1.833663    0.897018
    112          1           0        5.795395   -0.958871   -1.894753
    113          1           0        7.414221   -1.277597   -1.188239
    114          1           0        5.459546    0.303917    0.420269
    115          1           0        4.999164    1.849904   -1.362093
    116          1           0        6.515010    1.230552   -2.158727
    117          1           0        6.672614    2.420310   -1.090787
    118          1           0        7.577032   -0.260023    1.345353
    119          1           0        7.417936    1.491104    1.226236
    120          1           0        9.397874    1.847965    0.295606
    121          1           0        8.826398    0.991243   -1.124816
    122          1           0       10.304025   -0.633779   -0.830651
    123          1           0        9.545548   -0.989625    0.825211
    124          1           0       11.879249   -0.696358    0.927275
    125          1           0       11.398463   -0.034296    3.142113
    126          1           0        9.888236    0.432833    2.633669
    127          1           0       11.104835    1.645341    2.426543
    128          1           0       12.967031    1.534634    0.882660
    129          1           0       11.495876    2.045638   -0.053357
    130          1           0       12.645748    1.104640   -2.008601
    131          1           0       12.796397   -0.418901   -1.064838
    132          1           0       14.876618    0.120536   -0.009594
    133          1           0       14.858813    1.735772   -0.522690
    134          1           0       14.754008   -0.168952   -2.891001
    135          1           0       16.777509   -0.352990   -0.599174
    136          1           0       17.517120    0.131429   -2.126124
    137          1           0       16.644786   -1.419143   -1.945814
    138          1           0       14.743476    2.281808   -3.094893
    139          1           0       16.153874    1.409884   -3.836789
    140          1           0       16.422540    2.258990   -2.410449
 ---------------------------------------------------------------------

 SCF Done:  E(RZINDO/S) =  -474.298003732     A.U. after   19 cycles

 Excitation energies and oscillator strengths:

 Excited State   1:      Singlet-A      1.2004 eV 1032.89 nm  f=0.6092  <S**2>=0.000
     175 ->178        -0.18086
     176 ->177         0.66577
 This state for optimization and/or second-order correction.
 Total Energy, E(CIS/TDA) =  -474.253891337
 Copying the excited state density for this state as the 1-particle RhoCI density.

 Excited State   2:      Singlet-A      1.9479 eV  636.51 nm  f=0.0149  <S**2>=0.000
     175 ->177         0.51648
     176 ->178         0.46166

 Excited State   3:      Singlet-A      2.8673 eV  432.40 nm  f=0.0280  <S**2>=0.000
     176 ->179        -0.27269
     176 ->180         0.62892

 Excited State   4:      Singlet-A      2.9361 eV  422.28 nm  f=0.1255  <S**2>=0.000
     169 ->177         0.28014
     169 ->179        -0.30635
     169 ->181        -0.29093
     169 ->183         0.11808
     169 ->185        -0.17388
     170 ->179         0.10873
     175 ->177        -0.13996
     176 ->178         0.16395
     176 ->179        -0.22561
     176 ->180        -0.10182

 Excited State   5:      Singlet-A      2.9491 eV  420.41 nm  f=0.2240  <S**2>=0.000
     169 ->177        -0.15037
     169 ->179         0.21554
     169 ->181         0.15376
     169 ->185         0.12062
     170 ->177         0.19767
     170 ->179         0.17791
     170 ->181        -0.19748
     175 ->177        -0.19507
     176 ->178         0.22162
     176 ->179        -0.29197

 The electronic state is 1-A.
 Alpha  occ. eigenvalues --   -1.85497  -1.84023  -1.79991  -1.73915  -1.73374
 Alpha  occ. eigenvalues --   -1.71549  -1.63921  -1.60118  -1.58665  -1.58556
 Alpha  occ. eigenvalues --   -1.55043  -1.51541  -1.48151  -1.47398  -1.46194
 Alpha  occ. eigenvalues --   -1.44548  -1.43254  -1.40626  -1.38143  -1.36736
 Alpha  occ. eigenvalues --   -1.35591  -1.33835  -1.31662  -1.30617  -1.27767
 Alpha  occ. eigenvalues --   -1.27244  -1.24932  -1.23407  -1.21645  -1.17981
 Alpha  occ. eigenvalues --   -1.17545  -1.16640  -1.15231  -1.14067  -1.13319
 Alpha  occ. eigenvalues --   -1.12503  -1.10033  -1.09361  -1.05731  -1.04034
 Alpha  occ. eigenvalues --   -1.03809  -1.01297  -1.00987  -0.99383  -0.97982
 Alpha  occ. eigenvalues --   -0.96744  -0.94387  -0.93408  -0.91815  -0.91320
 Alpha  occ. eigenvalues --   -0.89457  -0.88922  -0.87908  -0.86725  -0.85804
 Alpha  occ. eigenvalues --   -0.85102  -0.83524  -0.82343  -0.81326  -0.80106
 Alpha  occ. eigenvalues --   -0.79659  -0.79388  -0.78789  -0.77207  -0.77004
 Alpha  occ. eigenvalues --   -0.76145  -0.75678  -0.74774  -0.74254  -0.73449
 Alpha  occ. eigenvalues --   -0.72524  -0.72477  -0.71610  -0.71562  -0.70854
 Alpha  occ. eigenvalues --   -0.70341  -0.69535  -0.68930  -0.68695  -0.68591
 Alpha  occ. eigenvalues --   -0.67252  -0.66405  -0.66266  -0.66033  -0.65620
 Alpha  occ. eigenvalues --   -0.65248  -0.65094  -0.64628  -0.64032  -0.63812
 Alpha  occ. eigenvalues --   -0.63538  -0.63012  -0.62645  -0.62349  -0.61963
 Alpha  occ. eigenvalues --   -0.61916  -0.61016  -0.60508  -0.59884  -0.59634
 Alpha  occ. eigenvalues --   -0.59274  -0.58452  -0.58393  -0.58070  -0.57860
 Alpha  occ. eigenvalues --   -0.57698  -0.56951  -0.56707  -0.56653  -0.56407
 Alpha  occ. eigenvalues --   -0.56261  -0.56015  -0.55468  -0.55198  -0.54820
 Alpha  occ. eigenvalues --   -0.54496  -0.54045  -0.53709  -0.53175  -0.52879
 Alpha  occ. eigenvalues --   -0.52437  -0.52399  -0.52131  -0.51836  -0.51662
 Alpha  occ. eigenvalues --   -0.51346  -0.51126  -0.50734  -0.50577  -0.50161
 Alpha  occ. eigenvalues --   -0.50011  -0.49889  -0.49334  -0.49173  -0.48960
 Alpha  occ. eigenvalues --   -0.48765  -0.48318  -0.48088  -0.47864  -0.47727
 Alpha  occ. eigenvalues --   -0.47387  -0.47255  -0.46859  -0.46585  -0.46532
 Alpha  occ. eigenvalues --   -0.46340  -0.45758  -0.45671  -0.45098  -0.44991
 Alpha  occ. eigenvalues --   -0.44895  -0.44644  -0.44476  -0.44392  -0.44210
 Alpha  occ. eigenvalues --   -0.43707  -0.43248  -0.43130  -0.42861  -0.42263
 Alpha  occ. eigenvalues --   -0.41558  -0.41452  -0.40930  -0.39135  -0.38207
 Alpha  occ. eigenvalues --   -0.37635  -0.37249  -0.35546  -0.35050  -0.34483
 Alpha  occ. eigenvalues --   -0.33216  -0.32763  -0.32093  -0.31795  -0.27189
 Alpha  occ. eigenvalues --   -0.21576
 Alpha virt. eigenvalues --   -0.08633  -0.02155  -0.00383   0.00627   0.01461
 Alpha virt. eigenvalues --    0.02668   0.02911   0.03311   0.04751   0.05132
 Alpha virt. eigenvalues --    0.05992   0.06999   0.07228   0.07922   0.08182

 Mulliken charges:
               1
     1  Mg   0.434307
     2  C   -0.021727
     3  C   -0.065623
     4  C   -0.132980
     5  C   -0.084384
     6  N   -0.284717
     7  C    0.075183
     8  C    0.008383
     9  C    0.004510
    10  C    0.148450
    11  C   -0.042334
    12  C   -0.006598
    13  C    0.008998
    14  C    0.471569
    15  O   -0.504605
    16  O   -0.263845
    17  N   -0.284586
    18  C    0.088689
    19  C    0.049826
    20  C   -0.073121
    21  C    0.173640
    22  C   -0.045016
    23  C    0.328666
    24  O   -0.539463
    25  C   -0.027002
    26  N   -0.289800
    27  C    0.127223
    28  C    0.001467
    29  C   -0.001528
    30  C    0.134819
    31  C   -0.050161
    32  C   -0.028355
    33  C   -0.059153
    34  N   -0.316673
    35  C    0.105102
    36  C    0.017961
    37  C   -0.046327
    38  C    0.104747
    39  C   -0.031624
    40  C    0.342516
    41  O   -0.519438
    42  C    0.052523
    43  C    0.493964
    44  O   -0.522023
    45  O   -0.278808
    46  C    0.077308
    47  C    0.100947
    48  C   -0.091784
    49  C   -0.007621
    50  C   -0.035478
    51  C   -0.025688
    52  C   -0.046501
    53  C   -0.045117
    54  C   -0.013305
    55  C   -0.069631
    56  C   -0.029792
    57  C   -0.032581
    58  C   -0.038095
    59  C   -0.019150
    60  C   -0.058247
    61  C   -0.048432
    62  C   -0.048641
    63  C   -0.032342
    64  C   -0.015601
    65  C   -0.061739
    66  C   -0.059089
    67  H    0.024044
    68  H    0.028243
    69  H    0.028827
    70  H    0.027120
    71  H    0.029945
    72  H    0.034749
    73  H    0.022291
    74  H    0.016807
    75  H    0.020243
    76  H    0.010143
    77  H    0.034883
    78  H    0.044696
    79  H    0.029241
    80  H    0.014524
    81  H    0.045293
    82  H    0.033360
    83  H    0.042224
    84  H    0.038986
    85  H    0.031301
    86  H    0.034780
    87  H    0.022721
    88  H    0.022239
    89  H    0.035593
    90  H    0.034328
    91  H    0.015724
    92  H    0.026054
    93  H    0.023744
    94  H    0.028543
    95  H    0.039134
    96  H    0.036191
    97  H    0.011902
    98  H    0.053355
    99  H    0.039859
   100  H    0.061218
   101  H    0.028537
   102  H    0.051589
   103  H    0.053765
   104  H    0.031116
   105  H    0.034212
   106  H    0.014237
   107  H    0.029369
   108  H    0.027073
   109  H    0.023438
   110  H    0.015845
   111  H    0.024588
   112  H    0.021394
   113  H    0.023794
   114  H    0.014856
   115  H    0.030993
   116  H    0.012207
   117  H    0.015476
   118  H    0.023726
   119  H    0.007462
   120  H    0.028934
   121  H    0.018086
   122  H    0.022771
   123  H    0.024731
   124  H    0.003406
   125  H    0.024116
   126  H    0.009738
   127  H    0.020499
   128  H    0.020360
   129  H    0.024249
   130  H    0.030301
   131  H    0.019752
   132  H    0.020425
   133  H    0.017608
   134  H    0.029523
   135  H    0.020994
   136  H    0.018830
   137  H    0.016987
   138  H    0.024310
   139  H    0.009502
   140  H    0.016824
 Sum of Mulliken charges =  -0.00000

 Dipole moment (field-independent basis, Debye):
    X=              0.1013    Y=              4.3610    Z=              3.8273  Tot=              5.8032
 N-N= 4.362012257636D+03 E-N= 0.000000000000D+00  KE=-9.398534451537D+03
 Leave Link  601 at Wed May  4 04:36:31 2022, MaxMem=  6710886400 cpu:               0.8 elap:               0.0
 (Enter /sw/apps/gaussian-16.0/g16/l9999.exe)
 1\1\GINC-BP1-COMPUTE122\SP\RZINDO CIS\STO-3G\C55H74Mg1N4O6\OF15641\04-
 May-2022\0\\#p ZINDO=(nstates=5)\\step_1351_chromophore_11 ZINDO\\0,1\
 Mg,0,52.047,24.352,45.213\C,0,49.278,26.447,44.225\C,0,50.256,21.701,4
 4.03\C,0,54.848,22.54,45.298\C,0,53.81,27.352,45.845\N,0,50.018,24.064
 ,44.24\C,0,49.048,25.081,43.905\C,0,47.765,24.386,43.396\C,0,48.018,22
 .876,43.804\C,0,49.521,22.873,44.002\C,0,47.348,22.479,45.136\C,0,47.4
 78,24.703,41.912\C,0,48.561,24.949,40.94\C,0,48.267,25.263,39.468\O,0,

 Normal termination of Gaussian 16 at Wed May  4 04:36:31 2022.
