 Gaussian 16, Revision A.03,
 Gaussian 16:  ES64L-G16RevA.03 25-Dec-2016

 ------------------------------
 #p blyp/Def2SVP td=(nstates=5)
 ------------------------------

 --------------------------------------------------
 step_701_chromophore_23 TDDFT with blyp functional
 --------------------------------------------------
 Symbolic Z-matrix:
 Charge =  0 Multiplicity = 1

                         Standard orientation:
 ---------------------------------------------------------------------
 Center     Atomic      Atomic             Coordinates (Angstroms)
 Number     Number       Type             X           Y           Z
 ---------------------------------------------------------------------
      1         12           0        4.820155    0.258034   -0.301614
      2          6           0        2.682740   -2.652292   -0.181483
      3          6           0        2.696612    1.521405   -2.757504
      4          6           0        6.376078    3.091721    0.010156
      5          6           0        6.212930   -0.985960    2.782686
      6          7           0        2.895683   -0.495218   -1.363820
      7          6           0        2.255372   -1.700877   -1.183287
      8          6           0        1.052823   -1.919673   -2.157276
      9          6           0        1.247473   -0.700842   -3.084363
     10          6           0        2.386422    0.183654   -2.394815
     11          6           0        1.430332   -1.052125   -4.495812
     12          6           0       -0.307549   -1.968908   -1.417238
     13          6           0       -0.970636   -3.288484   -1.151457
     14          6           0       -2.390074   -3.511293   -1.613582
     15          8           0       -2.762348   -3.368081   -2.803210
     16          8           0       -3.214827   -3.997578   -0.622244
     17          7           0        4.650750    2.066858   -1.297518
     18          6           0        3.709496    2.437566   -2.308271
     19          6           0        3.960796    3.811399   -2.740824
     20          6           0        5.130279    4.227676   -2.011766
     21          6           0        5.396860    3.134673   -0.996640
     22          6           0        3.177626    4.449206   -3.799724
     23          6           0        5.850556    5.545132   -2.179420
     24          8           0        5.486864    6.405717   -2.947549
     25          6           0        7.000643    5.947533   -1.405626
     26          7           0        6.118742    0.897777    1.132863
     27          6           0        6.680362    2.139604    1.025328
     28          6           0        7.622403    2.556238    2.206722
     29          6           0        7.421803    1.264980    3.135814
     30          6           0        6.532807    0.323806    2.364016
     31          6           0        9.090486    2.794492    1.796838
     32          6           0        6.769706    1.466353    4.557636
     33          6           0        7.705031    1.382344    5.766083
     34          7           0        4.594883   -1.419850    0.973350
     35          6           0        5.249091   -1.787267    2.154466
     36          6           0        4.953000   -3.172647    2.420042
     37          6           0        3.892488   -3.507558    1.590874
     38          6           0        3.696599   -2.367324    0.740568
     39          6           0        5.561558   -3.982531    3.534373
     40          6           0        3.011827   -4.608067    1.267838
     41          8           0        2.792046   -5.707947    1.802670
     42          6           0        2.273085   -4.103892    0.065733
     43          6           0        2.567269   -4.936005   -1.140412
     44          8           0        3.464791   -4.843405   -1.985719
     45          8           0        1.537694   -5.824278   -1.298555
     46          6           0        1.730280   -7.048779   -2.179278
     47          6           0       -4.609761   -4.158121   -0.958402
     48          6           0       -5.558505   -3.271434   -0.164745
     49          6           0       -6.096233   -2.105906   -0.435764
     50          6           0       -5.744075   -1.345619   -1.743809
     51          6           0       -7.071434   -1.414102    0.478084
     52          6           0       -8.536482   -1.602028    0.083855
     53          6           0       -9.536537   -1.670730    1.167023
     54          6           0      -10.800133   -0.821334    0.728406
     55          6           0      -12.007712   -1.737392    0.998600
     56          6           0      -10.912270    0.491451    1.566575
     57          6           0       -9.853016    1.530197    1.236733
     58          6           0       -9.392876    2.410240    2.412078
     59          6           0       -7.890811    2.801909    2.326223
     60          6           0       -6.959293    1.956927    3.185877
     61          6           0       -7.789529    4.335112    2.729789
     62          6           0       -7.948808    5.216461    1.433869
     63          6           0       -6.686888    5.261441    0.549684
     64          6           0       -6.817303    4.624002   -0.853863
     65          6           0       -5.613036    3.657531   -1.178192
     66          6           0       -6.717507    5.826217   -1.886105
     67          1           0        2.086430    1.860314   -3.598328
     68          1           0        6.704498    4.103594    0.256238
     69          1           0        6.732959   -1.290828    3.692890
     70          1           0        1.292955   -2.784225   -2.777213
     71          1           0        0.342832   -0.101402   -3.185136
     72          1           0        1.483555   -0.253540   -5.236026
     73          1           0        0.568221   -1.615321   -4.853269
     74          1           0        2.321972   -1.670888   -4.601501
     75          1           0       -1.023851   -1.367352   -1.977547
     76          1           0       -0.211524   -1.408983   -0.487483
     77          1           0       -0.954005   -3.434175   -0.071341
     78          1           0       -0.267481   -4.017188   -1.554493
     79          1           0        3.895922    4.858767   -4.509797
     80          1           0        2.492957    5.184049   -3.375391
     81          1           0        2.529638    3.765306   -4.347830
     82          1           0        7.687056    5.100891   -1.394346
     83          1           0        6.650635    6.157341   -0.394769
     84          1           0        7.435345    6.845230   -1.845500
     85          1           0        7.411010    3.482310    2.741717
     86          1           0        8.375721    0.736325    3.121755
     87          1           0        9.383977    2.239347    0.906335
     88          1           0        9.819629    2.526218    2.561131
     89          1           0        9.270775    3.841714    1.555493
     90          1           0        5.928855    0.779173    4.656032
     91          1           0        6.471103    2.512280    4.491852
     92          1           0        8.623898    1.905456    5.501191
     93          1           0        7.898570    0.310464    5.801046
     94          1           0        7.281595    1.596928    6.747503
     95          1           0        5.405021   -5.030974    3.281815
     96          1           0        5.038035   -3.783785    4.469612
     97          1           0        6.619412   -3.780740    3.706897
     98          1           0        1.217814   -4.230162    0.305314
     99          1           0        0.796517   -7.510547   -2.498429
    100          1           0        2.150194   -7.776024   -1.485529
    101          1           0        2.394524   -6.893131   -3.029875
    102          1           0       -5.058596   -5.146972   -0.865764
    103          1           0       -4.862335   -3.849605   -1.972126
    104          1           0       -5.889316   -3.697301    0.782544
    105          1           0       -5.630817   -1.907530   -2.669886
    106          1           0       -4.764940   -0.923937   -1.516110
    107          1           0       -6.355160   -0.462735   -1.929672
    108          1           0       -6.767620   -0.374429    0.354542
    109          1           0       -6.816581   -1.792809    1.467806
    110          1           0       -8.499782   -2.499600   -0.533573
    111          1           0       -8.764760   -0.830528   -0.652124
    112          1           0       -9.234081   -1.159818    2.080475
    113          1           0       -9.732117   -2.732668    1.313707
    114          1           0      -10.885419   -0.478785   -0.302714
    115          1           0      -12.407228   -2.126938    0.061487
    116          1           0      -12.840597   -1.238905    1.493611
    117          1           0      -11.753594   -2.523173    1.710303
    118          1           0      -10.993587    0.207613    2.616167
    119          1           0      -11.894108    0.852709    1.260820
    120          1           0      -10.455760    2.155178    0.578705
    121          1           0       -8.993836    1.063957    0.754161
    122          1           0       -9.581204    1.714280    3.230072
    123          1           0      -10.139352    3.196340    2.531901
    124          1           0       -7.439005    2.719034    1.337799
    125          1           0       -6.848971    2.465333    4.142914
    126          1           0       -6.033506    1.965068    2.610003
    127          1           0       -7.298712    0.949047    3.424553
    128          1           0       -6.877458    4.673658    3.222749
    129          1           0       -8.642766    4.517049    3.383644
    130          1           0       -8.295926    6.226415    1.654921
    131          1           0       -8.790893    4.863926    0.838223
    132          1           0       -5.760623    4.868661    0.969347
    133          1           0       -6.362253    6.291986    0.405066
    134          1           0       -7.747864    4.060888   -0.927575
    135          1           0       -5.771433    2.668937   -0.748495
    136          1           0       -4.643618    4.011197   -0.825251
    137          1           0       -5.515818    3.572846   -2.260239
    138          1           0       -6.931767    6.838417   -1.545263
    139          1           0       -7.534541    5.628950   -2.579721
    140          1           0       -5.821015    5.810519   -2.505792
 ---------------------------------------------------------------------

 SCF Done:  E(RB-LYP) =  -3007.35419952     A.U. after   21 cycles

 Excitation energies and oscillator strengths:

 Excited State   1:      Singlet-A      1.6591 eV  747.30 nm  f=0.0051  <S**2>=0.000
     244 -> 247        0.54345
     245 -> 247        0.44083
 This state for optimization and/or second-order correction.
 Total Energy, E(TD-HF/TD-DFT) =  -3007.29322911
 Copying the excited state density for this state as the 1-particle RhoCI density.

 Excited State   2:      Singlet-A      1.7932 eV  691.40 nm  f=0.2854  <S**2>=0.000
     244 -> 247        0.10659
     244 -> 248       -0.12417
     245 -> 248        0.16784
     246 -> 247        0.67829
     246 <- 247       -0.14401

 Excited State   3:      Singlet-A      2.0301 eV  610.73 nm  f=0.0547  <S**2>=0.000
     243 -> 247       -0.20491
     244 -> 247       -0.37865
     245 -> 247        0.47209
     246 -> 248       -0.28388

 Excited State   4:      Singlet-A      2.1048 eV  589.04 nm  f=0.0059  <S**2>=0.000
     243 -> 247        0.67496
     244 -> 247       -0.10707
     245 -> 247        0.13333
     246 -> 248       -0.11223

 Excited State   5:      Singlet-A      2.4156 eV  513.26 nm  f=0.0000  <S**2>=0.000
     241 -> 247        0.41193
     242 -> 247        0.57341

 The electronic state is 1-A.
 Alpha  occ. eigenvalues --  -46.27746 -18.82753 -18.82062 -18.76849 -18.76640
 Alpha  occ. eigenvalues --  -18.76058 -18.74458 -14.03868 -14.03792 -14.01486
 Alpha  occ. eigenvalues --  -14.01197 -10.04553 -10.04411  -9.99805  -9.98685
 Alpha  occ. eigenvalues --   -9.98195  -9.97589  -9.97265  -9.97264  -9.97066
 Alpha  occ. eigenvalues --   -9.96895  -9.96346  -9.96278  -9.95655  -9.95162
 Alpha  occ. eigenvalues --   -9.94626  -9.94341  -9.94271  -9.94225  -9.94205
 Alpha  occ. eigenvalues --   -9.94138  -9.93644  -9.93572  -9.93335  -9.93305
 Alpha  occ. eigenvalues --   -9.93247  -9.93209  -9.93196  -9.93119  -9.92816
 Alpha  occ. eigenvalues --   -9.92633  -9.92573  -9.92534  -9.92424  -9.92282
 Alpha  occ. eigenvalues --   -9.92087  -9.91994  -9.91952  -9.91766  -9.91752
 Alpha  occ. eigenvalues --   -9.91692  -9.91382  -9.91276  -9.91229  -9.91219
 Alpha  occ. eigenvalues --   -9.91164  -9.91146  -9.91087  -9.90980  -9.90976
 Alpha  occ. eigenvalues --   -9.90903  -9.90736  -9.90714  -9.90568  -9.90539
 Alpha  occ. eigenvalues --   -9.90432  -2.92382  -1.72793  -1.72283  -1.72085
 Alpha  occ. eigenvalues --   -0.97529  -0.97025  -0.91889  -0.90700  -0.88748
 Alpha  occ. eigenvalues --   -0.88713  -0.86715  -0.85829  -0.85331  -0.84411
 Alpha  occ. eigenvalues --   -0.76210  -0.74176  -0.73537  -0.72975  -0.72766
 Alpha  occ. eigenvalues --   -0.72018  -0.71770  -0.70852  -0.70690  -0.70625
 Alpha  occ. eigenvalues --   -0.70061  -0.69400  -0.68446  -0.68048  -0.67657
 Alpha  occ. eigenvalues --   -0.66622  -0.66355  -0.65425  -0.65140  -0.64682
 Alpha  occ. eigenvalues --   -0.64263  -0.62804  -0.62512  -0.61884  -0.61268
 Alpha  occ. eigenvalues --   -0.60596  -0.60051  -0.59836  -0.59649  -0.58700
 Alpha  occ. eigenvalues --   -0.58593  -0.57720  -0.56828  -0.55593  -0.54599
 Alpha  occ. eigenvalues --   -0.54312  -0.53442  -0.52689  -0.52427  -0.51661
 Alpha  occ. eigenvalues --   -0.51596  -0.51240  -0.50746  -0.50321  -0.50031
 Alpha  occ. eigenvalues --   -0.49899  -0.49570  -0.48806  -0.48501  -0.46680
 Alpha  occ. eigenvalues --   -0.46207  -0.45846  -0.45668  -0.45476  -0.44971
 Alpha  occ. eigenvalues --   -0.44331  -0.44013  -0.43145  -0.43050  -0.42672
 Alpha  occ. eigenvalues --   -0.42526  -0.42037  -0.41547  -0.41416  -0.41146
 Alpha  occ. eigenvalues --   -0.40984  -0.40938  -0.40667  -0.40332  -0.39930
 Alpha  occ. eigenvalues --   -0.39877  -0.39731  -0.39536  -0.39246  -0.39079
 Alpha  occ. eigenvalues --   -0.38952  -0.38670  -0.38519  -0.38359  -0.38117
 Alpha  occ. eigenvalues --   -0.38071  -0.37929  -0.37876  -0.37537  -0.37356
 Alpha  occ. eigenvalues --   -0.37152  -0.36896  -0.36773  -0.36734  -0.36429
 Alpha  occ. eigenvalues --   -0.36098  -0.35968  -0.35931  -0.35768  -0.35557
 Alpha  occ. eigenvalues --   -0.35299  -0.35228  -0.35022  -0.34814  -0.34767
 Alpha  occ. eigenvalues --   -0.34529  -0.34467  -0.34340  -0.34275  -0.34080
 Alpha  occ. eigenvalues --   -0.33981  -0.33652  -0.33435  -0.33393  -0.33335
 Alpha  occ. eigenvalues --   -0.32957  -0.32851  -0.32738  -0.32623  -0.32455
 Alpha  occ. eigenvalues --   -0.32153  -0.31993  -0.31744  -0.31642  -0.31313
 Alpha  occ. eigenvalues --   -0.31189  -0.31011  -0.30669  -0.30654  -0.30557
 Alpha  occ. eigenvalues --   -0.30316  -0.30277  -0.29838  -0.29779  -0.29736
 Alpha  occ. eigenvalues --   -0.29617  -0.29421  -0.29351  -0.29115  -0.29028
 Alpha  occ. eigenvalues --   -0.28870  -0.28512  -0.28449  -0.28226  -0.28129
 Alpha  occ. eigenvalues --   -0.27610  -0.27364  -0.27150  -0.26793  -0.26698
 Alpha  occ. eigenvalues --   -0.26284  -0.25871  -0.25849  -0.25590  -0.25068
 Alpha  occ. eigenvalues --   -0.24785  -0.24666  -0.24271  -0.24084  -0.23894
 Alpha  occ. eigenvalues --   -0.23621  -0.22153  -0.21959  -0.21847  -0.20896
 Alpha  occ. eigenvalues --   -0.20544  -0.20508  -0.19224  -0.17696  -0.17604
 Alpha  occ. eigenvalues --   -0.15928
 Alpha virt. eigenvalues --   -0.11646  -0.07482  -0.06704  -0.04731  -0.03863
 Alpha virt. eigenvalues --   -0.03113  -0.02955  -0.01794  -0.01601   0.00096
 Alpha virt. eigenvalues --    0.00805   0.01196   0.01663   0.02481   0.02692

 Mulliken charges:
               1
     1  Mg   0.718470
     2  C   -0.030689
     3  C   -0.051032
     4  C   -0.042455
     5  C   -0.092748
     6  N   -0.165758
     7  C   -0.119446
     8  C    0.040496
     9  C    0.001598
    10  C    0.026468
    11  C    0.102014
    12  C    0.128509
    13  C    0.133796
    14  C    0.091606
    15  O   -0.225403
    16  O   -0.240204
    17  N   -0.314601
    18  C    0.125667
    19  C   -0.120238
    20  C    0.032821
    21  C    0.101539
    22  C    0.194240
    23  C   -0.129920
    24  O   -0.163310
    25  C    0.161107
    26  N   -0.277955
    27  C    0.049018
    28  C   -0.002025
    29  C    0.063777
    30  C   -0.015017
    31  C    0.097992
    32  C    0.089722
    33  C    0.074741
    34  N   -0.241447
    35  C    0.153960
    36  C   -0.202148
    37  C    0.055982
    38  C    0.130749
    39  C    0.166580
    40  C   -0.033040
    41  O   -0.146073
    42  C    0.083283
    43  C    0.121870
    44  O   -0.186359
    45  O   -0.288969
    46  C    0.208373
    47  C    0.376607
    48  C   -0.157773
    49  C   -0.175847
    50  C    0.115484
    51  C    0.160045
    52  C    0.073213
    53  C    0.172889
    54  C   -0.125767
    55  C    0.120298
    56  C    0.055624
    57  C    0.069290
    58  C    0.132167
    59  C   -0.088164
    60  C    0.115602
    61  C    0.103713
    62  C    0.078385
    63  C    0.128549
    64  C   -0.111521
    65  C    0.075644
    66  C    0.090953
    67  H   -0.062814
    68  H   -0.059684
    69  H   -0.052736
    70  H   -0.010926
    71  H   -0.033636
    72  H   -0.015013
    73  H   -0.003882
    74  H   -0.009519
    75  H   -0.019946
    76  H   -0.020717
    77  H   -0.003978
    78  H    0.017424
    79  H    0.017623
    80  H    0.009004
    81  H   -0.028971
    82  H   -0.001957
    83  H    0.018314
    84  H   -0.007304
    85  H   -0.014009
    86  H   -0.027882
    87  H   -0.011072
    88  H   -0.006511
    89  H   -0.006353
    90  H    0.000256
    91  H   -0.025646
    92  H   -0.002372
    93  H   -0.020961
    94  H    0.001434
    95  H    0.008586
    96  H    0.006362
    97  H   -0.008820
    98  H   -0.000053
    99  H    0.022623
   100  H    0.022082
   101  H    0.033640
   102  H   -0.010959
   103  H   -0.020375
   104  H   -0.058435
   105  H    0.015946
   106  H   -0.000501
   107  H   -0.019407
   108  H   -0.029164
   109  H   -0.027882
   110  H   -0.037652
   111  H   -0.028516
   112  H   -0.027369
   113  H   -0.014714
   114  H   -0.032551
   115  H   -0.014953
   116  H   -0.039172
   117  H   -0.020743
   118  H   -0.034326
   119  H   -0.037911
   120  H   -0.031573
   121  H   -0.016387
   122  H   -0.046377
   123  H   -0.028287
   124  H   -0.020944
   125  H   -0.019470
   126  H   -0.011754
   127  H   -0.014423
   128  H   -0.028393
   129  H   -0.036437
   130  H   -0.040832
   131  H   -0.042324
   132  H   -0.048693
   133  H   -0.044419
   134  H   -0.017212
   135  H   -0.013094
   136  H   -0.011258
   137  H   -0.016330
   138  H   -0.009553
   139  H   -0.028834
   140  H   -0.012235
 Sum of Mulliken charges =  -0.00000

 Dipole moment (field-independent basis, Debye):
    X=             -0.0873    Y=              0.8548    Z=              2.3580  Tot=              2.5097
 Quadrupole moment (field-independent basis, Debye-Ang):
   XX=           -364.7847   YY=           -434.1129   ZZ=           -405.3179
   XY=              1.3924   XZ=             24.2324   YZ=             23.1308

 Normal termination of Gaussian 16 at Sat Apr 30 11:35:15 2022.
