 Gaussian 16, Revision A.03,
 Gaussian 16:  ES64L-G16RevA.03 25-Dec-2016

 -----------------------------------
 #p cam-b3lyp/Def2SVP td=(nstates=5)
 -----------------------------------

 -------------------------------------------------------
 step_701_chromophore_23 TDDFT with cam-b3lyp functional
 -------------------------------------------------------
 Symbolic Z-matrix:
 Charge =  0 Multiplicity = 1

                         Standard orientation:
 ---------------------------------------------------------------------
 Center     Atomic      Atomic             Coordinates (Angstroms)
 Number     Number       Type             X           Y           Z
 ---------------------------------------------------------------------
      1         12           0        4.820155    0.258034   -0.301614
      2          6           0        2.682740   -2.652292   -0.181483
      3          6           0        2.696612    1.521405   -2.757504
      4          6           0        6.376078    3.091721    0.010156
      5          6           0        6.212930   -0.985960    2.782686
      6          7           0        2.895683   -0.495218   -1.363820
      7          6           0        2.255372   -1.700877   -1.183287
      8          6           0        1.052823   -1.919673   -2.157276
      9          6           0        1.247473   -0.700842   -3.084363
     10          6           0        2.386422    0.183654   -2.394815
     11          6           0        1.430332   -1.052125   -4.495812
     12          6           0       -0.307549   -1.968908   -1.417238
     13          6           0       -0.970636   -3.288484   -1.151457
     14          6           0       -2.390074   -3.511293   -1.613582
     15          8           0       -2.762348   -3.368081   -2.803210
     16          8           0       -3.214827   -3.997578   -0.622244
     17          7           0        4.650750    2.066858   -1.297518
     18          6           0        3.709496    2.437566   -2.308271
     19          6           0        3.960796    3.811399   -2.740824
     20          6           0        5.130279    4.227676   -2.011766
     21          6           0        5.396860    3.134673   -0.996640
     22          6           0        3.177626    4.449206   -3.799724
     23          6           0        5.850556    5.545132   -2.179420
     24          8           0        5.486864    6.405717   -2.947549
     25          6           0        7.000643    5.947533   -1.405626
     26          7           0        6.118742    0.897777    1.132863
     27          6           0        6.680362    2.139604    1.025328
     28          6           0        7.622403    2.556238    2.206722
     29          6           0        7.421803    1.264980    3.135814
     30          6           0        6.532807    0.323806    2.364016
     31          6           0        9.090486    2.794492    1.796838
     32          6           0        6.769706    1.466353    4.557636
     33          6           0        7.705031    1.382344    5.766083
     34          7           0        4.594883   -1.419850    0.973350
     35          6           0        5.249091   -1.787267    2.154466
     36          6           0        4.953000   -3.172647    2.420042
     37          6           0        3.892488   -3.507558    1.590874
     38          6           0        3.696599   -2.367324    0.740568
     39          6           0        5.561558   -3.982531    3.534373
     40          6           0        3.011827   -4.608067    1.267838
     41          8           0        2.792046   -5.707947    1.802670
     42          6           0        2.273085   -4.103892    0.065733
     43          6           0        2.567269   -4.936005   -1.140412
     44          8           0        3.464791   -4.843405   -1.985719
     45          8           0        1.537694   -5.824278   -1.298555
     46          6           0        1.730280   -7.048779   -2.179278
     47          6           0       -4.609761   -4.158121   -0.958402
     48          6           0       -5.558505   -3.271434   -0.164745
     49          6           0       -6.096233   -2.105906   -0.435764
     50          6           0       -5.744075   -1.345619   -1.743809
     51          6           0       -7.071434   -1.414102    0.478084
     52          6           0       -8.536482   -1.602028    0.083855
     53          6           0       -9.536537   -1.670730    1.167023
     54          6           0      -10.800133   -0.821334    0.728406
     55          6           0      -12.007712   -1.737392    0.998600
     56          6           0      -10.912270    0.491451    1.566575
     57          6           0       -9.853016    1.530197    1.236733
     58          6           0       -9.392876    2.410240    2.412078
     59          6           0       -7.890811    2.801909    2.326223
     60          6           0       -6.959293    1.956927    3.185877
     61          6           0       -7.789529    4.335112    2.729789
     62          6           0       -7.948808    5.216461    1.433869
     63          6           0       -6.686888    5.261441    0.549684
     64          6           0       -6.817303    4.624002   -0.853863
     65          6           0       -5.613036    3.657531   -1.178192
     66          6           0       -6.717507    5.826217   -1.886105
     67          1           0        2.086430    1.860314   -3.598328
     68          1           0        6.704498    4.103594    0.256238
     69          1           0        6.732959   -1.290828    3.692890
     70          1           0        1.292955   -2.784225   -2.777213
     71          1           0        0.342832   -0.101402   -3.185136
     72          1           0        1.483555   -0.253540   -5.236026
     73          1           0        0.568221   -1.615321   -4.853269
     74          1           0        2.321972   -1.670888   -4.601501
     75          1           0       -1.023851   -1.367352   -1.977547
     76          1           0       -0.211524   -1.408983   -0.487483
     77          1           0       -0.954005   -3.434175   -0.071341
     78          1           0       -0.267481   -4.017188   -1.554493
     79          1           0        3.895922    4.858767   -4.509797
     80          1           0        2.492957    5.184049   -3.375391
     81          1           0        2.529638    3.765306   -4.347830
     82          1           0        7.687056    5.100891   -1.394346
     83          1           0        6.650635    6.157341   -0.394769
     84          1           0        7.435345    6.845230   -1.845500
     85          1           0        7.411010    3.482310    2.741717
     86          1           0        8.375721    0.736325    3.121755
     87          1           0        9.383977    2.239347    0.906335
     88          1           0        9.819629    2.526218    2.561131
     89          1           0        9.270775    3.841714    1.555493
     90          1           0        5.928855    0.779173    4.656032
     91          1           0        6.471103    2.512280    4.491852
     92          1           0        8.623898    1.905456    5.501191
     93          1           0        7.898570    0.310464    5.801046
     94          1           0        7.281595    1.596928    6.747503
     95          1           0        5.405021   -5.030974    3.281815
     96          1           0        5.038035   -3.783785    4.469612
     97          1           0        6.619412   -3.780740    3.706897
     98          1           0        1.217814   -4.230162    0.305314
     99          1           0        0.796517   -7.510547   -2.498429
    100          1           0        2.150194   -7.776024   -1.485529
    101          1           0        2.394524   -6.893131   -3.029875
    102          1           0       -5.058596   -5.146972   -0.865764
    103          1           0       -4.862335   -3.849605   -1.972126
    104          1           0       -5.889316   -3.697301    0.782544
    105          1           0       -5.630817   -1.907530   -2.669886
    106          1           0       -4.764940   -0.923937   -1.516110
    107          1           0       -6.355160   -0.462735   -1.929672
    108          1           0       -6.767620   -0.374429    0.354542
    109          1           0       -6.816581   -1.792809    1.467806
    110          1           0       -8.499782   -2.499600   -0.533573
    111          1           0       -8.764760   -0.830528   -0.652124
    112          1           0       -9.234081   -1.159818    2.080475
    113          1           0       -9.732117   -2.732668    1.313707
    114          1           0      -10.885419   -0.478785   -0.302714
    115          1           0      -12.407228   -2.126938    0.061487
    116          1           0      -12.840597   -1.238905    1.493611
    117          1           0      -11.753594   -2.523173    1.710303
    118          1           0      -10.993587    0.207613    2.616167
    119          1           0      -11.894108    0.852709    1.260820
    120          1           0      -10.455760    2.155178    0.578705
    121          1           0       -8.993836    1.063957    0.754161
    122          1           0       -9.581204    1.714280    3.230072
    123          1           0      -10.139352    3.196340    2.531901
    124          1           0       -7.439005    2.719034    1.337799
    125          1           0       -6.848971    2.465333    4.142914
    126          1           0       -6.033506    1.965068    2.610003
    127          1           0       -7.298712    0.949047    3.424553
    128          1           0       -6.877458    4.673658    3.222749
    129          1           0       -8.642766    4.517049    3.383644
    130          1           0       -8.295926    6.226415    1.654921
    131          1           0       -8.790893    4.863926    0.838223
    132          1           0       -5.760623    4.868661    0.969347
    133          1           0       -6.362253    6.291986    0.405066
    134          1           0       -7.747864    4.060888   -0.927575
    135          1           0       -5.771433    2.668937   -0.748495
    136          1           0       -4.643618    4.011197   -0.825251
    137          1           0       -5.515818    3.572846   -2.260239
    138          1           0       -6.931767    6.838417   -1.545263
    139          1           0       -7.534541    5.628950   -2.579721
    140          1           0       -5.821015    5.810519   -2.505792
 ---------------------------------------------------------------------

 SCF Done:  E(RCAM-B3LYP) =  -3007.14447482     A.U. after   17 cycles

 Excitation energies and oscillator strengths:

 Excited State   1:      Singlet-A      1.6866 eV  735.12 nm  f=0.3654  <S**2>=0.000
     245 -> 248        0.19325
     246 -> 247        0.68262
     245 <- 248        0.11194
 This state for optimization and/or second-order correction.
 Total Energy, E(TD-HF/TD-DFT) =  -3007.08249425
 Copying the excited state density for this state as the 1-particle RhoCI density.

 Excited State   2:      Singlet-A      2.2625 eV  547.99 nm  f=0.0637  <S**2>=0.000
     245 -> 247        0.60764
     246 -> 248       -0.35281

 Excited State   3:      Singlet-A      3.3517 eV  369.91 nm  f=0.1247  <S**2>=0.000
     244 -> 247        0.56846
     244 -> 249        0.13787
     245 -> 247       -0.14385
     246 -> 248       -0.30678

 Excited State   4:      Singlet-A      3.4382 eV  360.60 nm  f=0.5912  <S**2>=0.000
     241 -> 247        0.14601
     243 -> 247       -0.14558
     244 -> 247        0.28631
     245 -> 247        0.29352
     246 -> 248        0.49918

 Excited State   5:      Singlet-A      3.5198 eV  352.24 nm  f=0.0302  <S**2>=0.000
     239 -> 247       -0.22114
     239 -> 249        0.16818
     241 -> 247        0.23338
     241 -> 249        0.12831
     241 -> 251       -0.11974
     243 -> 247        0.51748
     244 -> 251       -0.10616

 The electronic state is 1-A.
 Alpha  occ. eigenvalues --  -46.89320 -19.25655 -19.25029 -19.20008 -19.19626
 Alpha  occ. eigenvalues --  -19.19333 -19.17641 -14.42851 -14.42645 -14.40054
 Alpha  occ. eigenvalues --  -14.39613 -10.39982 -10.39972 -10.35214 -10.33753
 Alpha  occ. eigenvalues --  -10.32328 -10.32283 -10.31764 -10.31491 -10.31426
 Alpha  occ. eigenvalues --  -10.31335 -10.30993 -10.30762 -10.29820 -10.29214
 Alpha  occ. eigenvalues --  -10.29022 -10.28849 -10.28663 -10.28596 -10.28304
 Alpha  occ. eigenvalues --  -10.28252 -10.28039 -10.27636 -10.27601 -10.27589
 Alpha  occ. eigenvalues --  -10.27238 -10.27207 -10.27070 -10.26899 -10.26683
 Alpha  occ. eigenvalues --  -10.26582 -10.26557 -10.26285 -10.26008 -10.25941
 Alpha  occ. eigenvalues --  -10.25858 -10.25819 -10.25667 -10.25432 -10.25430
 Alpha  occ. eigenvalues --  -10.25350 -10.25115 -10.25034 -10.24976 -10.24967
 Alpha  occ. eigenvalues --  -10.24878 -10.24846 -10.24793 -10.24665 -10.24588
 Alpha  occ. eigenvalues --  -10.24549 -10.24394 -10.24312 -10.24283 -10.24195
 Alpha  occ. eigenvalues --  -10.24004  -3.17858  -1.92745  -1.92329  -1.92151
 Alpha  occ. eigenvalues --   -1.15939  -1.15596  -1.10339  -1.09138  -1.06641
 Alpha  occ. eigenvalues --   -1.06612  -1.04408  -1.03484  -1.02957  -1.01950
 Alpha  occ. eigenvalues --   -0.93444  -0.91066  -0.90383  -0.89768  -0.89444
 Alpha  occ. eigenvalues --   -0.88715  -0.88457  -0.87430  -0.87293  -0.87181
 Alpha  occ. eigenvalues --   -0.86554  -0.85979  -0.84709  -0.84223  -0.83932
 Alpha  occ. eigenvalues --   -0.82657  -0.82535  -0.81355  -0.80972  -0.80573
 Alpha  occ. eigenvalues --   -0.80052  -0.78353  -0.78163  -0.77655  -0.76737
 Alpha  occ. eigenvalues --   -0.75960  -0.75338  -0.75142  -0.74936  -0.73901
 Alpha  occ. eigenvalues --   -0.73637  -0.72753  -0.71728  -0.70412  -0.69124
 Alpha  occ. eigenvalues --   -0.68959  -0.67957  -0.67202  -0.66732  -0.65788
 Alpha  occ. eigenvalues --   -0.65663  -0.65434  -0.64881  -0.64232  -0.63959
 Alpha  occ. eigenvalues --   -0.63781  -0.63539  -0.62689  -0.62282  -0.60287
 Alpha  occ. eigenvalues --   -0.59773  -0.59396  -0.59277  -0.58964  -0.58483
 Alpha  occ. eigenvalues --   -0.57710  -0.57335  -0.56254  -0.56096  -0.55764
 Alpha  occ. eigenvalues --   -0.55677  -0.55261  -0.54577  -0.54300  -0.54150
 Alpha  occ. eigenvalues --   -0.53682  -0.53603  -0.53514  -0.53033  -0.52871
 Alpha  occ. eigenvalues --   -0.52716  -0.52530  -0.52380  -0.51983  -0.51637
 Alpha  occ. eigenvalues --   -0.51566  -0.51302  -0.50990  -0.50692  -0.50569
 Alpha  occ. eigenvalues --   -0.50348  -0.50274  -0.50158  -0.49794  -0.49712
 Alpha  occ. eigenvalues --   -0.49613  -0.49425  -0.49105  -0.49043  -0.48728
 Alpha  occ. eigenvalues --   -0.48608  -0.48373  -0.48056  -0.47877  -0.47554
 Alpha  occ. eigenvalues --   -0.47336  -0.47166  -0.46975  -0.46823  -0.46680
 Alpha  occ. eigenvalues --   -0.46561  -0.46345  -0.46247  -0.46105  -0.46021
 Alpha  occ. eigenvalues --   -0.45991  -0.45470  -0.45182  -0.45078  -0.45072
 Alpha  occ. eigenvalues --   -0.45012  -0.44677  -0.44535  -0.44150  -0.44078
 Alpha  occ. eigenvalues --   -0.43743  -0.43565  -0.43285  -0.43190  -0.43093
 Alpha  occ. eigenvalues --   -0.42819  -0.42579  -0.42072  -0.41950  -0.41943
 Alpha  occ. eigenvalues --   -0.41786  -0.41577  -0.41321  -0.41156  -0.41022
 Alpha  occ. eigenvalues --   -0.40899  -0.40774  -0.40545  -0.40274  -0.40242
 Alpha  occ. eigenvalues --   -0.39882  -0.39581  -0.39481  -0.39139  -0.39027
 Alpha  occ. eigenvalues --   -0.38451  -0.38190  -0.38161  -0.37909  -0.37439
 Alpha  occ. eigenvalues --   -0.37065  -0.36768  -0.36481  -0.36410  -0.36359
 Alpha  occ. eigenvalues --   -0.35927  -0.35128  -0.34964  -0.34652  -0.34441
 Alpha  occ. eigenvalues --   -0.34334  -0.33961  -0.33437  -0.31501  -0.31226
 Alpha  occ. eigenvalues --   -0.30516  -0.30394  -0.30165  -0.29603  -0.24451
 Alpha  occ. eigenvalues --   -0.21111
 Alpha virt. eigenvalues --   -0.08673  -0.02514  -0.00270   0.02058   0.02196
 Alpha virt. eigenvalues --    0.03908   0.04502   0.05374   0.05612   0.06732
 Alpha virt. eigenvalues --    0.06899   0.08047   0.08506   0.08894   0.09026

 Mulliken charges:
               1
     1  Mg   0.850209
     2  C   -0.052963
     3  C   -0.057795
     4  C   -0.068813
     5  C   -0.101654
     6  N   -0.231630
     7  C   -0.072196
     8  C   -0.014777
     9  C   -0.047370
    10  C    0.039059
    11  C    0.044705
    12  C    0.074986
    13  C    0.056928
    14  C    0.178133
    15  O   -0.267318
    16  O   -0.306317
    17  N   -0.400643
    18  C    0.129033
    19  C   -0.119995
    20  C   -0.041222
    21  C    0.138196
    22  C    0.135063
    23  C   -0.045582
    24  O   -0.203505
    25  C    0.070465
    26  N   -0.354702
    27  C    0.073831
    28  C   -0.052412
    29  C    0.001774
    30  C    0.008792
    31  C    0.043331
    32  C    0.031845
    33  C    0.017587
    34  N   -0.326255
    35  C    0.153894
    36  C   -0.191157
    37  C   -0.028445
    38  C    0.163536
    39  C    0.114229
    40  C    0.066306
    41  O   -0.184279
    42  C    0.001805
    43  C    0.210699
    44  O   -0.223682
    45  O   -0.354816
    46  C    0.172154
    47  C    0.337746
    48  C   -0.175004
    49  C   -0.194323
    50  C    0.053222
    51  C    0.104221
    52  C    0.016529
    53  C    0.112840
    54  C   -0.179796
    55  C    0.060789
    56  C    0.008202
    57  C    0.019847
    58  C    0.077839
    59  C   -0.139506
    60  C    0.063620
    61  C    0.048125
    62  C    0.024815
    63  C    0.068078
    64  C   -0.170047
    65  C    0.024730
    66  C    0.031236
    67  H   -0.028553
    68  H   -0.030023
    69  H   -0.018632
    70  H    0.024161
    71  H    0.001360
    72  H    0.010783
    73  H    0.022069
    74  H    0.014686
    75  H    0.012918
    76  H    0.012614
    77  H    0.031386
    78  H    0.047799
    79  H    0.045863
    80  H    0.037575
    81  H   -0.001117
    82  H    0.026188
    83  H    0.044364
    84  H    0.029833
    85  H    0.019901
    86  H    0.008135
    87  H    0.015078
    88  H    0.017915
    89  H    0.016752
    90  H    0.030216
    91  H    0.001468
    92  H    0.017566
    93  H   -0.000715
    94  H    0.026715
    95  H    0.034762
    96  H    0.032141
    97  H    0.015561
    98  H    0.044558
    99  H    0.045098
   100  H    0.044335
   101  H    0.058803
   102  H    0.017249
   103  H    0.014166
   104  H   -0.024909
   105  H    0.040604
   106  H    0.023103
   107  H    0.005405
   108  H   -0.004989
   109  H    0.002129
   110  H   -0.005677
   111  H   -0.002122
   112  H   -0.000711
   113  H    0.014464
   114  H   -0.001076
   115  H    0.010270
   116  H   -0.012753
   117  H    0.003338
   118  H   -0.007302
   119  H   -0.009016
   120  H   -0.003652
   121  H    0.004448
   122  H   -0.017245
   123  H    0.000439
   124  H    0.002713
   125  H    0.004691
   126  H    0.010101
   127  H    0.007412
   128  H    0.000559
   129  H   -0.006710
   130  H   -0.009810
   131  H   -0.015591
   132  H   -0.019159
   133  H   -0.012803
   134  H    0.011267
   135  H    0.006281
   136  H    0.011661
   137  H    0.007342
   138  H    0.014345
   139  H   -0.003940
   140  H    0.011719
 Sum of Mulliken charges =  -0.00000

 Dipole moment (field-independent basis, Debye):
    X=              0.0338    Y=              1.0718    Z=              2.1778  Tot=              2.4275
 Quadrupole moment (field-independent basis, Debye-Ang):
   XX=           -362.5541   YY=           -431.5279   ZZ=           -404.1044
   XY=              3.6270   XZ=             24.6641   YZ=             23.3942

 Normal termination of Gaussian 16 at Sat Apr 30 10:32:07 2022.
