 Gaussian 16, Revision A.03,
 Gaussian 16:  ES64L-G16RevA.03 25-Dec-2016

 ---------------------------------
 #p PBE1PBE/Def2SVP td=(nstates=5)
 ---------------------------------

 -----------------------------------------------------
 step_701_chromophore_23 TDDFT with PBE1PBE functional
 -----------------------------------------------------
 Symbolic Z-matrix:
 Charge =  0 Multiplicity = 1

                         Standard orientation:
 ---------------------------------------------------------------------
 Center     Atomic      Atomic             Coordinates (Angstroms)
 Number     Number       Type             X           Y           Z
 ---------------------------------------------------------------------
      1         12           0        4.820155    0.258034   -0.301614
      2          6           0        2.682740   -2.652292   -0.181483
      3          6           0        2.696612    1.521405   -2.757504
      4          6           0        6.376078    3.091721    0.010156
      5          6           0        6.212930   -0.985960    2.782686
      6          7           0        2.895683   -0.495218   -1.363820
      7          6           0        2.255372   -1.700877   -1.183287
      8          6           0        1.052823   -1.919673   -2.157276
      9          6           0        1.247473   -0.700842   -3.084363
     10          6           0        2.386422    0.183654   -2.394815
     11          6           0        1.430332   -1.052125   -4.495812
     12          6           0       -0.307549   -1.968908   -1.417238
     13          6           0       -0.970636   -3.288484   -1.151457
     14          6           0       -2.390074   -3.511293   -1.613582
     15          8           0       -2.762348   -3.368081   -2.803210
     16          8           0       -3.214827   -3.997578   -0.622244
     17          7           0        4.650750    2.066858   -1.297518
     18          6           0        3.709496    2.437566   -2.308271
     19          6           0        3.960796    3.811399   -2.740824
     20          6           0        5.130279    4.227676   -2.011766
     21          6           0        5.396860    3.134673   -0.996640
     22          6           0        3.177626    4.449206   -3.799724
     23          6           0        5.850556    5.545132   -2.179420
     24          8           0        5.486864    6.405717   -2.947549
     25          6           0        7.000643    5.947533   -1.405626
     26          7           0        6.118742    0.897777    1.132863
     27          6           0        6.680362    2.139604    1.025328
     28          6           0        7.622403    2.556238    2.206722
     29          6           0        7.421803    1.264980    3.135814
     30          6           0        6.532807    0.323806    2.364016
     31          6           0        9.090486    2.794492    1.796838
     32          6           0        6.769706    1.466353    4.557636
     33          6           0        7.705031    1.382344    5.766083
     34          7           0        4.594883   -1.419850    0.973350
     35          6           0        5.249091   -1.787267    2.154466
     36          6           0        4.953000   -3.172647    2.420042
     37          6           0        3.892488   -3.507558    1.590874
     38          6           0        3.696599   -2.367324    0.740568
     39          6           0        5.561558   -3.982531    3.534373
     40          6           0        3.011827   -4.608067    1.267838
     41          8           0        2.792046   -5.707947    1.802670
     42          6           0        2.273085   -4.103892    0.065733
     43          6           0        2.567269   -4.936005   -1.140412
     44          8           0        3.464791   -4.843405   -1.985719
     45          8           0        1.537694   -5.824278   -1.298555
     46          6           0        1.730280   -7.048779   -2.179278
     47          6           0       -4.609761   -4.158121   -0.958402
     48          6           0       -5.558505   -3.271434   -0.164745
     49          6           0       -6.096233   -2.105906   -0.435764
     50          6           0       -5.744075   -1.345619   -1.743809
     51          6           0       -7.071434   -1.414102    0.478084
     52          6           0       -8.536482   -1.602028    0.083855
     53          6           0       -9.536537   -1.670730    1.167023
     54          6           0      -10.800133   -0.821334    0.728406
     55          6           0      -12.007712   -1.737392    0.998600
     56          6           0      -10.912270    0.491451    1.566575
     57          6           0       -9.853016    1.530197    1.236733
     58          6           0       -9.392876    2.410240    2.412078
     59          6           0       -7.890811    2.801909    2.326223
     60          6           0       -6.959293    1.956927    3.185877
     61          6           0       -7.789529    4.335112    2.729789
     62          6           0       -7.948808    5.216461    1.433869
     63          6           0       -6.686888    5.261441    0.549684
     64          6           0       -6.817303    4.624002   -0.853863
     65          6           0       -5.613036    3.657531   -1.178192
     66          6           0       -6.717507    5.826217   -1.886105
     67          1           0        2.086430    1.860314   -3.598328
     68          1           0        6.704498    4.103594    0.256238
     69          1           0        6.732959   -1.290828    3.692890
     70          1           0        1.292955   -2.784225   -2.777213
     71          1           0        0.342832   -0.101402   -3.185136
     72          1           0        1.483555   -0.253540   -5.236026
     73          1           0        0.568221   -1.615321   -4.853269
     74          1           0        2.321972   -1.670888   -4.601501
     75          1           0       -1.023851   -1.367352   -1.977547
     76          1           0       -0.211524   -1.408983   -0.487483
     77          1           0       -0.954005   -3.434175   -0.071341
     78          1           0       -0.267481   -4.017188   -1.554493
     79          1           0        3.895922    4.858767   -4.509797
     80          1           0        2.492957    5.184049   -3.375391
     81          1           0        2.529638    3.765306   -4.347830
     82          1           0        7.687056    5.100891   -1.394346
     83          1           0        6.650635    6.157341   -0.394769
     84          1           0        7.435345    6.845230   -1.845500
     85          1           0        7.411010    3.482310    2.741717
     86          1           0        8.375721    0.736325    3.121755
     87          1           0        9.383977    2.239347    0.906335
     88          1           0        9.819629    2.526218    2.561131
     89          1           0        9.270775    3.841714    1.555493
     90          1           0        5.928855    0.779173    4.656032
     91          1           0        6.471103    2.512280    4.491852
     92          1           0        8.623898    1.905456    5.501191
     93          1           0        7.898570    0.310464    5.801046
     94          1           0        7.281595    1.596928    6.747503
     95          1           0        5.405021   -5.030974    3.281815
     96          1           0        5.038035   -3.783785    4.469612
     97          1           0        6.619412   -3.780740    3.706897
     98          1           0        1.217814   -4.230162    0.305314
     99          1           0        0.796517   -7.510547   -2.498429
    100          1           0        2.150194   -7.776024   -1.485529
    101          1           0        2.394524   -6.893131   -3.029875
    102          1           0       -5.058596   -5.146972   -0.865764
    103          1           0       -4.862335   -3.849605   -1.972126
    104          1           0       -5.889316   -3.697301    0.782544
    105          1           0       -5.630817   -1.907530   -2.669886
    106          1           0       -4.764940   -0.923937   -1.516110
    107          1           0       -6.355160   -0.462735   -1.929672
    108          1           0       -6.767620   -0.374429    0.354542
    109          1           0       -6.816581   -1.792809    1.467806
    110          1           0       -8.499782   -2.499600   -0.533573
    111          1           0       -8.764760   -0.830528   -0.652124
    112          1           0       -9.234081   -1.159818    2.080475
    113          1           0       -9.732117   -2.732668    1.313707
    114          1           0      -10.885419   -0.478785   -0.302714
    115          1           0      -12.407228   -2.126938    0.061487
    116          1           0      -12.840597   -1.238905    1.493611
    117          1           0      -11.753594   -2.523173    1.710303
    118          1           0      -10.993587    0.207613    2.616167
    119          1           0      -11.894108    0.852709    1.260820
    120          1           0      -10.455760    2.155178    0.578705
    121          1           0       -8.993836    1.063957    0.754161
    122          1           0       -9.581204    1.714280    3.230072
    123          1           0      -10.139352    3.196340    2.531901
    124          1           0       -7.439005    2.719034    1.337799
    125          1           0       -6.848971    2.465333    4.142914
    126          1           0       -6.033506    1.965068    2.610003
    127          1           0       -7.298712    0.949047    3.424553
    128          1           0       -6.877458    4.673658    3.222749
    129          1           0       -8.642766    4.517049    3.383644
    130          1           0       -8.295926    6.226415    1.654921
    131          1           0       -8.790893    4.863926    0.838223
    132          1           0       -5.760623    4.868661    0.969347
    133          1           0       -6.362253    6.291986    0.405066
    134          1           0       -7.747864    4.060888   -0.927575
    135          1           0       -5.771433    2.668937   -0.748495
    136          1           0       -4.643618    4.011197   -0.825251
    137          1           0       -5.515818    3.572846   -2.260239
    138          1           0       -6.931767    6.838417   -1.545263
    139          1           0       -7.534541    5.628950   -2.579721
    140          1           0       -5.821015    5.810519   -2.505792
 ---------------------------------------------------------------------

 SCF Done:  E(RPBE1PBE) =  -3005.33459363     A.U. after   15 cycles

 Excitation energies and oscillator strengths:

 Excited State   1:      Singlet-A      1.8425 eV  672.91 nm  f=0.3543  <S**2>=0.000
     245 -> 248        0.18706
     246 -> 247        0.68962
     246 <- 247       -0.10348
 This state for optimization and/or second-order correction.
 Total Energy, E(TD-HF/TD-DFT) =  -3005.26688296
 Copying the excited state density for this state as the 1-particle RhoCI density.

 Excited State   2:      Singlet-A      2.2611 eV  548.34 nm  f=0.0709  <S**2>=0.000
     245 -> 247        0.62446
     246 -> 248       -0.32226

 Excited State   3:      Singlet-A      2.8228 eV  439.22 nm  f=0.0004  <S**2>=0.000
     244 -> 247        0.67723
     244 -> 249        0.11382
     244 -> 250        0.10793

 Excited State   4:      Singlet-A      3.1006 eV  399.87 nm  f=0.0005  <S**2>=0.000
     240 -> 247        0.43782
     240 -> 249       -0.17319
     241 -> 247       -0.24550
     242 -> 247        0.17733
     243 -> 247       -0.41153

 Excited State   5:      Singlet-A      3.1488 eV  393.75 nm  f=0.0111  <S**2>=0.000
     240 -> 247        0.35239
     240 -> 249       -0.11276
     241 -> 247       -0.21335
     242 -> 247       -0.19686
     243 -> 247        0.48117
     246 -> 248        0.15627

 The electronic state is 1-A.
 Alpha  occ. eigenvalues --  -46.92727 -19.26337 -19.25669 -19.20198 -19.19931
 Alpha  occ. eigenvalues --  -19.19565 -19.17822 -14.42286 -14.42236 -14.39656
 Alpha  occ. eigenvalues --  -14.39284 -10.37014 -10.36949 -10.32324 -10.30830
 Alpha  occ. eigenvalues --  -10.29945 -10.29619 -10.29527 -10.29334 -10.29124
 Alpha  occ. eigenvalues --  -10.28724 -10.28535 -10.28437 -10.27623 -10.27045
 Alpha  occ. eigenvalues --  -10.26593 -10.26533 -10.26333 -10.26243 -10.26151
 Alpha  occ. eigenvalues --  -10.26112 -10.25550 -10.25406 -10.25341 -10.25299
 Alpha  occ. eigenvalues --  -10.24990 -10.24689 -10.24673 -10.24574 -10.24345
 Alpha  occ. eigenvalues --  -10.24339 -10.24040 -10.23979 -10.23508 -10.23460
 Alpha  occ. eigenvalues --  -10.23420 -10.23415 -10.23198 -10.22892 -10.22842
 Alpha  occ. eigenvalues --  -10.22829 -10.22811 -10.22552 -10.22544 -10.22415
 Alpha  occ. eigenvalues --  -10.22404 -10.22352 -10.22254 -10.22195 -10.22132
 Alpha  occ. eigenvalues --  -10.22107 -10.21939 -10.21751 -10.21734 -10.21639
 Alpha  occ. eigenvalues --  -10.21425  -3.14844  -1.87670  -1.87234  -1.87058
 Alpha  occ. eigenvalues --   -1.10751  -1.10309  -1.05055  -1.03850  -1.01453
 Alpha  occ. eigenvalues --   -1.01415  -0.99073  -0.98108  -0.97557  -0.96566
 Alpha  occ. eigenvalues --   -0.87795  -0.85190  -0.84604  -0.83873  -0.83759
 Alpha  occ. eigenvalues --   -0.82814  -0.82743  -0.81698  -0.81600  -0.81313
 Alpha  occ. eigenvalues --   -0.80848  -0.80226  -0.78890  -0.78524  -0.78169
 Alpha  occ. eigenvalues --   -0.76842  -0.76725  -0.75618  -0.75238  -0.74800
 Alpha  occ. eigenvalues --   -0.74280  -0.72691  -0.72434  -0.71893  -0.71044
 Alpha  occ. eigenvalues --   -0.70114  -0.69714  -0.69241  -0.69055  -0.68064
 Alpha  occ. eigenvalues --   -0.67977  -0.67194  -0.66182  -0.64713  -0.63499
 Alpha  occ. eigenvalues --   -0.63439  -0.62184  -0.61629  -0.60973  -0.60227
 Alpha  occ. eigenvalues --   -0.60084  -0.59666  -0.59362  -0.58813  -0.58323
 Alpha  occ. eigenvalues --   -0.58009  -0.57696  -0.56892  -0.56839  -0.54828
 Alpha  occ. eigenvalues --   -0.54381  -0.53865  -0.53791  -0.53418  -0.52905
 Alpha  occ. eigenvalues --   -0.52332  -0.51835  -0.50797  -0.50437  -0.50267
 Alpha  occ. eigenvalues --   -0.50130  -0.49827  -0.49086  -0.48846  -0.48660
 Alpha  occ. eigenvalues --   -0.48248  -0.48105  -0.48044  -0.47592  -0.47448
 Alpha  occ. eigenvalues --   -0.47189  -0.46947  -0.46813  -0.46575  -0.46204
 Alpha  occ. eigenvalues --   -0.46060  -0.45795  -0.45571  -0.45327  -0.45201
 Alpha  occ. eigenvalues --   -0.44873  -0.44754  -0.44681  -0.44337  -0.44272
 Alpha  occ. eigenvalues --   -0.44233  -0.44011  -0.43722  -0.43631  -0.43404
 Alpha  occ. eigenvalues --   -0.43239  -0.43082  -0.42724  -0.42447  -0.42195
 Alpha  occ. eigenvalues --   -0.41975  -0.41753  -0.41595  -0.41513  -0.41422
 Alpha  occ. eigenvalues --   -0.41216  -0.41067  -0.40931  -0.40784  -0.40734
 Alpha  occ. eigenvalues --   -0.40618  -0.40232  -0.39879  -0.39819  -0.39698
 Alpha  occ. eigenvalues --   -0.39620  -0.39430  -0.39260  -0.38846  -0.38787
 Alpha  occ. eigenvalues --   -0.38517  -0.38349  -0.38098  -0.37931  -0.37870
 Alpha  occ. eigenvalues --   -0.37573  -0.37432  -0.36903  -0.36806  -0.36675
 Alpha  occ. eigenvalues --   -0.36638  -0.36308  -0.36151  -0.36007  -0.35916
 Alpha  occ. eigenvalues --   -0.35696  -0.35577  -0.35281  -0.35192  -0.35018
 Alpha  occ. eigenvalues --   -0.34877  -0.34454  -0.34224  -0.33971  -0.33877
 Alpha  occ. eigenvalues --   -0.33217  -0.33052  -0.32992  -0.32921  -0.32257
 Alpha  occ. eigenvalues --   -0.32149  -0.31821  -0.31328  -0.31300  -0.31273
 Alpha  occ. eigenvalues --   -0.30800  -0.30039  -0.29941  -0.29792  -0.29237
 Alpha  occ. eigenvalues --   -0.29236  -0.28997  -0.28736  -0.26945  -0.26305
 Alpha  occ. eigenvalues --   -0.25913  -0.25659  -0.25615  -0.24608  -0.21355
 Alpha  occ. eigenvalues --   -0.18803
 Alpha virt. eigenvalues --   -0.11195  -0.05935  -0.04475  -0.02199  -0.00816
 Alpha virt. eigenvalues --   -0.00557  -0.00026   0.01024   0.01366   0.03058
 Alpha virt. eigenvalues --    0.03479   0.04014   0.04665   0.05303   0.05622

 Mulliken charges:
               1
     1  Mg   0.995494
     2  C   -0.052906
     3  C   -0.057466
     4  C   -0.066416
     5  C   -0.092642
     6  N   -0.339126
     7  C    0.007484
     8  C   -0.090452
     9  C   -0.122127
    10  C    0.083207
    11  C   -0.013439
    12  C    0.032215
    13  C   -0.028303
    14  C    0.248625
    15  O   -0.299523
    16  O   -0.338575
    17  N   -0.510097
    18  C    0.151355
    19  C   -0.148759
    20  C   -0.093841
    21  C    0.173473
    22  C    0.077586
    23  C    0.013296
    24  O   -0.239591
    25  C   -0.012243
    26  N   -0.456718
    27  C    0.106202
    28  C   -0.126995
    29  C   -0.068078
    30  C    0.042584
    31  C   -0.011553
    32  C   -0.033384
    33  C   -0.058384
    34  N   -0.449622
    35  C    0.164724
    36  C   -0.190928
    37  C   -0.077116
    38  C    0.208547
    39  C    0.059430
    40  C    0.153943
    41  O   -0.232390
    42  C   -0.111143
    43  C    0.300958
    44  O   -0.260607
    45  O   -0.386619
    46  C    0.117487
    47  C    0.287114
    48  C   -0.175181
    49  C   -0.239184
    50  C   -0.008488
    51  C    0.034158
    52  C   -0.045655
    53  C    0.055446
    54  C   -0.266346
    55  C    0.003936
    56  C   -0.046354
    57  C   -0.047414
    58  C    0.025674
    59  C   -0.232085
    60  C    0.006258
    61  C   -0.013281
    62  C   -0.038954
    63  C    0.020575
    64  C   -0.264447
    65  C   -0.037308
    66  C   -0.028854
    67  H    0.003319
    68  H    0.004879
    69  H    0.013359
    70  H    0.062601
    71  H    0.038278
    72  H    0.038433
    73  H    0.050668
    74  H    0.043106
    75  H    0.045421
    76  H    0.045283
    77  H    0.063805
    78  H    0.084899
    79  H    0.072071
    80  H    0.064751
    81  H    0.025960
    82  H    0.053856
    83  H    0.070813
    84  H    0.057889
    85  H    0.053827
    86  H    0.045762
    87  H    0.042954
    88  H    0.045058
    89  H    0.043967
    90  H    0.063389
    91  H    0.036723
    92  H    0.046176
    93  H    0.028751
    94  H    0.054697
    95  H    0.063048
    96  H    0.060644
    97  H    0.042119
    98  H    0.084323
    99  H    0.065819
   100  H    0.066195
   101  H    0.078874
   102  H    0.044832
   103  H    0.042994
   104  H    0.006000
   105  H    0.065777
   106  H    0.052662
   107  H    0.032626
   108  H    0.031108
   109  H    0.033595
   110  H    0.029501
   111  H    0.028442
   112  H    0.033659
   113  H    0.046145
   114  H    0.035530
   115  H    0.038510
   116  H    0.014614
   117  H    0.030559
   118  H    0.023822
   119  H    0.025008
   120  H    0.030492
   121  H    0.042629
   122  H    0.016759
   123  H    0.030839
   124  H    0.047788
   125  H    0.032318
   126  H    0.037319
   127  H    0.034834
   128  H    0.032468
   129  H    0.026951
   130  H    0.022839
   131  H    0.018308
   132  H    0.012806
   133  H    0.020148
   134  H    0.045676
   135  H    0.034766
   136  H    0.038865
   137  H    0.035642
   138  H    0.040929
   139  H    0.024867
   140  H    0.038483
 Sum of Mulliken charges =  -0.00000

 Dipole moment (field-independent basis, Debye):
    X=              0.0775    Y=              1.0547    Z=              2.3424  Tot=              2.5701
 Quadrupole moment (field-independent basis, Debye-Ang):
   XX=           -357.1292   YY=           -429.0545   ZZ=           -400.1654
   XY=              3.5813   XZ=             26.6053   YZ=             23.2218

 Normal termination of Gaussian 16 at Sat Apr 30 10:53:44 2022.
