 Gaussian 16, Revision A.03,
 Gaussian 16:  ES64L-G16RevA.03 25-Dec-2016

 --------------------------------
 #p wB97XD/Def2SVP td=(nstates=5)
 --------------------------------

 ----------------------------------------------------
 step_701_chromophore_23 TDDFT with wB97XD functional
 ----------------------------------------------------
 Symbolic Z-matrix:
 Charge =  0 Multiplicity = 1

                         Standard orientation:
 ---------------------------------------------------------------------
 Center     Atomic      Atomic             Coordinates (Angstroms)
 Number     Number       Type             X           Y           Z
 ---------------------------------------------------------------------
      1         12           0        4.820155    0.258034   -0.301614
      2          6           0        2.682740   -2.652292   -0.181483
      3          6           0        2.696612    1.521405   -2.757504
      4          6           0        6.376078    3.091721    0.010156
      5          6           0        6.212930   -0.985960    2.782686
      6          7           0        2.895683   -0.495218   -1.363820
      7          6           0        2.255372   -1.700877   -1.183287
      8          6           0        1.052823   -1.919673   -2.157276
      9          6           0        1.247473   -0.700842   -3.084363
     10          6           0        2.386422    0.183654   -2.394815
     11          6           0        1.430332   -1.052125   -4.495812
     12          6           0       -0.307549   -1.968908   -1.417238
     13          6           0       -0.970636   -3.288484   -1.151457
     14          6           0       -2.390074   -3.511293   -1.613582
     15          8           0       -2.762348   -3.368081   -2.803210
     16          8           0       -3.214827   -3.997578   -0.622244
     17          7           0        4.650750    2.066858   -1.297518
     18          6           0        3.709496    2.437566   -2.308271
     19          6           0        3.960796    3.811399   -2.740824
     20          6           0        5.130279    4.227676   -2.011766
     21          6           0        5.396860    3.134673   -0.996640
     22          6           0        3.177626    4.449206   -3.799724
     23          6           0        5.850556    5.545132   -2.179420
     24          8           0        5.486864    6.405717   -2.947549
     25          6           0        7.000643    5.947533   -1.405626
     26          7           0        6.118742    0.897777    1.132863
     27          6           0        6.680362    2.139604    1.025328
     28          6           0        7.622403    2.556238    2.206722
     29          6           0        7.421803    1.264980    3.135814
     30          6           0        6.532807    0.323806    2.364016
     31          6           0        9.090486    2.794492    1.796838
     32          6           0        6.769706    1.466353    4.557636
     33          6           0        7.705031    1.382344    5.766083
     34          7           0        4.594883   -1.419850    0.973350
     35          6           0        5.249091   -1.787267    2.154466
     36          6           0        4.953000   -3.172647    2.420042
     37          6           0        3.892488   -3.507558    1.590874
     38          6           0        3.696599   -2.367324    0.740568
     39          6           0        5.561558   -3.982531    3.534373
     40          6           0        3.011827   -4.608067    1.267838
     41          8           0        2.792046   -5.707947    1.802670
     42          6           0        2.273085   -4.103892    0.065733
     43          6           0        2.567269   -4.936005   -1.140412
     44          8           0        3.464791   -4.843405   -1.985719
     45          8           0        1.537694   -5.824278   -1.298555
     46          6           0        1.730280   -7.048779   -2.179278
     47          6           0       -4.609761   -4.158121   -0.958402
     48          6           0       -5.558505   -3.271434   -0.164745
     49          6           0       -6.096233   -2.105906   -0.435764
     50          6           0       -5.744075   -1.345619   -1.743809
     51          6           0       -7.071434   -1.414102    0.478084
     52          6           0       -8.536482   -1.602028    0.083855
     53          6           0       -9.536537   -1.670730    1.167023
     54          6           0      -10.800133   -0.821334    0.728406
     55          6           0      -12.007712   -1.737392    0.998600
     56          6           0      -10.912270    0.491451    1.566575
     57          6           0       -9.853016    1.530197    1.236733
     58          6           0       -9.392876    2.410240    2.412078
     59          6           0       -7.890811    2.801909    2.326223
     60          6           0       -6.959293    1.956927    3.185877
     61          6           0       -7.789529    4.335112    2.729789
     62          6           0       -7.948808    5.216461    1.433869
     63          6           0       -6.686888    5.261441    0.549684
     64          6           0       -6.817303    4.624002   -0.853863
     65          6           0       -5.613036    3.657531   -1.178192
     66          6           0       -6.717507    5.826217   -1.886105
     67          1           0        2.086430    1.860314   -3.598328
     68          1           0        6.704498    4.103594    0.256238
     69          1           0        6.732959   -1.290828    3.692890
     70          1           0        1.292955   -2.784225   -2.777213
     71          1           0        0.342832   -0.101402   -3.185136
     72          1           0        1.483555   -0.253540   -5.236026
     73          1           0        0.568221   -1.615321   -4.853269
     74          1           0        2.321972   -1.670888   -4.601501
     75          1           0       -1.023851   -1.367352   -1.977547
     76          1           0       -0.211524   -1.408983   -0.487483
     77          1           0       -0.954005   -3.434175   -0.071341
     78          1           0       -0.267481   -4.017188   -1.554493
     79          1           0        3.895922    4.858767   -4.509797
     80          1           0        2.492957    5.184049   -3.375391
     81          1           0        2.529638    3.765306   -4.347830
     82          1           0        7.687056    5.100891   -1.394346
     83          1           0        6.650635    6.157341   -0.394769
     84          1           0        7.435345    6.845230   -1.845500
     85          1           0        7.411010    3.482310    2.741717
     86          1           0        8.375721    0.736325    3.121755
     87          1           0        9.383977    2.239347    0.906335
     88          1           0        9.819629    2.526218    2.561131
     89          1           0        9.270775    3.841714    1.555493
     90          1           0        5.928855    0.779173    4.656032
     91          1           0        6.471103    2.512280    4.491852
     92          1           0        8.623898    1.905456    5.501191
     93          1           0        7.898570    0.310464    5.801046
     94          1           0        7.281595    1.596928    6.747503
     95          1           0        5.405021   -5.030974    3.281815
     96          1           0        5.038035   -3.783785    4.469612
     97          1           0        6.619412   -3.780740    3.706897
     98          1           0        1.217814   -4.230162    0.305314
     99          1           0        0.796517   -7.510547   -2.498429
    100          1           0        2.150194   -7.776024   -1.485529
    101          1           0        2.394524   -6.893131   -3.029875
    102          1           0       -5.058596   -5.146972   -0.865764
    103          1           0       -4.862335   -3.849605   -1.972126
    104          1           0       -5.889316   -3.697301    0.782544
    105          1           0       -5.630817   -1.907530   -2.669886
    106          1           0       -4.764940   -0.923937   -1.516110
    107          1           0       -6.355160   -0.462735   -1.929672
    108          1           0       -6.767620   -0.374429    0.354542
    109          1           0       -6.816581   -1.792809    1.467806
    110          1           0       -8.499782   -2.499600   -0.533573
    111          1           0       -8.764760   -0.830528   -0.652124
    112          1           0       -9.234081   -1.159818    2.080475
    113          1           0       -9.732117   -2.732668    1.313707
    114          1           0      -10.885419   -0.478785   -0.302714
    115          1           0      -12.407228   -2.126938    0.061487
    116          1           0      -12.840597   -1.238905    1.493611
    117          1           0      -11.753594   -2.523173    1.710303
    118          1           0      -10.993587    0.207613    2.616167
    119          1           0      -11.894108    0.852709    1.260820
    120          1           0      -10.455760    2.155178    0.578705
    121          1           0       -8.993836    1.063957    0.754161
    122          1           0       -9.581204    1.714280    3.230072
    123          1           0      -10.139352    3.196340    2.531901
    124          1           0       -7.439005    2.719034    1.337799
    125          1           0       -6.848971    2.465333    4.142914
    126          1           0       -6.033506    1.965068    2.610003
    127          1           0       -7.298712    0.949047    3.424553
    128          1           0       -6.877458    4.673658    3.222749
    129          1           0       -8.642766    4.517049    3.383644
    130          1           0       -8.295926    6.226415    1.654921
    131          1           0       -8.790893    4.863926    0.838223
    132          1           0       -5.760623    4.868661    0.969347
    133          1           0       -6.362253    6.291986    0.405066
    134          1           0       -7.747864    4.060888   -0.927575
    135          1           0       -5.771433    2.668937   -0.748495
    136          1           0       -4.643618    4.011197   -0.825251
    137          1           0       -5.515818    3.572846   -2.260239
    138          1           0       -6.931767    6.838417   -1.545263
    139          1           0       -7.534541    5.628950   -2.579721
    140          1           0       -5.821015    5.810519   -2.505792
 ---------------------------------------------------------------------

 SCF Done:  E(RwB97XD) =  -3007.84493256     A.U. after   17 cycles

 Excitation energies and oscillator strengths:

 Excited State   1:      Singlet-A      1.6273 eV  761.89 nm  f=0.3638  <S**2>=0.000
     245 -> 248        0.19881
     246 -> 247        0.68046
     245 <- 248        0.12161
 This state for optimization and/or second-order correction.
 Total Energy, E(TD-HF/TD-DFT) =  -3007.78512952
 Copying the excited state density for this state as the 1-particle RhoCI density.

 Excited State   2:      Singlet-A      2.2094 eV  561.17 nm  f=0.0618  <S**2>=0.000
     245 -> 247        0.60648
     246 -> 248       -0.35351

 Excited State   3:      Singlet-A      3.3676 eV  368.17 nm  f=0.1721  <S**2>=0.000
     241 -> 247       -0.10350
     244 -> 247        0.52573
     244 -> 249        0.16192
     244 -> 250        0.12839
     245 -> 247       -0.16335
     246 -> 248       -0.34535

 Excited State   4:      Singlet-A      3.4512 eV  359.25 nm  f=0.5267  <S**2>=0.000
     241 -> 247        0.13820
     243 -> 247       -0.18022
     244 -> 247        0.31644
     245 -> 247        0.27460
     246 -> 248        0.46690

 Excited State   5:      Singlet-A      3.5372 eV  350.51 nm  f=0.0387  <S**2>=0.000
     239 -> 247       -0.11910
     239 -> 249        0.10810
     240 -> 247       -0.17748
     240 -> 249        0.14535
     241 -> 247        0.16355
     241 -> 249        0.13568
     241 -> 250        0.11083
     242 -> 247       -0.10333
     243 -> 247        0.52903
     244 -> 249        0.10031
     244 -> 250        0.13994

 The electronic state is 1-A.
 Alpha  occ. eigenvalues --  -46.95661 -19.30916 -19.30258 -19.24956 -19.24610
 Alpha  occ. eigenvalues --  -19.24399 -19.22666 -14.47457 -14.47237 -14.44664
 Alpha  occ. eigenvalues --  -14.44211 -10.43832 -10.43825 -10.39233 -10.37698
 Alpha  occ. eigenvalues --  -10.36346 -10.36081 -10.35790 -10.35503 -10.35472
 Alpha  occ. eigenvalues --  -10.35224 -10.35052 -10.34856 -10.33824 -10.33267
 Alpha  occ. eigenvalues --  -10.33190 -10.32830 -10.32759 -10.32718 -10.32366
 Alpha  occ. eigenvalues --  -10.32292 -10.32153 -10.31736 -10.31715 -10.31621
 Alpha  occ. eigenvalues --  -10.31224 -10.31141 -10.31033 -10.30820 -10.30664
 Alpha  occ. eigenvalues --  -10.30634 -10.30424 -10.30242 -10.29810 -10.29796
 Alpha  occ. eigenvalues --  -10.29796 -10.29777 -10.29658 -10.29268 -10.29264
 Alpha  occ. eigenvalues --  -10.29262 -10.29065 -10.28985 -10.28900 -10.28899
 Alpha  occ. eigenvalues --  -10.28778 -10.28726 -10.28666 -10.28577 -10.28498
 Alpha  occ. eigenvalues --  -10.28479 -10.28299 -10.28136 -10.28101 -10.28079
 Alpha  occ. eigenvalues --  -10.27832  -3.21651  -1.95224  -1.94788  -1.94610
 Alpha  occ. eigenvalues --   -1.18150  -1.17759  -1.12560  -1.11371  -1.08835
 Alpha  occ. eigenvalues --   -1.08826  -1.06414  -1.05498  -1.04963  -1.03985
 Alpha  occ. eigenvalues --   -0.95442  -0.92845  -0.92230  -0.91536  -0.91316
 Alpha  occ. eigenvalues --   -0.90476  -0.90371  -0.89315  -0.89231  -0.88961
 Alpha  occ. eigenvalues --   -0.88460  -0.87931  -0.86544  -0.86120  -0.85836
 Alpha  occ. eigenvalues --   -0.84504  -0.84439  -0.83265  -0.82876  -0.82450
 Alpha  occ. eigenvalues --   -0.81927  -0.80273  -0.80061  -0.79627  -0.78669
 Alpha  occ. eigenvalues --   -0.77782  -0.77290  -0.76928  -0.76736  -0.75723
 Alpha  occ. eigenvalues --   -0.75567  -0.74736  -0.73711  -0.72326  -0.71046
 Alpha  occ. eigenvalues --   -0.70947  -0.69813  -0.69203  -0.68592  -0.67737
 Alpha  occ. eigenvalues --   -0.67577  -0.67288  -0.66877  -0.66239  -0.65806
 Alpha  occ. eigenvalues --   -0.65693  -0.65343  -0.64522  -0.64283  -0.62254
 Alpha  occ. eigenvalues --   -0.61774  -0.61326  -0.61276  -0.60891  -0.60432
 Alpha  occ. eigenvalues --   -0.59718  -0.59274  -0.58219  -0.57962  -0.57660
 Alpha  occ. eigenvalues --   -0.57599  -0.57237  -0.56499  -0.56233  -0.56065
 Alpha  occ. eigenvalues --   -0.55587  -0.55472  -0.55424  -0.54922  -0.54829
 Alpha  occ. eigenvalues --   -0.54608  -0.54480  -0.54314  -0.53900  -0.53595
 Alpha  occ. eigenvalues --   -0.53439  -0.53149  -0.52890  -0.52589  -0.52495
 Alpha  occ. eigenvalues --   -0.52275  -0.52176  -0.52018  -0.51681  -0.51612
 Alpha  occ. eigenvalues --   -0.51557  -0.51331  -0.51057  -0.50928  -0.50640
 Alpha  occ. eigenvalues --   -0.50538  -0.50280  -0.49949  -0.49741  -0.49448
 Alpha  occ. eigenvalues --   -0.49296  -0.49033  -0.48866  -0.48772  -0.48598
 Alpha  occ. eigenvalues --   -0.48503  -0.48268  -0.48130  -0.48012  -0.47949
 Alpha  occ. eigenvalues --   -0.47846  -0.47383  -0.47092  -0.46984  -0.46919
 Alpha  occ. eigenvalues --   -0.46887  -0.46599  -0.46454  -0.46016  -0.45959
 Alpha  occ. eigenvalues --   -0.45663  -0.45494  -0.45205  -0.45120  -0.45040
 Alpha  occ. eigenvalues --   -0.44716  -0.44503  -0.43985  -0.43871  -0.43796
 Alpha  occ. eigenvalues --   -0.43679  -0.43429  -0.43340  -0.43052  -0.42955
 Alpha  occ. eigenvalues --   -0.42757  -0.42649  -0.42389  -0.42147  -0.42121
 Alpha  occ. eigenvalues --   -0.41786  -0.41469  -0.41308  -0.40966  -0.40932
 Alpha  occ. eigenvalues --   -0.40271  -0.40098  -0.40001  -0.39887  -0.39278
 Alpha  occ. eigenvalues --   -0.39038  -0.38823  -0.38414  -0.38331  -0.38271
 Alpha  occ. eigenvalues --   -0.37815  -0.36950  -0.36859  -0.36628  -0.36368
 Alpha  occ. eigenvalues --   -0.36163  -0.35891  -0.35689  -0.33544  -0.33383
 Alpha  occ. eigenvalues --   -0.32599  -0.32398  -0.32280  -0.31683  -0.26376
 Alpha  occ. eigenvalues --   -0.22903
 Alpha virt. eigenvalues --   -0.07021  -0.00608   0.01795   0.04285   0.05317
 Alpha virt. eigenvalues --    0.06103   0.06734   0.07751   0.08069   0.09511
 Alpha virt. eigenvalues --    0.10125   0.10531   0.11509   0.12050   0.12269

 Mulliken charges:
               1
     1  Mg   0.986521
     2  C   -0.055354
     3  C   -0.066883
     4  C   -0.080148
     5  C   -0.114946
     6  N   -0.299811
     7  C   -0.028993
     8  C   -0.062863
     9  C   -0.094327
    10  C    0.061488
    11  C   -0.004754
    12  C    0.039001
    13  C   -0.006180
    14  C    0.237837
    15  O   -0.296253
    16  O   -0.338317
    17  N   -0.481014
    18  C    0.143767
    19  C   -0.136853
    20  C   -0.088417
    21  C    0.168011
    22  C    0.087452
    23  C    0.007829
    24  O   -0.234709
    25  C    0.003346
    26  N   -0.430044
    27  C    0.097463
    28  C   -0.103524
    29  C   -0.048365
    30  C    0.039112
    31  C   -0.003144
    32  C   -0.015683
    33  C   -0.038908
    34  N   -0.412309
    35  C    0.161100
    36  C   -0.194821
    37  C   -0.074154
    38  C    0.191521
    39  C    0.070313
    40  C    0.138541
    41  O   -0.220848
    42  C   -0.067492
    43  C    0.274534
    44  O   -0.253548
    45  O   -0.384735
    46  C    0.132892
    47  C    0.309912
    48  C   -0.194473
    49  C   -0.218964
    50  C    0.001663
    51  C    0.056945
    52  C   -0.027295
    53  C    0.070491
    54  C   -0.236953
    55  C    0.014718
    56  C   -0.028648
    57  C   -0.021660
    58  C    0.038699
    59  C   -0.191026
    60  C    0.017602
    61  C    0.003140
    62  C   -0.018097
    63  C    0.030087
    64  C   -0.235670
    65  C   -0.022659
    66  C   -0.016175
    67  H   -0.004059
    68  H   -0.009190
    69  H    0.007921
    70  H    0.050081
    71  H    0.028069
    72  H    0.033486
    73  H    0.044823
    74  H    0.036540
    75  H    0.036945
    76  H    0.038576
    77  H    0.058464
    78  H    0.070820
    79  H    0.068538
    80  H    0.061850
    81  H    0.021490
    82  H    0.046629
    83  H    0.066188
    84  H    0.057227
    85  H    0.045909
    86  H    0.033933
    87  H    0.037097
    88  H    0.039594
    89  H    0.038439
    90  H    0.054527
    91  H    0.026379
    92  H    0.038607
    93  H    0.019742
    94  H    0.050348
    95  H    0.058506
    96  H    0.055262
    97  H    0.036782
    98  H    0.073534
    99  H    0.062683
   100  H    0.062200
   101  H    0.075915
   102  H    0.041282
   103  H    0.033224
   104  H    0.002011
   105  H    0.062336
   106  H    0.045485
   107  H    0.027955
   108  H    0.018986
   109  H    0.025827
   110  H    0.019667
   111  H    0.018183
   112  H    0.020625
   113  H    0.038912
   114  H    0.024156
   115  H    0.033504
   116  H    0.008577
   117  H    0.023594
   118  H    0.013531
   119  H    0.015560
   120  H    0.021911
   121  H    0.020544
   122  H    0.004272
   123  H    0.023913
   124  H    0.021437
   125  H    0.026058
   126  H    0.031499
   127  H    0.028837
   128  H    0.024832
   129  H    0.017746
   130  H    0.016785
   131  H    0.005542
   132  H    0.002404
   133  H    0.011396
   134  H    0.034792
   135  H    0.029003
   136  H    0.032088
   137  H    0.028804
   138  H    0.035033
   139  H    0.018403
   140  H    0.032456
 Sum of Mulliken charges =  -0.00000

 Dipole moment (field-independent basis, Debye):
    X=              0.0590    Y=              1.1409    Z=              2.1400  Tot=              2.4259
 Quadrupole moment (field-independent basis, Debye-Ang):
   XX=           -357.7902   YY=           -427.3684   ZZ=           -400.1192
   XY=              4.4142   XZ=             25.2027   YZ=             23.0349

 Normal termination of Gaussian 16 at Sat Apr 30 11:22:01 2022.
