 Gaussian 16, Revision A.03,
 Gaussian 16:  ES64L-G16RevA.03 25-Dec-2016

 --------------------
 #p ZINDO=(nstates=5)
 --------------------

 -----------------------------
 step_701_chromophore_23 ZINDO
 -----------------------------
 Symbolic Z-matrix:
 Charge =  0 Multiplicity = 1

                         Standard orientation:
 ---------------------------------------------------------------------
 Center     Atomic      Atomic             Coordinates (Angstroms)
 Number     Number       Type             X           Y           Z
 ---------------------------------------------------------------------
      1         12           0        4.820155    0.258034   -0.301614
      2          6           0        2.682740   -2.652292   -0.181483
      3          6           0        2.696612    1.521405   -2.757504
      4          6           0        6.376078    3.091721    0.010156
      5          6           0        6.212930   -0.985960    2.782686
      6          7           0        2.895683   -0.495218   -1.363820
      7          6           0        2.255372   -1.700877   -1.183287
      8          6           0        1.052823   -1.919673   -2.157276
      9          6           0        1.247473   -0.700842   -3.084363
     10          6           0        2.386422    0.183654   -2.394815
     11          6           0        1.430332   -1.052125   -4.495812
     12          6           0       -0.307549   -1.968908   -1.417238
     13          6           0       -0.970636   -3.288484   -1.151457
     14          6           0       -2.390074   -3.511293   -1.613582
     15          8           0       -2.762348   -3.368081   -2.803210
     16          8           0       -3.214827   -3.997578   -0.622244
     17          7           0        4.650750    2.066858   -1.297518
     18          6           0        3.709496    2.437566   -2.308271
     19          6           0        3.960796    3.811399   -2.740824
     20          6           0        5.130279    4.227676   -2.011766
     21          6           0        5.396860    3.134673   -0.996640
     22          6           0        3.177626    4.449206   -3.799724
     23          6           0        5.850556    5.545132   -2.179420
     24          8           0        5.486864    6.405717   -2.947549
     25          6           0        7.000643    5.947533   -1.405626
     26          7           0        6.118742    0.897777    1.132863
     27          6           0        6.680362    2.139604    1.025328
     28          6           0        7.622403    2.556238    2.206722
     29          6           0        7.421803    1.264980    3.135814
     30          6           0        6.532807    0.323806    2.364016
     31          6           0        9.090486    2.794492    1.796838
     32          6           0        6.769706    1.466353    4.557636
     33          6           0        7.705031    1.382344    5.766083
     34          7           0        4.594883   -1.419850    0.973350
     35          6           0        5.249091   -1.787267    2.154466
     36          6           0        4.953000   -3.172647    2.420042
     37          6           0        3.892488   -3.507558    1.590874
     38          6           0        3.696599   -2.367324    0.740568
     39          6           0        5.561558   -3.982531    3.534373
     40          6           0        3.011827   -4.608067    1.267838
     41          8           0        2.792046   -5.707947    1.802670
     42          6           0        2.273085   -4.103892    0.065733
     43          6           0        2.567269   -4.936005   -1.140412
     44          8           0        3.464791   -4.843405   -1.985719
     45          8           0        1.537694   -5.824278   -1.298555
     46          6           0        1.730280   -7.048779   -2.179278
     47          6           0       -4.609761   -4.158121   -0.958402
     48          6           0       -5.558505   -3.271434   -0.164745
     49          6           0       -6.096233   -2.105906   -0.435764
     50          6           0       -5.744075   -1.345619   -1.743809
     51          6           0       -7.071434   -1.414102    0.478084
     52          6           0       -8.536482   -1.602028    0.083855
     53          6           0       -9.536537   -1.670730    1.167023
     54          6           0      -10.800133   -0.821334    0.728406
     55          6           0      -12.007712   -1.737392    0.998600
     56          6           0      -10.912270    0.491451    1.566575
     57          6           0       -9.853016    1.530197    1.236733
     58          6           0       -9.392876    2.410240    2.412078
     59          6           0       -7.890811    2.801909    2.326223
     60          6           0       -6.959293    1.956927    3.185877
     61          6           0       -7.789529    4.335112    2.729789
     62          6           0       -7.948808    5.216461    1.433869
     63          6           0       -6.686888    5.261441    0.549684
     64          6           0       -6.817303    4.624002   -0.853863
     65          6           0       -5.613036    3.657531   -1.178192
     66          6           0       -6.717507    5.826217   -1.886105
     67          1           0        2.086430    1.860314   -3.598328
     68          1           0        6.704498    4.103594    0.256238
     69          1           0        6.732959   -1.290828    3.692890
     70          1           0        1.292955   -2.784225   -2.777213
     71          1           0        0.342832   -0.101402   -3.185136
     72          1           0        1.483555   -0.253540   -5.236026
     73          1           0        0.568221   -1.615321   -4.853269
     74          1           0        2.321972   -1.670888   -4.601501
     75          1           0       -1.023851   -1.367352   -1.977547
     76          1           0       -0.211524   -1.408983   -0.487483
     77          1           0       -0.954005   -3.434175   -0.071341
     78          1           0       -0.267481   -4.017188   -1.554493
     79          1           0        3.895922    4.858767   -4.509797
     80          1           0        2.492957    5.184049   -3.375391
     81          1           0        2.529638    3.765306   -4.347830
     82          1           0        7.687056    5.100891   -1.394346
     83          1           0        6.650635    6.157341   -0.394769
     84          1           0        7.435345    6.845230   -1.845500
     85          1           0        7.411010    3.482310    2.741717
     86          1           0        8.375721    0.736325    3.121755
     87          1           0        9.383977    2.239347    0.906335
     88          1           0        9.819629    2.526218    2.561131
     89          1           0        9.270775    3.841714    1.555493
     90          1           0        5.928855    0.779173    4.656032
     91          1           0        6.471103    2.512280    4.491852
     92          1           0        8.623898    1.905456    5.501191
     93          1           0        7.898570    0.310464    5.801046
     94          1           0        7.281595    1.596928    6.747503
     95          1           0        5.405021   -5.030974    3.281815
     96          1           0        5.038035   -3.783785    4.469612
     97          1           0        6.619412   -3.780740    3.706897
     98          1           0        1.217814   -4.230162    0.305314
     99          1           0        0.796517   -7.510547   -2.498429
    100          1           0        2.150194   -7.776024   -1.485529
    101          1           0        2.394524   -6.893131   -3.029875
    102          1           0       -5.058596   -5.146972   -0.865764
    103          1           0       -4.862335   -3.849605   -1.972126
    104          1           0       -5.889316   -3.697301    0.782544
    105          1           0       -5.630817   -1.907530   -2.669886
    106          1           0       -4.764940   -0.923937   -1.516110
    107          1           0       -6.355160   -0.462735   -1.929672
    108          1           0       -6.767620   -0.374429    0.354542
    109          1           0       -6.816581   -1.792809    1.467806
    110          1           0       -8.499782   -2.499600   -0.533573
    111          1           0       -8.764760   -0.830528   -0.652124
    112          1           0       -9.234081   -1.159818    2.080475
    113          1           0       -9.732117   -2.732668    1.313707
    114          1           0      -10.885419   -0.478785   -0.302714
    115          1           0      -12.407228   -2.126938    0.061487
    116          1           0      -12.840597   -1.238905    1.493611
    117          1           0      -11.753594   -2.523173    1.710303
    118          1           0      -10.993587    0.207613    2.616167
    119          1           0      -11.894108    0.852709    1.260820
    120          1           0      -10.455760    2.155178    0.578705
    121          1           0       -8.993836    1.063957    0.754161
    122          1           0       -9.581204    1.714280    3.230072
    123          1           0      -10.139352    3.196340    2.531901
    124          1           0       -7.439005    2.719034    1.337799
    125          1           0       -6.848971    2.465333    4.142914
    126          1           0       -6.033506    1.965068    2.610003
    127          1           0       -7.298712    0.949047    3.424553
    128          1           0       -6.877458    4.673658    3.222749
    129          1           0       -8.642766    4.517049    3.383644
    130          1           0       -8.295926    6.226415    1.654921
    131          1           0       -8.790893    4.863926    0.838223
    132          1           0       -5.760623    4.868661    0.969347
    133          1           0       -6.362253    6.291986    0.405066
    134          1           0       -7.747864    4.060888   -0.927575
    135          1           0       -5.771433    2.668937   -0.748495
    136          1           0       -4.643618    4.011197   -0.825251
    137          1           0       -5.515818    3.572846   -2.260239
    138          1           0       -6.931767    6.838417   -1.545263
    139          1           0       -7.534541    5.628950   -2.579721
    140          1           0       -5.821015    5.810519   -2.505792
 ---------------------------------------------------------------------

 SCF Done:  E(RZINDO/S) =  -474.250073295     A.U. after   19 cycles

 Excitation energies and oscillator strengths:

 Excited State   1:      Singlet-A      1.2335 eV 1005.16 nm  f=0.5823  <S**2>=0.000
     175 ->178         0.19776
     176 ->177         0.66169
 This state for optimization and/or second-order correction.
 Total Energy, E(CIS/TDA) =  -474.204743904
 Copying the excited state density for this state as the 1-particle RhoCI density.

 Excited State   2:      Singlet-A      1.8996 eV  652.68 nm  f=0.0038  <S**2>=0.000
     175 ->177        -0.48696
     176 ->178         0.49271

 Excited State   3:      Singlet-A      2.8401 eV  436.56 nm  f=0.0334  <S**2>=0.000
     170 ->177         0.23193
     170 ->179         0.23037
     170 ->181        -0.26449
     170 ->183        -0.11028
     170 ->185        -0.20808
     170 ->194         0.10876
     171 ->177        -0.11996
     171 ->179        -0.10151
     176 ->179        -0.34923

 Excited State   4:      Singlet-A      2.8561 eV  434.10 nm  f=0.1535  <S**2>=0.000
     170 ->177         0.14358
     170 ->179         0.15843
     170 ->181        -0.16467
     170 ->185        -0.14047
     171 ->177        -0.10884
     175 ->177        -0.19193
     176 ->178        -0.22055
     176 ->179         0.47483

 Excited State   5:      Singlet-A      2.9907 eV  414.56 nm  f=0.7942  <S**2>=0.000
     168 ->177         0.17558
     168 ->179        -0.20492
     168 ->181        -0.10365
     175 ->177         0.35324
     176 ->178         0.35225
     176 ->179         0.23518
     176 ->181        -0.11717

 The electronic state is 1-A.
 Alpha  occ. eigenvalues --   -1.84237  -1.79030  -1.78264  -1.72384  -1.71277
 Alpha  occ. eigenvalues --   -1.69829  -1.66930  -1.62559  -1.61460  -1.58186
 Alpha  occ. eigenvalues --   -1.54919  -1.51595  -1.49879  -1.47827  -1.47218
 Alpha  occ. eigenvalues --   -1.43475  -1.42398  -1.40344  -1.39120  -1.38487
 Alpha  occ. eigenvalues --   -1.37348  -1.34124  -1.33309  -1.31114  -1.29422
 Alpha  occ. eigenvalues --   -1.29001  -1.27171  -1.22714  -1.21470  -1.17842
 Alpha  occ. eigenvalues --   -1.17636  -1.15890  -1.14732  -1.14435  -1.13912
 Alpha  occ. eigenvalues --   -1.13622  -1.10220  -1.09969  -1.05217  -1.03896
 Alpha  occ. eigenvalues --   -1.02742  -1.01070  -0.98199  -0.97599  -0.96006
 Alpha  occ. eigenvalues --   -0.95424  -0.94828  -0.94307  -0.93566  -0.93096
 Alpha  occ. eigenvalues --   -0.91441  -0.90522  -0.89746  -0.88446  -0.86819
 Alpha  occ. eigenvalues --   -0.86125  -0.84385  -0.83071  -0.82921  -0.80562
 Alpha  occ. eigenvalues --   -0.79952  -0.78763  -0.78639  -0.78064  -0.76873
 Alpha  occ. eigenvalues --   -0.76803  -0.76161  -0.74847  -0.74133  -0.73556
 Alpha  occ. eigenvalues --   -0.72935  -0.72295  -0.71683  -0.71577  -0.70495
 Alpha  occ. eigenvalues --   -0.70283  -0.70083  -0.69088  -0.68887  -0.68343
 Alpha  occ. eigenvalues --   -0.67742  -0.67307  -0.66593  -0.66177  -0.65895
 Alpha  occ. eigenvalues --   -0.65643  -0.64862  -0.64758  -0.63867  -0.63386
 Alpha  occ. eigenvalues --   -0.63232  -0.62975  -0.62929  -0.62182  -0.62016
 Alpha  occ. eigenvalues --   -0.61871  -0.61498  -0.61286  -0.60308  -0.60068
 Alpha  occ. eigenvalues --   -0.59924  -0.59859  -0.58603  -0.58442  -0.58171
 Alpha  occ. eigenvalues --   -0.57920  -0.57667  -0.57072  -0.56850  -0.56654
 Alpha  occ. eigenvalues --   -0.56057  -0.55847  -0.55498  -0.55029  -0.54651
 Alpha  occ. eigenvalues --   -0.54172  -0.53845  -0.53282  -0.53140  -0.53013
 Alpha  occ. eigenvalues --   -0.52598  -0.52254  -0.51895  -0.51636  -0.51141
 Alpha  occ. eigenvalues --   -0.50859  -0.50750  -0.50391  -0.50230  -0.49969
 Alpha  occ. eigenvalues --   -0.49936  -0.49529  -0.49296  -0.49073  -0.48605
 Alpha  occ. eigenvalues --   -0.48385  -0.48290  -0.48213  -0.47999  -0.47655
 Alpha  occ. eigenvalues --   -0.47635  -0.47368  -0.47144  -0.46867  -0.46619
 Alpha  occ. eigenvalues --   -0.46356  -0.46232  -0.46009  -0.45608  -0.45117
 Alpha  occ. eigenvalues --   -0.45087  -0.44853  -0.44629  -0.44180  -0.44124
 Alpha  occ. eigenvalues --   -0.43752  -0.43026  -0.42943  -0.42461  -0.41891
 Alpha  occ. eigenvalues --   -0.41819  -0.41592  -0.41193  -0.39073  -0.38885
 Alpha  occ. eigenvalues --   -0.38661  -0.37595  -0.35462  -0.35044  -0.34735
 Alpha  occ. eigenvalues --   -0.33202  -0.32822  -0.32702  -0.32475  -0.27118
 Alpha  occ. eigenvalues --   -0.21704
 Alpha virt. eigenvalues --   -0.08494  -0.02872  -0.00999   0.00937   0.01027
 Alpha virt. eigenvalues --    0.01282   0.02322   0.02550   0.04482   0.05633
 Alpha virt. eigenvalues --    0.05836   0.06738   0.06853   0.07484   0.07850

 Mulliken charges:
               1
     1  Mg   0.441246
     2  C   -0.042625
     3  C   -0.061109
     4  C   -0.114684
     5  C   -0.071454
     6  N   -0.257959
     7  C    0.100441
     8  C    0.007010
     9  C    0.011669
    10  C    0.130943
    11  C   -0.041369
    12  C   -0.013363
    13  C    0.011004
    14  C    0.474274
    15  O   -0.531490
    16  O   -0.247503
    17  N   -0.324864
    18  C    0.089169
    19  C    0.063991
    20  C   -0.066796
    21  C    0.154229
    22  C   -0.027493
    23  C    0.331707
    24  O   -0.533047
    25  C   -0.020461
    26  N   -0.278978
    27  C    0.158445
    28  C    0.001321
    29  C   -0.002889
    30  C    0.104806
    31  C   -0.049270
    32  C   -0.028197
    33  C   -0.061092
    34  N   -0.315280
    35  C    0.084454
    36  C    0.027515
    37  C   -0.060989
    38  C    0.112469
    39  C   -0.040814
    40  C    0.339176
    41  O   -0.535362
    42  C    0.071635
    43  C    0.494498
    44  O   -0.528541
    45  O   -0.284179
    46  C    0.072191
    47  C    0.099643
    48  C   -0.098225
    49  C    0.007890
    50  C   -0.053244
    51  C   -0.022080
    52  C   -0.024582
    53  C   -0.025457
    54  C   -0.023607
    55  C   -0.064120
    56  C   -0.037553
    57  C   -0.043136
    58  C   -0.036635
    59  C   -0.008293
    60  C   -0.057873
    61  C   -0.039420
    62  C   -0.036397
    63  C   -0.035467
    64  C   -0.012262
    65  C   -0.057999
    66  C   -0.063873
    67  H    0.025374
    68  H    0.016577
    69  H    0.031875
    70  H    0.045760
    71  H    0.022927
    72  H    0.016936
    73  H    0.016428
    74  H    0.019093
    75  H    0.024183
    76  H    0.021845
    77  H    0.026087
    78  H    0.054662
    79  H    0.044674
    80  H    0.042464
    81  H    0.020010
    82  H    0.028449
    83  H    0.041419
    84  H    0.042207
    85  H    0.039418
    86  H    0.034047
    87  H    0.020339
    88  H    0.020583
    89  H    0.015489
    90  H    0.034822
    91  H    0.014596
    92  H    0.025574
    93  H    0.010660
    94  H    0.030578
    95  H    0.032462
    96  H    0.031202
    97  H    0.024812
    98  H    0.055492
    99  H    0.039542
   100  H    0.038447
   101  H    0.056934
   102  H    0.043907
   103  H    0.049126
   104  H    0.012150
   105  H    0.037639
   106  H    0.022534
   107  H    0.016452
   108  H    0.021647
   109  H    0.024209
   110  H    0.016526
   111  H    0.016980
   112  H    0.026765
   113  H    0.029152
   114  H    0.029006
   115  H    0.017424
   116  H    0.009303
   117  H    0.018215
   118  H    0.020068
   119  H    0.009518
   120  H    0.017469
   121  H    0.027655
   122  H    0.016486
   123  H    0.026743
   124  H    0.026122
   125  H    0.017039
   126  H    0.019346
   127  H    0.021076
   128  H    0.024160
   129  H    0.016459
   130  H    0.012763
   131  H    0.015009
   132  H    0.016365
   133  H    0.012971
   134  H    0.032070
   135  H    0.013340
   136  H    0.020718
   137  H    0.014926
   138  H    0.025584
   139  H    0.002658
   140  H    0.024760
 Sum of Mulliken charges =  -0.00000

 Dipole moment (field-independent basis, Debye):
    X=              0.1378    Y=              3.0753    Z=              3.4964  Tot=              4.6584
 N-N= 4.443133472697D+03 E-N= 0.000000000000D+00  KE=-9.560131460503D+03
 Leave Link  601 at Sat Apr 30 11:35:21 2022, MaxMem=  6710886400 cpu:               0.8 elap:               0.0
 (Enter /sw/apps/gaussian-16.0/g16/l9999.exe)
 1\1\GINC-BP1-COMPUTE103\SP\RZINDO CIS\STO-3G\C55H74Mg1N4O6\OF15641\30-
 Apr-2022\0\\#p ZINDO=(nstates=5)\\step_701_chromophore_23 ZINDO\\0,1\M
 g,0,-11.007,40.418,42.528\C,0,-9.157,37.505,41.458\C,0,-8.701,42.338,4
 0.758\C,0,-12.981,42.956,42.986\C,0,-13.588,38.084,43.472\N,0,-9.12,39
 .965,41.25\C,0,-8.551,38.736,41.001\C,0,-7.214,38.82,40.196\C,0,-7.002
 ,40.349,40.208\C,0,-8.349,40.963,40.811\C,0,-5.738,40.768,40.821\C,0,-
 7.33,38.186,38.787\C,0,-6.778,36.814,38.533\C,0,-5.792,36.608,37.409\O

 Normal termination of Gaussian 16 at Sat Apr 30 11:35:21 2022.
