 Gaussian 16, Revision A.03,
 Gaussian 16:  ES64L-G16RevA.03 25-Dec-2016

 ------------------------------
 #p blyp/Def2SVP td=(nstates=5)
 ------------------------------

 --------------------------------------------------
 step_601_chromophore_17 TDDFT with blyp functional
 --------------------------------------------------
 Symbolic Z-matrix:
 Charge =  0 Multiplicity = 1

                         Standard orientation:
 ---------------------------------------------------------------------
 Center     Atomic      Atomic             Coordinates (Angstroms)
 Number     Number       Type             X           Y           Z
 ---------------------------------------------------------------------
      1         12           0        4.130942    1.018137   -0.775989
      2          6           0        3.123631   -2.456504   -1.071093
      3          6           0        1.327874    1.824889   -2.650633
      4          6           0        4.318319    4.207114    0.393478
      5          6           0        6.305613   -0.042113    1.715134
      6          7           0        2.371037   -0.257999   -1.675280
      7          6           0        2.279005   -1.617877   -1.839864
      8          6           0        0.945733   -1.938343   -2.619419
      9          6           0        0.721951   -0.612100   -3.425136
     10          6           0        1.491995    0.373889   -2.509709
     11          6           0        1.330141   -0.620858   -4.862707
     12          6           0       -0.253545   -2.238595   -1.625928
     13          6           0       -1.024794   -3.593720   -1.805962
     14          6           0       -2.599506   -3.648430   -1.897346
     15          8           0       -3.312811   -3.143254   -2.778072
     16          8           0       -3.029776   -4.297967   -0.758459
     17          7           0        3.119375    2.748015   -1.094640
     18          6           0        2.054507    2.888677   -2.029670
     19          6           0        1.636411    4.355774   -2.077734
     20          6           0        2.564989    4.997955   -1.290787
     21          6           0        3.426383    4.018087   -0.645736
     22          6           0        0.445198    4.924159   -2.886356
     23          6           0        2.535831    6.489420   -1.065879
     24          8           0        1.724247    7.220188   -1.640745
     25          6           0        3.574391    7.216635   -0.208065
     26          7           0        5.191677    1.886118    0.853121
     27          6           0        5.030192    3.232448    1.181642
     28          6           0        5.895477    3.505126    2.483668
     29          6           0        6.825188    2.234514    2.656061
     30          6           0        6.067309    1.253392    1.757555
     31          6           0        6.612796    4.786214    2.616037
     32          6           0        7.080324    1.748320    4.099832
     33          6           0        8.522224    1.779214    4.578936
     34          7           0        4.707558   -0.805084    0.090182
     35          6           0        5.586682   -1.081681    1.060510
     36          6           0        5.785543   -2.498494    1.198063
     37          6           0        4.801509   -3.112338    0.439938
     38          6           0        4.147071   -2.041516   -0.241245
     39          6           0        6.826378   -3.043486    2.065280
     40          6           0        4.260231   -4.386674    0.051412
     41          8           0        4.708764   -5.525936    0.262938
     42          6           0        3.084132   -4.008554   -0.972134
     43          6           0        3.286200   -4.702556   -2.308582
     44          8           0        4.328763   -4.783626   -2.949160
     45          8           0        2.041349   -5.163192   -2.765656
     46          6           0        2.081945   -5.913438   -4.052102
     47          6           0       -4.508759   -4.095824   -0.554459
     48          6           0       -4.818549   -4.033837    0.912593
     49          6           0       -5.919763   -4.463970    1.511678
     50          6           0       -7.349859   -4.642274    0.955920
     51          6           0       -5.835007   -4.557141    3.052757
     52          6           0       -5.842423   -3.200419    3.841959
     53          6           0       -4.410704   -2.821738    4.105054
     54          6           0       -4.296711   -1.280294    4.188970
     55          6           0       -3.028498   -0.904433    4.941091
     56          6           0       -4.305202   -0.675434    2.702289
     57          6           0       -5.332129    0.411405    2.363191
     58          6           0       -6.289011    0.018351    1.240838
     59          6           0       -7.591972    0.954766    1.131939
     60          6           0       -8.826430    0.088744    1.018515
     61          6           0       -7.428331    2.078840    0.069562
     62          6           0       -8.136465    3.468306    0.262099
     63          6           0       -8.786560    3.873102   -1.042205
     64          6           0       -9.362188    5.326857   -1.062060
     65          6           0      -10.782679    5.520508   -0.493495
     66          6           0       -9.300054    5.950427   -2.468854
     67          1           0        0.676769    2.268021   -3.407408
     68          1           0        4.420062    5.196562    0.845458
     69          1           0        7.037790   -0.514408    2.374145
     70          1           0        0.970285   -2.735445   -3.362971
     71          1           0       -0.291277   -0.229502   -3.550215
     72          1           0        1.920662   -1.528399   -4.985101
     73          1           0        2.035039    0.207845   -4.932679
     74          1           0        0.540633   -0.540723   -5.609634
     75          1           0       -0.964630   -1.412235   -1.612639
     76          1           0        0.188701   -2.270942   -0.630502
     77          1           0       -0.756159   -4.277955   -1.000171
     78          1           0       -0.704838   -4.184802   -2.664429
     79          1           0       -0.218357    5.450155   -2.199647
     80          1           0       -0.040659    4.072638   -3.362723
     81          1           0        0.796046    5.553759   -3.703558
     82          1           0        3.479540    7.018984    0.859665
     83          1           0        3.407433    8.259241   -0.477500
     84          1           0        4.590826    6.998574   -0.535617
     85          1           0        5.207215    3.492577    3.329296
     86          1           0        7.786116    2.514195    2.224577
     87          1           0        7.424515    4.666048    3.333927
     88          1           0        5.875374    5.563060    2.817224
     89          1           0        7.041584    5.062779    1.652765
     90          1           0        6.596692    0.788911    4.283896
     91          1           0        6.574688    2.535001    4.659300
     92          1           0        8.851218    0.843480    5.030785
     93          1           0        8.493494    2.397318    5.476035
     94          1           0        9.290725    2.098916    3.874835
     95          1           0        7.751566   -2.726972    1.584713
     96          1           0        6.803740   -4.133209    2.029282
     97          1           0        6.888691   -2.602560    3.060831
     98          1           0        2.160557   -4.418803   -0.562918
     99          1           0        2.537531   -6.849491   -3.728997
    100          1           0        2.670727   -5.434384   -4.834474
    101          1           0        1.093922   -6.226154   -4.388636
    102          1           0       -4.967341   -5.068067   -0.734574
    103          1           0       -4.979630   -3.248215   -1.051582
    104          1           0       -3.986209   -4.103358    1.612908
    105          1           0       -8.131794   -4.324514    1.645746
    106          1           0       -7.458465   -5.694500    0.695128
    107          1           0       -7.348051   -4.172520   -0.028165
    108          1           0       -4.918148   -5.096376    3.291233
    109          1           0       -6.638461   -5.108922    3.539311
    110          1           0       -6.439642   -3.299238    4.748601
    111          1           0       -6.412159   -2.459644    3.280463
    112          1           0       -3.677222   -3.109445    3.352061
    113          1           0       -4.113524   -3.362491    5.003944
    114          1           0       -5.154425   -0.865396    4.718048
    115          1           0       -2.883412    0.174201    4.995433
    116          1           0       -2.175604   -1.386308    4.465359
    117          1           0       -3.081959   -1.371162    5.924268
    118          1           0       -4.548209   -1.481100    2.009771
    119          1           0       -3.367664   -0.233990    2.362651
    120          1           0       -4.841991    1.317386    2.005431
    121          1           0       -5.892853    0.704741    3.250041
    122          1           0       -6.650167   -1.008259    1.301044
    123          1           0       -5.684376    0.164626    0.345767
    124          1           0       -7.621142    1.500057    2.075771
    125          1           0       -9.079378   -0.203669   -0.001258
    126          1           0       -9.692542    0.592644    1.447299
    127          1           0       -8.644750   -0.708943    1.738735
    128          1           0       -7.724205    1.541561   -0.831651
    129          1           0       -6.371054    2.318912   -0.042039
    130          1           0       -7.537554    4.241360    0.744119
    131          1           0       -8.944419    3.460193    0.993045
    132          1           0       -9.699589    3.303596   -1.217182
    133          1           0       -8.097877    3.629045   -1.851311
    134          1           0       -8.719755    5.945017   -0.434154
    135          1           0      -11.563152    5.500038   -1.253612
    136          1           0      -10.804455    6.497438   -0.010396
    137          1           0      -11.077358    4.837963    0.304525
    138          1           0      -10.233276    6.468265   -2.692484
    139          1           0       -9.171406    5.140306   -3.186223
    140          1           0       -8.462347    6.635049   -2.604618
 ---------------------------------------------------------------------

 SCF Done:  E(RB-LYP) =  -3007.37436247     A.U. after   19 cycles

 Excitation energies and oscillator strengths:

 Excited State   1:      Singlet-A      1.7925 eV  691.70 nm  f=0.2896  <S**2>=0.000
     245 -> 248       -0.19674
     246 -> 247        0.68938
     246 <- 247       -0.14361
 This state for optimization and/or second-order correction.
 Total Energy, E(TD-HF/TD-DFT) =  -3007.30849081
 Copying the excited state density for this state as the 1-particle RhoCI density.

 Excited State   2:      Singlet-A      2.0341 eV  609.53 nm  f=0.0044  <S**2>=0.000
     243 -> 247        0.46705
     244 -> 247        0.47073
     245 -> 247       -0.22232

 Excited State   3:      Singlet-A      2.0407 eV  607.56 nm  f=0.0007  <S**2>=0.000
     243 -> 247        0.50208
     244 -> 247       -0.49639

 Excited State   4:      Singlet-A      2.0846 eV  594.75 nm  f=0.0377  <S**2>=0.000
     243 -> 247        0.16988
     244 -> 247        0.17180
     245 -> 247        0.57731
     246 -> 248        0.31569

 Excited State   5:      Singlet-A      2.3357 eV  530.82 nm  f=0.0001  <S**2>=0.000
     242 -> 247        0.70705

 The electronic state is 1-A.
 Alpha  occ. eigenvalues --  -46.28068 -18.83000 -18.82390 -18.77246 -18.77172
 Alpha  occ. eigenvalues --  -18.75992 -18.75853 -14.03913 -14.03133 -14.02007
 Alpha  occ. eigenvalues --  -14.01275 -10.04551 -10.04352 -10.00129  -9.99860
 Alpha  occ. eigenvalues --   -9.98092  -9.98023  -9.97677  -9.97370  -9.97086
 Alpha  occ. eigenvalues --   -9.96813  -9.96681  -9.95857  -9.94845  -9.94725
 Alpha  occ. eigenvalues --   -9.94677  -9.94644  -9.94623  -9.94491  -9.94107
 Alpha  occ. eigenvalues --   -9.94062  -9.94043  -9.93993  -9.93701  -9.93380
 Alpha  occ. eigenvalues --   -9.93224  -9.93010  -9.92932  -9.92820  -9.92797
 Alpha  occ. eigenvalues --   -9.92779  -9.92718  -9.92585  -9.92467  -9.92220
 Alpha  occ. eigenvalues --   -9.92073  -9.92012  -9.91788  -9.91772  -9.91525
 Alpha  occ. eigenvalues --   -9.91511  -9.91441  -9.91355  -9.91221  -9.91154
 Alpha  occ. eigenvalues --   -9.90994  -9.90966  -9.90900  -9.90703  -9.90687
 Alpha  occ. eigenvalues --   -9.90674  -9.90545  -9.90542  -9.90516  -9.90442
 Alpha  occ. eigenvalues --   -9.90284  -2.92684  -1.73058  -1.72584  -1.72404
 Alpha  occ. eigenvalues --   -0.97111  -0.96739  -0.91396  -0.90335  -0.89429
 Alpha  occ. eigenvalues --   -0.89363  -0.86501  -0.85563  -0.84821  -0.83761
 Alpha  occ. eigenvalues --   -0.75479  -0.73871  -0.73022  -0.72467  -0.71936
 Alpha  occ. eigenvalues --   -0.71878  -0.71673  -0.70881  -0.70695  -0.70450
 Alpha  occ. eigenvalues --   -0.70009  -0.68913  -0.68263  -0.67978  -0.67119
 Alpha  occ. eigenvalues --   -0.66466  -0.66000  -0.65286  -0.64972  -0.64706
 Alpha  occ. eigenvalues --   -0.64434  -0.62519  -0.62423  -0.61988  -0.61058
 Alpha  occ. eigenvalues --   -0.60300  -0.59708  -0.59673  -0.59386  -0.58369
 Alpha  occ. eigenvalues --   -0.57773  -0.57302  -0.56941  -0.55493  -0.54927
 Alpha  occ. eigenvalues --   -0.54332  -0.53049  -0.52763  -0.52021  -0.51628
 Alpha  occ. eigenvalues --   -0.51318  -0.51037  -0.50554  -0.50210  -0.49479
 Alpha  occ. eigenvalues --   -0.49443  -0.49072  -0.48548  -0.47964  -0.46646
 Alpha  occ. eigenvalues --   -0.46086  -0.45591  -0.45372  -0.45252  -0.44443
 Alpha  occ. eigenvalues --   -0.43752  -0.43480  -0.43249  -0.42546  -0.42220
 Alpha  occ. eigenvalues --   -0.41979  -0.41654  -0.41383  -0.41029  -0.40888
 Alpha  occ. eigenvalues --   -0.40865  -0.40638  -0.40336  -0.40169  -0.40045
 Alpha  occ. eigenvalues --   -0.39825  -0.39775  -0.39373  -0.39311  -0.39072
 Alpha  occ. eigenvalues --   -0.38886  -0.38799  -0.38678  -0.38588  -0.38250
 Alpha  occ. eigenvalues --   -0.38142  -0.37902  -0.37426  -0.37295  -0.37211
 Alpha  occ. eigenvalues --   -0.37085  -0.36931  -0.36803  -0.36612  -0.36308
 Alpha  occ. eigenvalues --   -0.36256  -0.36056  -0.35695  -0.35556  -0.35441
 Alpha  occ. eigenvalues --   -0.35321  -0.35215  -0.35025  -0.34940  -0.34848
 Alpha  occ. eigenvalues --   -0.34588  -0.34422  -0.34147  -0.33979  -0.33808
 Alpha  occ. eigenvalues --   -0.33652  -0.33287  -0.33244  -0.33187  -0.32879
 Alpha  occ. eigenvalues --   -0.32728  -0.32683  -0.32601  -0.32332  -0.32174
 Alpha  occ. eigenvalues --   -0.32075  -0.31880  -0.31728  -0.31629  -0.31306
 Alpha  occ. eigenvalues --   -0.31142  -0.31089  -0.30888  -0.30775  -0.30723
 Alpha  occ. eigenvalues --   -0.30678  -0.30526  -0.30434  -0.30254  -0.30193
 Alpha  occ. eigenvalues --   -0.29899  -0.29811  -0.29498  -0.29438  -0.29228
 Alpha  occ. eigenvalues --   -0.29162  -0.28484  -0.27997  -0.27994  -0.27672
 Alpha  occ. eigenvalues --   -0.27501  -0.27169  -0.26949  -0.26739  -0.26484
 Alpha  occ. eigenvalues --   -0.26122  -0.25896  -0.25690  -0.25465  -0.25322
 Alpha  occ. eigenvalues --   -0.25070  -0.25055  -0.24300  -0.24290  -0.23574
 Alpha  occ. eigenvalues --   -0.23439  -0.22857  -0.21989  -0.21937  -0.21473
 Alpha  occ. eigenvalues --   -0.20689  -0.20129  -0.18964  -0.18940  -0.17818
 Alpha  occ. eigenvalues --   -0.15862
 Alpha virt. eigenvalues --   -0.11546  -0.07557  -0.06741  -0.05174  -0.04388
 Alpha virt. eigenvalues --   -0.03512  -0.03226  -0.02240  -0.02012  -0.00037
 Alpha virt. eigenvalues --    0.01067   0.01510   0.01995   0.02272   0.02933

 Mulliken charges:
               1
     1  Mg   0.726510
     2  C   -0.007268
     3  C   -0.034470
     4  C   -0.083762
     5  C   -0.073391
     6  N   -0.181040
     7  C   -0.087372
     8  C    0.038360
     9  C   -0.045296
    10  C    0.024984
    11  C    0.136607
    12  C    0.160260
    13  C    0.108335
    14  C    0.079721
    15  O   -0.204575
    16  O   -0.273488
    17  N   -0.348088
    18  C    0.088737
    19  C   -0.169543
    20  C    0.080217
    21  C    0.178635
    22  C    0.211859
    23  C   -0.102470
    24  O   -0.175683
    25  C    0.126016
    26  N   -0.270205
    27  C    0.034221
    28  C    0.006541
    29  C    0.008061
    30  C    0.085074
    31  C    0.148201
    32  C    0.102146
    33  C    0.070204
    34  N   -0.234808
    35  C    0.050266
    36  C   -0.180280
    37  C    0.089134
    38  C    0.120506
    39  C    0.195886
    40  C   -0.024182
    41  O   -0.142916
    42  C    0.043301
    43  C    0.118257
    44  O   -0.173253
    45  O   -0.305456
    46  C    0.219636
    47  C    0.318228
    48  C   -0.084029
    49  C   -0.195916
    50  C    0.164441
    51  C    0.106241
    52  C    0.094080
    53  C    0.075063
    54  C   -0.044134
    55  C    0.129029
    56  C    0.110602
    57  C    0.042222
    58  C    0.055678
    59  C   -0.074888
    60  C    0.130055
    61  C    0.105616
    62  C    0.092039
    63  C    0.076745
    64  C   -0.082401
    65  C    0.091612
    66  C    0.110473
    67  H   -0.045747
    68  H   -0.091349
    69  H   -0.078991
    70  H   -0.027286
    71  H   -0.021890
    72  H   -0.008565
    73  H   -0.011433
    74  H    0.005427
    75  H   -0.007680
    76  H   -0.012668
    77  H   -0.013089
    78  H   -0.004391
    79  H    0.022091
    80  H   -0.034568
    81  H    0.013975
    82  H    0.027526
    83  H   -0.009491
    84  H    0.004034
    85  H   -0.023713
    86  H   -0.024294
    87  H   -0.002691
    88  H   -0.002316
    89  H   -0.018761
    90  H   -0.008446
    91  H   -0.029378
    92  H   -0.017960
    93  H   -0.017682
    94  H    0.002427
    95  H   -0.010884
    96  H    0.005274
    97  H    0.003648
    98  H   -0.002799
    99  H    0.012916
   100  H    0.028975
   101  H    0.016038
   102  H    0.003909
   103  H    0.033668
   104  H   -0.026054
   105  H    0.013071
   106  H   -0.005810
   107  H   -0.016130
   108  H   -0.025866
   109  H   -0.052901
   110  H   -0.034576
   111  H   -0.030815
   112  H   -0.024015
   113  H   -0.038143
   114  H   -0.039731
   115  H   -0.013674
   116  H   -0.028239
   117  H   -0.027152
   118  H   -0.026017
   119  H   -0.039209
   120  H   -0.038482
   121  H   -0.036412
   122  H   -0.021093
   123  H   -0.036261
   124  H   -0.048591
   125  H   -0.007607
   126  H   -0.027530
   127  H   -0.018838
   128  H   -0.034087
   129  H   -0.031448
   130  H   -0.035841
   131  H   -0.046720
   132  H   -0.032511
   133  H   -0.022916
   134  H   -0.042258
   135  H   -0.012075
   136  H   -0.017642
   137  H   -0.022955
   138  H   -0.024700
   139  H   -0.022271
   140  H   -0.013228
 Sum of Mulliken charges =  -0.00000

 Dipole moment (field-independent basis, Debye):
    X=              0.1490    Y=              1.5131    Z=              2.0794  Tot=              2.5760
 Quadrupole moment (field-independent basis, Debye-Ang):
   XX=           -384.9312   YY=           -438.0202   ZZ=           -390.0900
   XY=             43.8881   XZ=              5.6478   YZ=             13.3517

 Normal termination of Gaussian 16 at Sat Apr 30 05:53:24 2022.
