 Gaussian 16, Revision A.03,
 Gaussian 16:  ES64L-G16RevA.03 25-Dec-2016

 -----------------------------------
 #p cam-b3lyp/Def2SVP td=(nstates=5)
 -----------------------------------

 -------------------------------------------------------
 step_601_chromophore_17 TDDFT with cam-b3lyp functional
 -------------------------------------------------------
 Symbolic Z-matrix:
 Charge =  0 Multiplicity = 1

                         Standard orientation:
 ---------------------------------------------------------------------
 Center     Atomic      Atomic             Coordinates (Angstroms)
 Number     Number       Type             X           Y           Z
 ---------------------------------------------------------------------
      1         12           0        4.130942    1.018137   -0.775989
      2          6           0        3.123631   -2.456504   -1.071093
      3          6           0        1.327874    1.824889   -2.650633
      4          6           0        4.318319    4.207114    0.393478
      5          6           0        6.305613   -0.042113    1.715134
      6          7           0        2.371037   -0.257999   -1.675280
      7          6           0        2.279005   -1.617877   -1.839864
      8          6           0        0.945733   -1.938343   -2.619419
      9          6           0        0.721951   -0.612100   -3.425136
     10          6           0        1.491995    0.373889   -2.509709
     11          6           0        1.330141   -0.620858   -4.862707
     12          6           0       -0.253545   -2.238595   -1.625928
     13          6           0       -1.024794   -3.593720   -1.805962
     14          6           0       -2.599506   -3.648430   -1.897346
     15          8           0       -3.312811   -3.143254   -2.778072
     16          8           0       -3.029776   -4.297967   -0.758459
     17          7           0        3.119375    2.748015   -1.094640
     18          6           0        2.054507    2.888677   -2.029670
     19          6           0        1.636411    4.355774   -2.077734
     20          6           0        2.564989    4.997955   -1.290787
     21          6           0        3.426383    4.018087   -0.645736
     22          6           0        0.445198    4.924159   -2.886356
     23          6           0        2.535831    6.489420   -1.065879
     24          8           0        1.724247    7.220188   -1.640745
     25          6           0        3.574391    7.216635   -0.208065
     26          7           0        5.191677    1.886118    0.853121
     27          6           0        5.030192    3.232448    1.181642
     28          6           0        5.895477    3.505126    2.483668
     29          6           0        6.825188    2.234514    2.656061
     30          6           0        6.067309    1.253392    1.757555
     31          6           0        6.612796    4.786214    2.616037
     32          6           0        7.080324    1.748320    4.099832
     33          6           0        8.522224    1.779214    4.578936
     34          7           0        4.707558   -0.805084    0.090182
     35          6           0        5.586682   -1.081681    1.060510
     36          6           0        5.785543   -2.498494    1.198063
     37          6           0        4.801509   -3.112338    0.439938
     38          6           0        4.147071   -2.041516   -0.241245
     39          6           0        6.826378   -3.043486    2.065280
     40          6           0        4.260231   -4.386674    0.051412
     41          8           0        4.708764   -5.525936    0.262938
     42          6           0        3.084132   -4.008554   -0.972134
     43          6           0        3.286200   -4.702556   -2.308582
     44          8           0        4.328763   -4.783626   -2.949160
     45          8           0        2.041349   -5.163192   -2.765656
     46          6           0        2.081945   -5.913438   -4.052102
     47          6           0       -4.508759   -4.095824   -0.554459
     48          6           0       -4.818549   -4.033837    0.912593
     49          6           0       -5.919763   -4.463970    1.511678
     50          6           0       -7.349859   -4.642274    0.955920
     51          6           0       -5.835007   -4.557141    3.052757
     52          6           0       -5.842423   -3.200419    3.841959
     53          6           0       -4.410704   -2.821738    4.105054
     54          6           0       -4.296711   -1.280294    4.188970
     55          6           0       -3.028498   -0.904433    4.941091
     56          6           0       -4.305202   -0.675434    2.702289
     57          6           0       -5.332129    0.411405    2.363191
     58          6           0       -6.289011    0.018351    1.240838
     59          6           0       -7.591972    0.954766    1.131939
     60          6           0       -8.826430    0.088744    1.018515
     61          6           0       -7.428331    2.078840    0.069562
     62          6           0       -8.136465    3.468306    0.262099
     63          6           0       -8.786560    3.873102   -1.042205
     64          6           0       -9.362188    5.326857   -1.062060
     65          6           0      -10.782679    5.520508   -0.493495
     66          6           0       -9.300054    5.950427   -2.468854
     67          1           0        0.676769    2.268021   -3.407408
     68          1           0        4.420062    5.196562    0.845458
     69          1           0        7.037790   -0.514408    2.374145
     70          1           0        0.970285   -2.735445   -3.362971
     71          1           0       -0.291277   -0.229502   -3.550215
     72          1           0        1.920662   -1.528399   -4.985101
     73          1           0        2.035039    0.207845   -4.932679
     74          1           0        0.540633   -0.540723   -5.609634
     75          1           0       -0.964630   -1.412235   -1.612639
     76          1           0        0.188701   -2.270942   -0.630502
     77          1           0       -0.756159   -4.277955   -1.000171
     78          1           0       -0.704838   -4.184802   -2.664429
     79          1           0       -0.218357    5.450155   -2.199647
     80          1           0       -0.040659    4.072638   -3.362723
     81          1           0        0.796046    5.553759   -3.703558
     82          1           0        3.479540    7.018984    0.859665
     83          1           0        3.407433    8.259241   -0.477500
     84          1           0        4.590826    6.998574   -0.535617
     85          1           0        5.207215    3.492577    3.329296
     86          1           0        7.786116    2.514195    2.224577
     87          1           0        7.424515    4.666048    3.333927
     88          1           0        5.875374    5.563060    2.817224
     89          1           0        7.041584    5.062779    1.652765
     90          1           0        6.596692    0.788911    4.283896
     91          1           0        6.574688    2.535001    4.659300
     92          1           0        8.851218    0.843480    5.030785
     93          1           0        8.493494    2.397318    5.476035
     94          1           0        9.290725    2.098916    3.874835
     95          1           0        7.751566   -2.726972    1.584713
     96          1           0        6.803740   -4.133209    2.029282
     97          1           0        6.888691   -2.602560    3.060831
     98          1           0        2.160557   -4.418803   -0.562918
     99          1           0        2.537531   -6.849491   -3.728997
    100          1           0        2.670727   -5.434384   -4.834474
    101          1           0        1.093922   -6.226154   -4.388636
    102          1           0       -4.967341   -5.068067   -0.734574
    103          1           0       -4.979630   -3.248215   -1.051582
    104          1           0       -3.986209   -4.103358    1.612908
    105          1           0       -8.131794   -4.324514    1.645746
    106          1           0       -7.458465   -5.694500    0.695128
    107          1           0       -7.348051   -4.172520   -0.028165
    108          1           0       -4.918148   -5.096376    3.291233
    109          1           0       -6.638461   -5.108922    3.539311
    110          1           0       -6.439642   -3.299238    4.748601
    111          1           0       -6.412159   -2.459644    3.280463
    112          1           0       -3.677222   -3.109445    3.352061
    113          1           0       -4.113524   -3.362491    5.003944
    114          1           0       -5.154425   -0.865396    4.718048
    115          1           0       -2.883412    0.174201    4.995433
    116          1           0       -2.175604   -1.386308    4.465359
    117          1           0       -3.081959   -1.371162    5.924268
    118          1           0       -4.548209   -1.481100    2.009771
    119          1           0       -3.367664   -0.233990    2.362651
    120          1           0       -4.841991    1.317386    2.005431
    121          1           0       -5.892853    0.704741    3.250041
    122          1           0       -6.650167   -1.008259    1.301044
    123          1           0       -5.684376    0.164626    0.345767
    124          1           0       -7.621142    1.500057    2.075771
    125          1           0       -9.079378   -0.203669   -0.001258
    126          1           0       -9.692542    0.592644    1.447299
    127          1           0       -8.644750   -0.708943    1.738735
    128          1           0       -7.724205    1.541561   -0.831651
    129          1           0       -6.371054    2.318912   -0.042039
    130          1           0       -7.537554    4.241360    0.744119
    131          1           0       -8.944419    3.460193    0.993045
    132          1           0       -9.699589    3.303596   -1.217182
    133          1           0       -8.097877    3.629045   -1.851311
    134          1           0       -8.719755    5.945017   -0.434154
    135          1           0      -11.563152    5.500038   -1.253612
    136          1           0      -10.804455    6.497438   -0.010396
    137          1           0      -11.077358    4.837963    0.304525
    138          1           0      -10.233276    6.468265   -2.692484
    139          1           0       -9.171406    5.140306   -3.186223
    140          1           0       -8.462347    6.635049   -2.604618
 ---------------------------------------------------------------------

 SCF Done:  E(RCAM-B3LYP) =  -3007.15655259     A.U. after   18 cycles

 Excitation energies and oscillator strengths:

 Excited State   1:      Singlet-A      1.7467 eV  709.84 nm  f=0.3439  <S**2>=0.000
     245 -> 248       -0.18115
     246 -> 247        0.68420
     245 <- 248       -0.10310
 This state for optimization and/or second-order correction.
 Total Energy, E(TD-HF/TD-DFT) =  -3007.09236436
 Copying the excited state density for this state as the 1-particle RhoCI density.

 Excited State   2:      Singlet-A      2.3610 eV  525.13 nm  f=0.0370  <S**2>=0.000
     245 -> 247        0.58782
     246 -> 248        0.38198

 Excited State   3:      Singlet-A      3.4233 eV  362.17 nm  f=0.7644  <S**2>=0.000
     241 -> 247        0.11745
     245 -> 247       -0.36547
     246 -> 248        0.58068
     245 <- 247        0.10528

 Excited State   4:      Singlet-A      3.5802 eV  346.31 nm  f=0.0103  <S**2>=0.000
     246 -> 249        0.41303
     246 -> 250        0.54422

 Excited State   5:      Singlet-A      3.5949 eV  344.89 nm  f=0.0006  <S**2>=0.000
     241 -> 247        0.10325
     242 -> 247       -0.36471
     242 -> 248        0.12892
     242 -> 249       -0.24691
     242 -> 250        0.10947
     242 -> 251       -0.22608
     244 -> 247        0.41039
     246 -> 250        0.11477

 The electronic state is 1-A.
 Alpha  occ. eigenvalues --  -46.89683 -19.25830 -19.25277 -19.20228 -19.20175
 Alpha  occ. eigenvalues --  -19.19417 -19.18950 -14.43016 -14.41865 -14.40713
 Alpha  occ. eigenvalues --  -14.39540 -10.39901 -10.39819 -10.35648 -10.35042
 Alpha  occ. eigenvalues --  -10.32775 -10.32161 -10.32150 -10.32024 -10.31786
 Alpha  occ. eigenvalues --  -10.31756 -10.31135 -10.29959 -10.29882 -10.29015
 Alpha  occ. eigenvalues --  -10.28894 -10.28729 -10.28622 -10.28523 -10.28427
 Alpha  occ. eigenvalues --  -10.28170 -10.28125 -10.27854 -10.27576 -10.27503
 Alpha  occ. eigenvalues --  -10.27339 -10.27261 -10.27044 -10.26915 -10.26657
 Alpha  occ. eigenvalues --  -10.26615 -10.26388 -10.26384 -10.26382 -10.26221
 Alpha  occ. eigenvalues --  -10.25776 -10.25497 -10.25422 -10.25270 -10.25263
 Alpha  occ. eigenvalues --  -10.25226 -10.25172 -10.25115 -10.25086 -10.24847
 Alpha  occ. eigenvalues --  -10.24678 -10.24673 -10.24515 -10.24351 -10.24312
 Alpha  occ. eigenvalues --  -10.24280 -10.24247 -10.24192 -10.24139 -10.23970
 Alpha  occ. eigenvalues --  -10.23904  -3.18193  -1.93044  -1.92645  -1.92504
 Alpha  occ. eigenvalues --   -1.15461  -1.15189  -1.10114  -1.08453  -1.07275
 Alpha  occ. eigenvalues --   -1.07162  -1.03981  -1.03067  -1.02696  -1.01273
 Alpha  occ. eigenvalues --   -0.92441  -0.90768  -0.89697  -0.89250  -0.88664
 Alpha  occ. eigenvalues --   -0.88578  -0.88332  -0.87335  -0.87253  -0.87145
 Alpha  occ. eigenvalues --   -0.86792  -0.85290  -0.84430  -0.84160  -0.83300
 Alpha  occ. eigenvalues --   -0.82532  -0.82104  -0.81300  -0.80966  -0.80609
 Alpha  occ. eigenvalues --   -0.80192  -0.78193  -0.77926  -0.77791  -0.76411
 Alpha  occ. eigenvalues --   -0.75602  -0.75037  -0.74938  -0.74703  -0.73549
 Alpha  occ. eigenvalues --   -0.72787  -0.72206  -0.71840  -0.70237  -0.69462
 Alpha  occ. eigenvalues --   -0.68915  -0.67598  -0.67533  -0.66305  -0.65740
 Alpha  occ. eigenvalues --   -0.65489  -0.65280  -0.64606  -0.64066  -0.63498
 Alpha  occ. eigenvalues --   -0.63210  -0.63071  -0.62182  -0.61839  -0.60476
 Alpha  occ. eigenvalues --   -0.59607  -0.59063  -0.58689  -0.58562  -0.57791
 Alpha  occ. eigenvalues --   -0.57226  -0.56758  -0.56420  -0.55698  -0.55479
 Alpha  occ. eigenvalues --   -0.55091  -0.54726  -0.54331  -0.53996  -0.53835
 Alpha  occ. eigenvalues --   -0.53519  -0.53254  -0.52980  -0.52804  -0.52747
 Alpha  occ. eigenvalues --   -0.52570  -0.52353  -0.52293  -0.51922  -0.51601
 Alpha  occ. eigenvalues --   -0.51492  -0.51258  -0.51212  -0.50893  -0.50646
 Alpha  occ. eigenvalues --   -0.50500  -0.50258  -0.49985  -0.49580  -0.49444
 Alpha  occ. eigenvalues --   -0.49319  -0.49233  -0.49163  -0.48983  -0.48921
 Alpha  occ. eigenvalues --   -0.48676  -0.48309  -0.48195  -0.47802  -0.47725
 Alpha  occ. eigenvalues --   -0.47420  -0.47294  -0.47159  -0.46942  -0.46676
 Alpha  occ. eigenvalues --   -0.46521  -0.46351  -0.46150  -0.45868  -0.45539
 Alpha  occ. eigenvalues --   -0.45357  -0.45017  -0.44953  -0.44891  -0.44598
 Alpha  occ. eigenvalues --   -0.44573  -0.44327  -0.44228  -0.44076  -0.43903
 Alpha  occ. eigenvalues --   -0.43691  -0.43430  -0.43170  -0.43117  -0.43015
 Alpha  occ. eigenvalues --   -0.42674  -0.42499  -0.42399  -0.42270  -0.42243
 Alpha  occ. eigenvalues --   -0.42058  -0.41919  -0.41886  -0.41659  -0.41542
 Alpha  occ. eigenvalues --   -0.41117  -0.41057  -0.40666  -0.40484  -0.40379
 Alpha  occ. eigenvalues --   -0.40337  -0.39471  -0.38980  -0.38940  -0.38660
 Alpha  occ. eigenvalues --   -0.38440  -0.38371  -0.37899  -0.37586  -0.37149
 Alpha  occ. eigenvalues --   -0.36908  -0.36767  -0.36712  -0.36455  -0.36314
 Alpha  occ. eigenvalues --   -0.36067  -0.35691  -0.34973  -0.34786  -0.34413
 Alpha  occ. eigenvalues --   -0.33847  -0.33750  -0.33206  -0.32069  -0.31620
 Alpha  occ. eigenvalues --   -0.31077  -0.30857  -0.29807  -0.29571  -0.24798
 Alpha  occ. eigenvalues --   -0.21131
 Alpha virt. eigenvalues --   -0.08309  -0.02581  -0.00237   0.00705   0.01823
 Alpha virt. eigenvalues --    0.04234   0.04684   0.05135   0.05469   0.06781
 Alpha virt. eigenvalues --    0.07868   0.08015   0.08201   0.08707   0.09164

 Mulliken charges:
               1
     1  Mg   0.852816
     2  C   -0.029479
     3  C   -0.048633
     4  C   -0.117427
     5  C   -0.084588
     6  N   -0.237917
     7  C   -0.056693
     8  C   -0.008710
     9  C   -0.095549
    10  C    0.038685
    11  C    0.079658
    12  C    0.107036
    13  C    0.042345
    14  C    0.162811
    15  O   -0.248189
    16  O   -0.338421
    17  N   -0.436309
    18  C    0.103693
    19  C   -0.167818
    20  C    0.001216
    21  C    0.216268
    22  C    0.161082
    23  C   -0.021145
    24  O   -0.214130
    25  C    0.042156
    26  N   -0.346092
    27  C    0.072995
    28  C   -0.052534
    29  C   -0.038789
    30  C    0.103831
    31  C    0.088283
    32  C    0.041454
    33  C    0.006127
    34  N   -0.316866
    35  C    0.057607
    36  C   -0.177208
    37  C    0.009100
    38  C    0.141659
    39  C    0.131613
    40  C    0.077274
    41  O   -0.183084
    42  C   -0.027411
    43  C    0.208393
    44  O   -0.210047
    45  O   -0.372032
    46  C    0.177482
    47  C    0.286503
    48  C   -0.115342
    49  C   -0.205340
    50  C    0.100863
    51  C    0.041607
    52  C    0.046288
    53  C    0.019382
    54  C   -0.103274
    55  C    0.071955
    56  C    0.056854
    57  C   -0.004914
    58  C    0.008158
    59  C   -0.130617
    60  C    0.072824
    61  C    0.053194
    62  C    0.038974
    63  C    0.021304
    64  C   -0.140479
    65  C    0.031152
    66  C    0.050481
    67  H   -0.011691
    68  H   -0.056771
    69  H   -0.044223
    70  H    0.006704
    71  H    0.013557
    72  H    0.016663
    73  H    0.013783
    74  H    0.030022
    75  H    0.020909
    76  H    0.018807
    77  H    0.021691
    78  H    0.024558
    79  H    0.050957
    80  H   -0.007799
    81  H    0.043255
    82  H    0.053626
    83  H    0.028203
    84  H    0.033510
    85  H    0.011831
    86  H    0.008624
    87  H    0.022603
    88  H    0.019891
    89  H    0.007265
    90  H    0.022556
    91  H   -0.000912
    92  H    0.007895
    93  H    0.006426
    94  H    0.025314
    95  H    0.014262
    96  H    0.033147
    97  H    0.025740
    98  H    0.038665
    99  H    0.036609
   100  H    0.052852
   101  H    0.038710
   102  H    0.031525
   103  H    0.062393
   104  H    0.007500
   105  H    0.036370
   106  H    0.020109
   107  H    0.007348
   108  H    0.004871
   109  H   -0.019820
   110  H   -0.003687
   111  H   -0.007947
   112  H    0.001566
   113  H   -0.007182
   114  H   -0.008512
   115  H    0.010839
   116  H   -0.004089
   117  H   -0.001978
   118  H    0.000295
   119  H   -0.008745
   120  H   -0.010563
   121  H   -0.009747
   122  H    0.000368
   123  H   -0.008260
   124  H   -0.016549
   125  H    0.015268
   126  H   -0.002470
   127  H    0.003622
   128  H   -0.006867
   129  H   -0.003192
   130  H   -0.006474
   131  H   -0.020175
   132  H   -0.005201
   133  H    0.005206
   134  H   -0.010556
   135  H    0.011312
   136  H    0.007230
   137  H    0.001446
   138  H    0.000554
   139  H    0.001850
   140  H    0.011017
 Sum of Mulliken charges =  -0.00000

 Dipole moment (field-independent basis, Debye):
    X=             -0.2522    Y=              2.6806    Z=              1.7950  Tot=              3.2359
 Quadrupole moment (field-independent basis, Debye-Ang):
   XX=           -386.9741   YY=           -433.2820   ZZ=           -388.1744
   XY=             48.9262   XZ=              5.5448   YZ=             13.2512

 Normal termination of Gaussian 16 at Sat Apr 30 04:42:18 2022.
