 Gaussian 16, Revision A.03,
 Gaussian 16:  ES64L-G16RevA.03 25-Dec-2016

 ---------------------------------
 #p PBE1PBE/Def2SVP td=(nstates=5)
 ---------------------------------

 -----------------------------------------------------
 step_601_chromophore_17 TDDFT with PBE1PBE functional
 -----------------------------------------------------
 Symbolic Z-matrix:
 Charge =  0 Multiplicity = 1

                         Standard orientation:
 ---------------------------------------------------------------------
 Center     Atomic      Atomic             Coordinates (Angstroms)
 Number     Number       Type             X           Y           Z
 ---------------------------------------------------------------------
      1         12           0        4.130942    1.018137   -0.775989
      2          6           0        3.123631   -2.456504   -1.071093
      3          6           0        1.327874    1.824889   -2.650633
      4          6           0        4.318319    4.207114    0.393478
      5          6           0        6.305613   -0.042113    1.715134
      6          7           0        2.371037   -0.257999   -1.675280
      7          6           0        2.279005   -1.617877   -1.839864
      8          6           0        0.945733   -1.938343   -2.619419
      9          6           0        0.721951   -0.612100   -3.425136
     10          6           0        1.491995    0.373889   -2.509709
     11          6           0        1.330141   -0.620858   -4.862707
     12          6           0       -0.253545   -2.238595   -1.625928
     13          6           0       -1.024794   -3.593720   -1.805962
     14          6           0       -2.599506   -3.648430   -1.897346
     15          8           0       -3.312811   -3.143254   -2.778072
     16          8           0       -3.029776   -4.297967   -0.758459
     17          7           0        3.119375    2.748015   -1.094640
     18          6           0        2.054507    2.888677   -2.029670
     19          6           0        1.636411    4.355774   -2.077734
     20          6           0        2.564989    4.997955   -1.290787
     21          6           0        3.426383    4.018087   -0.645736
     22          6           0        0.445198    4.924159   -2.886356
     23          6           0        2.535831    6.489420   -1.065879
     24          8           0        1.724247    7.220188   -1.640745
     25          6           0        3.574391    7.216635   -0.208065
     26          7           0        5.191677    1.886118    0.853121
     27          6           0        5.030192    3.232448    1.181642
     28          6           0        5.895477    3.505126    2.483668
     29          6           0        6.825188    2.234514    2.656061
     30          6           0        6.067309    1.253392    1.757555
     31          6           0        6.612796    4.786214    2.616037
     32          6           0        7.080324    1.748320    4.099832
     33          6           0        8.522224    1.779214    4.578936
     34          7           0        4.707558   -0.805084    0.090182
     35          6           0        5.586682   -1.081681    1.060510
     36          6           0        5.785543   -2.498494    1.198063
     37          6           0        4.801509   -3.112338    0.439938
     38          6           0        4.147071   -2.041516   -0.241245
     39          6           0        6.826378   -3.043486    2.065280
     40          6           0        4.260231   -4.386674    0.051412
     41          8           0        4.708764   -5.525936    0.262938
     42          6           0        3.084132   -4.008554   -0.972134
     43          6           0        3.286200   -4.702556   -2.308582
     44          8           0        4.328763   -4.783626   -2.949160
     45          8           0        2.041349   -5.163192   -2.765656
     46          6           0        2.081945   -5.913438   -4.052102
     47          6           0       -4.508759   -4.095824   -0.554459
     48          6           0       -4.818549   -4.033837    0.912593
     49          6           0       -5.919763   -4.463970    1.511678
     50          6           0       -7.349859   -4.642274    0.955920
     51          6           0       -5.835007   -4.557141    3.052757
     52          6           0       -5.842423   -3.200419    3.841959
     53          6           0       -4.410704   -2.821738    4.105054
     54          6           0       -4.296711   -1.280294    4.188970
     55          6           0       -3.028498   -0.904433    4.941091
     56          6           0       -4.305202   -0.675434    2.702289
     57          6           0       -5.332129    0.411405    2.363191
     58          6           0       -6.289011    0.018351    1.240838
     59          6           0       -7.591972    0.954766    1.131939
     60          6           0       -8.826430    0.088744    1.018515
     61          6           0       -7.428331    2.078840    0.069562
     62          6           0       -8.136465    3.468306    0.262099
     63          6           0       -8.786560    3.873102   -1.042205
     64          6           0       -9.362188    5.326857   -1.062060
     65          6           0      -10.782679    5.520508   -0.493495
     66          6           0       -9.300054    5.950427   -2.468854
     67          1           0        0.676769    2.268021   -3.407408
     68          1           0        4.420062    5.196562    0.845458
     69          1           0        7.037790   -0.514408    2.374145
     70          1           0        0.970285   -2.735445   -3.362971
     71          1           0       -0.291277   -0.229502   -3.550215
     72          1           0        1.920662   -1.528399   -4.985101
     73          1           0        2.035039    0.207845   -4.932679
     74          1           0        0.540633   -0.540723   -5.609634
     75          1           0       -0.964630   -1.412235   -1.612639
     76          1           0        0.188701   -2.270942   -0.630502
     77          1           0       -0.756159   -4.277955   -1.000171
     78          1           0       -0.704838   -4.184802   -2.664429
     79          1           0       -0.218357    5.450155   -2.199647
     80          1           0       -0.040659    4.072638   -3.362723
     81          1           0        0.796046    5.553759   -3.703558
     82          1           0        3.479540    7.018984    0.859665
     83          1           0        3.407433    8.259241   -0.477500
     84          1           0        4.590826    6.998574   -0.535617
     85          1           0        5.207215    3.492577    3.329296
     86          1           0        7.786116    2.514195    2.224577
     87          1           0        7.424515    4.666048    3.333927
     88          1           0        5.875374    5.563060    2.817224
     89          1           0        7.041584    5.062779    1.652765
     90          1           0        6.596692    0.788911    4.283896
     91          1           0        6.574688    2.535001    4.659300
     92          1           0        8.851218    0.843480    5.030785
     93          1           0        8.493494    2.397318    5.476035
     94          1           0        9.290725    2.098916    3.874835
     95          1           0        7.751566   -2.726972    1.584713
     96          1           0        6.803740   -4.133209    2.029282
     97          1           0        6.888691   -2.602560    3.060831
     98          1           0        2.160557   -4.418803   -0.562918
     99          1           0        2.537531   -6.849491   -3.728997
    100          1           0        2.670727   -5.434384   -4.834474
    101          1           0        1.093922   -6.226154   -4.388636
    102          1           0       -4.967341   -5.068067   -0.734574
    103          1           0       -4.979630   -3.248215   -1.051582
    104          1           0       -3.986209   -4.103358    1.612908
    105          1           0       -8.131794   -4.324514    1.645746
    106          1           0       -7.458465   -5.694500    0.695128
    107          1           0       -7.348051   -4.172520   -0.028165
    108          1           0       -4.918148   -5.096376    3.291233
    109          1           0       -6.638461   -5.108922    3.539311
    110          1           0       -6.439642   -3.299238    4.748601
    111          1           0       -6.412159   -2.459644    3.280463
    112          1           0       -3.677222   -3.109445    3.352061
    113          1           0       -4.113524   -3.362491    5.003944
    114          1           0       -5.154425   -0.865396    4.718048
    115          1           0       -2.883412    0.174201    4.995433
    116          1           0       -2.175604   -1.386308    4.465359
    117          1           0       -3.081959   -1.371162    5.924268
    118          1           0       -4.548209   -1.481100    2.009771
    119          1           0       -3.367664   -0.233990    2.362651
    120          1           0       -4.841991    1.317386    2.005431
    121          1           0       -5.892853    0.704741    3.250041
    122          1           0       -6.650167   -1.008259    1.301044
    123          1           0       -5.684376    0.164626    0.345767
    124          1           0       -7.621142    1.500057    2.075771
    125          1           0       -9.079378   -0.203669   -0.001258
    126          1           0       -9.692542    0.592644    1.447299
    127          1           0       -8.644750   -0.708943    1.738735
    128          1           0       -7.724205    1.541561   -0.831651
    129          1           0       -6.371054    2.318912   -0.042039
    130          1           0       -7.537554    4.241360    0.744119
    131          1           0       -8.944419    3.460193    0.993045
    132          1           0       -9.699589    3.303596   -1.217182
    133          1           0       -8.097877    3.629045   -1.851311
    134          1           0       -8.719755    5.945017   -0.434154
    135          1           0      -11.563152    5.500038   -1.253612
    136          1           0      -10.804455    6.497438   -0.010396
    137          1           0      -11.077358    4.837963    0.304525
    138          1           0      -10.233276    6.468265   -2.692484
    139          1           0       -9.171406    5.140306   -3.186223
    140          1           0       -8.462347    6.635049   -2.604618
 ---------------------------------------------------------------------

 SCF Done:  E(RPBE1PBE) =  -3005.34361762     A.U. after   16 cycles

 Excitation energies and oscillator strengths:

 Excited State   1:      Singlet-A      1.8543 eV  668.64 nm  f=0.3406  <S**2>=0.000
     245 -> 248       -0.17669
     246 -> 247        0.69160
 This state for optimization and/or second-order correction.
 Total Energy, E(TD-HF/TD-DFT) =  -3005.27547385
 Copying the excited state density for this state as the 1-particle RhoCI density.

 Excited State   2:      Singlet-A      2.3274 eV  532.71 nm  f=0.0452  <S**2>=0.000
     245 -> 247        0.60779
     246 -> 248        0.35492

 Excited State   3:      Singlet-A      3.1203 eV  397.35 nm  f=0.0019  <S**2>=0.000
     242 -> 247        0.41024
     242 -> 249        0.15499
     242 -> 250        0.10797
     243 -> 247        0.52078

 Excited State   4:      Singlet-A      3.1960 eV  387.94 nm  f=0.0064  <S**2>=0.000
     241 -> 247        0.64773
     241 -> 249       -0.21195
     241 -> 250        0.12943

 Excited State   5:      Singlet-A      3.2269 eV  384.22 nm  f=0.0909  <S**2>=0.000
     242 -> 247        0.47051
     243 -> 247       -0.37662
     245 -> 247        0.13999
     246 -> 248       -0.28541

 The electronic state is 1-A.
 Alpha  occ. eigenvalues --  -46.93104 -19.26598 -19.26001 -19.20531 -19.20506
 Alpha  occ. eigenvalues --  -19.19430 -19.19393 -14.42411 -14.41526 -14.40269
 Alpha  occ. eigenvalues --  -14.39328 -10.37017 -10.36907 -10.32604 -10.32379
 Alpha  occ. eigenvalues --  -10.30229 -10.29762 -10.29588 -10.29296 -10.29242
 Alpha  occ. eigenvalues --  -10.29209 -10.28992 -10.27805 -10.27235 -10.26725
 Alpha  occ. eigenvalues --  -10.26666 -10.26637 -10.26580 -10.26527 -10.26075
 Alpha  occ. eigenvalues --  -10.25901 -10.25899 -10.25741 -10.25199 -10.24967
 Alpha  occ. eigenvalues --  -10.24954 -10.24905 -10.24736 -10.24594 -10.24345
 Alpha  occ. eigenvalues --  -10.24232 -10.23763 -10.23759 -10.23655 -10.23562
 Alpha  occ. eigenvalues --  -10.23268 -10.23232 -10.23193 -10.22983 -10.22900
 Alpha  occ. eigenvalues --  -10.22852 -10.22820 -10.22780 -10.22754 -10.22637
 Alpha  occ. eigenvalues --  -10.22207 -10.22154 -10.22097 -10.21844 -10.21789
 Alpha  occ. eigenvalues --  -10.21750 -10.21672 -10.21631 -10.21627 -10.21328
 Alpha  occ. eigenvalues --  -10.21254  -3.15191  -1.87978  -1.87561  -1.87425
 Alpha  occ. eigenvalues --   -1.10321  -1.09993  -1.04634  -1.03369  -1.02167
 Alpha  occ. eigenvalues --   -1.02078  -0.98760  -0.97787  -0.97112  -0.95859
 Alpha  occ. eigenvalues --   -0.86938  -0.84893  -0.83985  -0.83317  -0.82930
 Alpha  occ. eigenvalues --   -0.82748  -0.82509  -0.81730  -0.81381  -0.81328
 Alpha  occ. eigenvalues --   -0.81093  -0.79495  -0.78698  -0.78401  -0.77518
 Alpha  occ. eigenvalues --   -0.76716  -0.76299  -0.75421  -0.75215  -0.74895
 Alpha  occ. eigenvalues --   -0.74414  -0.72446  -0.72268  -0.71954  -0.70792
 Alpha  occ. eigenvalues --   -0.69809  -0.69326  -0.69098  -0.68795  -0.67714
 Alpha  occ. eigenvalues --   -0.67101  -0.66664  -0.66317  -0.64562  -0.63891
 Alpha  occ. eigenvalues --   -0.63431  -0.61879  -0.61750  -0.60581  -0.60239
 Alpha  occ. eigenvalues --   -0.59849  -0.59427  -0.59085  -0.58652  -0.57771
 Alpha  occ. eigenvalues --   -0.57561  -0.57195  -0.56827  -0.56017  -0.54894
 Alpha  occ. eigenvalues --   -0.54200  -0.53676  -0.53264  -0.53082  -0.52401
 Alpha  occ. eigenvalues --   -0.51715  -0.51313  -0.50829  -0.50262  -0.50100
 Alpha  occ. eigenvalues --   -0.49758  -0.49158  -0.48839  -0.48542  -0.48329
 Alpha  occ. eigenvalues --   -0.48006  -0.47839  -0.47543  -0.47390  -0.47184
 Alpha  occ. eigenvalues --   -0.47036  -0.46741  -0.46596  -0.46415  -0.46158
 Alpha  occ. eigenvalues --   -0.46138  -0.45888  -0.45727  -0.45400  -0.45261
 Alpha  occ. eigenvalues --   -0.45115  -0.44846  -0.44373  -0.44212  -0.44052
 Alpha  occ. eigenvalues --   -0.43913  -0.43774  -0.43734  -0.43580  -0.43469
 Alpha  occ. eigenvalues --   -0.43280  -0.42921  -0.42828  -0.42466  -0.42264
 Alpha  occ. eigenvalues --   -0.42012  -0.41978  -0.41788  -0.41600  -0.41480
 Alpha  occ. eigenvalues --   -0.41274  -0.40966  -0.40795  -0.40640  -0.40255
 Alpha  occ. eigenvalues --   -0.40108  -0.39724  -0.39681  -0.39496  -0.39399
 Alpha  occ. eigenvalues --   -0.39258  -0.39013  -0.38882  -0.38820  -0.38698
 Alpha  occ. eigenvalues --   -0.38392  -0.38323  -0.38042  -0.37954  -0.37803
 Alpha  occ. eigenvalues --   -0.37354  -0.37212  -0.37172  -0.37152  -0.37066
 Alpha  occ. eigenvalues --   -0.36916  -0.36754  -0.36625  -0.36582  -0.36275
 Alpha  occ. eigenvalues --   -0.36022  -0.35786  -0.35492  -0.35398  -0.35301
 Alpha  occ. eigenvalues --   -0.35258  -0.34219  -0.33926  -0.33721  -0.33645
 Alpha  occ. eigenvalues --   -0.33454  -0.33105  -0.32786  -0.32388  -0.32205
 Alpha  occ. eigenvalues --   -0.31778  -0.31646  -0.31607  -0.31469  -0.31150
 Alpha  occ. eigenvalues --   -0.30847  -0.30473  -0.30140  -0.29734  -0.29482
 Alpha  occ. eigenvalues --   -0.28806  -0.28749  -0.28691  -0.27487  -0.26618
 Alpha  occ. eigenvalues --   -0.26142  -0.25956  -0.25415  -0.25102  -0.21595
 Alpha  occ. eigenvalues --   -0.18749
 Alpha virt. eigenvalues --   -0.10985  -0.06020  -0.04420  -0.02632  -0.02086
 Alpha virt. eigenvalues --   -0.00412  -0.00076   0.00630   0.01021   0.02977
 Alpha virt. eigenvalues --    0.04102   0.04296   0.04864   0.05016   0.05862

 Mulliken charges:
               1
     1  Mg   0.992233
     2  C   -0.057766
     3  C   -0.045852
     4  C   -0.117207
     5  C   -0.080591
     6  N   -0.332099
     7  C    0.031200
     8  C   -0.087266
     9  C   -0.168685
    10  C    0.072838
    11  C    0.026246
    12  C    0.062456
    13  C   -0.032289
    14  C    0.226834
    15  O   -0.280061
    16  O   -0.366725
    17  N   -0.544992
    18  C    0.124350
    19  C   -0.188261
    20  C   -0.052184
    21  C    0.234936
    22  C    0.098797
    23  C    0.034179
    24  O   -0.248763
    25  C   -0.036863
    26  N   -0.443948
    27  C    0.116584
    28  C   -0.134389
    29  C   -0.107962
    30  C    0.137267
    31  C    0.025428
    32  C   -0.023515
    33  C   -0.062832
    34  N   -0.438815
    35  C    0.091902
    36  C   -0.197793
    37  C   -0.042088
    38  C    0.183928
    39  C    0.071623
    40  C    0.179005
    41  O   -0.227141
    42  C   -0.128916
    43  C    0.296702
    44  O   -0.244708
    45  O   -0.402112
    46  C    0.120713
    47  C    0.244204
    48  C   -0.138199
    49  C   -0.238137
    50  C    0.034577
    51  C   -0.025807
    52  C   -0.016016
    53  C   -0.039271
    54  C   -0.194136
    55  C    0.010217
    56  C   -0.000344
    57  C   -0.062823
    58  C   -0.053338
    59  C   -0.214261
    60  C    0.009116
    61  C   -0.000529
    62  C   -0.019989
    63  C   -0.039531
    64  C   -0.230117
    65  C   -0.031854
    66  C   -0.009623
    67  H    0.018613
    68  H   -0.018248
    69  H   -0.010503
    70  H    0.046358
    71  H    0.048551
    72  H    0.043163
    73  H    0.043031
    74  H    0.056799
    75  H    0.053064
    76  H    0.052648
    77  H    0.053955
    78  H    0.056912
    79  H    0.076558
    80  H    0.019223
    81  H    0.069215
    82  H    0.078058
    83  H    0.055977
    84  H    0.060462
    85  H    0.050090
    86  H    0.047233
    87  H    0.050850
    88  H    0.047319
    89  H    0.036301
    90  H    0.053312
    91  H    0.034140
    92  H    0.035787
    93  H    0.034351
    94  H    0.051057
    95  H    0.045774
    96  H    0.063315
    97  H    0.054458
    98  H    0.076551
    99  H    0.059418
   100  H    0.073977
   101  H    0.060318
   102  H    0.060501
   103  H    0.087103
   104  H    0.038870
   105  H    0.061765
   106  H    0.048978
   107  H    0.035749
   108  H    0.038907
   109  H    0.013443
   110  H    0.028774
   111  H    0.029756
   112  H    0.034568
   113  H    0.025953
   114  H    0.029063
   115  H    0.039416
   116  H    0.024243
   117  H    0.027036
   118  H    0.042486
   119  H    0.023662
   120  H    0.023421
   121  H    0.021846
   122  H    0.033407
   123  H    0.025729
   124  H    0.023037
   125  H    0.041453
   126  H    0.026161
   127  H    0.032416
   128  H    0.025222
   129  H    0.030352
   130  H    0.024373
   131  H    0.013138
   132  H    0.029270
   133  H    0.037379
   134  H    0.028128
   135  H    0.038257
   136  H    0.035573
   137  H    0.028990
   138  H    0.027816
   139  H    0.029544
   140  H    0.038587
 Sum of Mulliken charges =  -0.00000

 Dipole moment (field-independent basis, Debye):
    X=              0.0756    Y=              2.1416    Z=              2.0622  Tot=              2.9740
 Quadrupole moment (field-independent basis, Debye-Ang):
   XX=           -380.1593   YY=           -431.8081   ZZ=           -384.5737
   XY=             47.4436   XZ=              7.4909   YZ=             13.8347

 Normal termination of Gaussian 16 at Sat Apr 30 05:05:00 2022.
