 Gaussian 16, Revision A.03,
 Gaussian 16:  ES64L-G16RevA.03 25-Dec-2016

 --------------------------------
 #p wB97XD/Def2SVP td=(nstates=5)
 --------------------------------

 ----------------------------------------------------
 step_601_chromophore_17 TDDFT with wB97XD functional
 ----------------------------------------------------
 Symbolic Z-matrix:
 Charge =  0 Multiplicity = 1

                         Standard orientation:
 ---------------------------------------------------------------------
 Center     Atomic      Atomic             Coordinates (Angstroms)
 Number     Number       Type             X           Y           Z
 ---------------------------------------------------------------------
      1         12           0        4.130942    1.018137   -0.775989
      2          6           0        3.123631   -2.456504   -1.071093
      3          6           0        1.327874    1.824889   -2.650633
      4          6           0        4.318319    4.207114    0.393478
      5          6           0        6.305613   -0.042113    1.715134
      6          7           0        2.371037   -0.257999   -1.675280
      7          6           0        2.279005   -1.617877   -1.839864
      8          6           0        0.945733   -1.938343   -2.619419
      9          6           0        0.721951   -0.612100   -3.425136
     10          6           0        1.491995    0.373889   -2.509709
     11          6           0        1.330141   -0.620858   -4.862707
     12          6           0       -0.253545   -2.238595   -1.625928
     13          6           0       -1.024794   -3.593720   -1.805962
     14          6           0       -2.599506   -3.648430   -1.897346
     15          8           0       -3.312811   -3.143254   -2.778072
     16          8           0       -3.029776   -4.297967   -0.758459
     17          7           0        3.119375    2.748015   -1.094640
     18          6           0        2.054507    2.888677   -2.029670
     19          6           0        1.636411    4.355774   -2.077734
     20          6           0        2.564989    4.997955   -1.290787
     21          6           0        3.426383    4.018087   -0.645736
     22          6           0        0.445198    4.924159   -2.886356
     23          6           0        2.535831    6.489420   -1.065879
     24          8           0        1.724247    7.220188   -1.640745
     25          6           0        3.574391    7.216635   -0.208065
     26          7           0        5.191677    1.886118    0.853121
     27          6           0        5.030192    3.232448    1.181642
     28          6           0        5.895477    3.505126    2.483668
     29          6           0        6.825188    2.234514    2.656061
     30          6           0        6.067309    1.253392    1.757555
     31          6           0        6.612796    4.786214    2.616037
     32          6           0        7.080324    1.748320    4.099832
     33          6           0        8.522224    1.779214    4.578936
     34          7           0        4.707558   -0.805084    0.090182
     35          6           0        5.586682   -1.081681    1.060510
     36          6           0        5.785543   -2.498494    1.198063
     37          6           0        4.801509   -3.112338    0.439938
     38          6           0        4.147071   -2.041516   -0.241245
     39          6           0        6.826378   -3.043486    2.065280
     40          6           0        4.260231   -4.386674    0.051412
     41          8           0        4.708764   -5.525936    0.262938
     42          6           0        3.084132   -4.008554   -0.972134
     43          6           0        3.286200   -4.702556   -2.308582
     44          8           0        4.328763   -4.783626   -2.949160
     45          8           0        2.041349   -5.163192   -2.765656
     46          6           0        2.081945   -5.913438   -4.052102
     47          6           0       -4.508759   -4.095824   -0.554459
     48          6           0       -4.818549   -4.033837    0.912593
     49          6           0       -5.919763   -4.463970    1.511678
     50          6           0       -7.349859   -4.642274    0.955920
     51          6           0       -5.835007   -4.557141    3.052757
     52          6           0       -5.842423   -3.200419    3.841959
     53          6           0       -4.410704   -2.821738    4.105054
     54          6           0       -4.296711   -1.280294    4.188970
     55          6           0       -3.028498   -0.904433    4.941091
     56          6           0       -4.305202   -0.675434    2.702289
     57          6           0       -5.332129    0.411405    2.363191
     58          6           0       -6.289011    0.018351    1.240838
     59          6           0       -7.591972    0.954766    1.131939
     60          6           0       -8.826430    0.088744    1.018515
     61          6           0       -7.428331    2.078840    0.069562
     62          6           0       -8.136465    3.468306    0.262099
     63          6           0       -8.786560    3.873102   -1.042205
     64          6           0       -9.362188    5.326857   -1.062060
     65          6           0      -10.782679    5.520508   -0.493495
     66          6           0       -9.300054    5.950427   -2.468854
     67          1           0        0.676769    2.268021   -3.407408
     68          1           0        4.420062    5.196562    0.845458
     69          1           0        7.037790   -0.514408    2.374145
     70          1           0        0.970285   -2.735445   -3.362971
     71          1           0       -0.291277   -0.229502   -3.550215
     72          1           0        1.920662   -1.528399   -4.985101
     73          1           0        2.035039    0.207845   -4.932679
     74          1           0        0.540633   -0.540723   -5.609634
     75          1           0       -0.964630   -1.412235   -1.612639
     76          1           0        0.188701   -2.270942   -0.630502
     77          1           0       -0.756159   -4.277955   -1.000171
     78          1           0       -0.704838   -4.184802   -2.664429
     79          1           0       -0.218357    5.450155   -2.199647
     80          1           0       -0.040659    4.072638   -3.362723
     81          1           0        0.796046    5.553759   -3.703558
     82          1           0        3.479540    7.018984    0.859665
     83          1           0        3.407433    8.259241   -0.477500
     84          1           0        4.590826    6.998574   -0.535617
     85          1           0        5.207215    3.492577    3.329296
     86          1           0        7.786116    2.514195    2.224577
     87          1           0        7.424515    4.666048    3.333927
     88          1           0        5.875374    5.563060    2.817224
     89          1           0        7.041584    5.062779    1.652765
     90          1           0        6.596692    0.788911    4.283896
     91          1           0        6.574688    2.535001    4.659300
     92          1           0        8.851218    0.843480    5.030785
     93          1           0        8.493494    2.397318    5.476035
     94          1           0        9.290725    2.098916    3.874835
     95          1           0        7.751566   -2.726972    1.584713
     96          1           0        6.803740   -4.133209    2.029282
     97          1           0        6.888691   -2.602560    3.060831
     98          1           0        2.160557   -4.418803   -0.562918
     99          1           0        2.537531   -6.849491   -3.728997
    100          1           0        2.670727   -5.434384   -4.834474
    101          1           0        1.093922   -6.226154   -4.388636
    102          1           0       -4.967341   -5.068067   -0.734574
    103          1           0       -4.979630   -3.248215   -1.051582
    104          1           0       -3.986209   -4.103358    1.612908
    105          1           0       -8.131794   -4.324514    1.645746
    106          1           0       -7.458465   -5.694500    0.695128
    107          1           0       -7.348051   -4.172520   -0.028165
    108          1           0       -4.918148   -5.096376    3.291233
    109          1           0       -6.638461   -5.108922    3.539311
    110          1           0       -6.439642   -3.299238    4.748601
    111          1           0       -6.412159   -2.459644    3.280463
    112          1           0       -3.677222   -3.109445    3.352061
    113          1           0       -4.113524   -3.362491    5.003944
    114          1           0       -5.154425   -0.865396    4.718048
    115          1           0       -2.883412    0.174201    4.995433
    116          1           0       -2.175604   -1.386308    4.465359
    117          1           0       -3.081959   -1.371162    5.924268
    118          1           0       -4.548209   -1.481100    2.009771
    119          1           0       -3.367664   -0.233990    2.362651
    120          1           0       -4.841991    1.317386    2.005431
    121          1           0       -5.892853    0.704741    3.250041
    122          1           0       -6.650167   -1.008259    1.301044
    123          1           0       -5.684376    0.164626    0.345767
    124          1           0       -7.621142    1.500057    2.075771
    125          1           0       -9.079378   -0.203669   -0.001258
    126          1           0       -9.692542    0.592644    1.447299
    127          1           0       -8.644750   -0.708943    1.738735
    128          1           0       -7.724205    1.541561   -0.831651
    129          1           0       -6.371054    2.318912   -0.042039
    130          1           0       -7.537554    4.241360    0.744119
    131          1           0       -8.944419    3.460193    0.993045
    132          1           0       -9.699589    3.303596   -1.217182
    133          1           0       -8.097877    3.629045   -1.851311
    134          1           0       -8.719755    5.945017   -0.434154
    135          1           0      -11.563152    5.500038   -1.253612
    136          1           0      -10.804455    6.497438   -0.010396
    137          1           0      -11.077358    4.837963    0.304525
    138          1           0      -10.233276    6.468265   -2.692484
    139          1           0       -9.171406    5.140306   -3.186223
    140          1           0       -8.462347    6.635049   -2.604618
 ---------------------------------------------------------------------

 SCF Done:  E(RwB97XD) =  -3007.85659582     A.U. after   19 cycles

 Excitation energies and oscillator strengths:

 Excited State   1:      Singlet-A      1.7123 eV  724.06 nm  f=0.3425  <S**2>=0.000
     245 -> 248       -0.18478
     246 -> 247        0.68120
     245 <- 248       -0.10988
 This state for optimization and/or second-order correction.
 Total Energy, E(TD-HF/TD-DFT) =  -3007.79366820
 Copying the excited state density for this state as the 1-particle RhoCI density.

 Excited State   2:      Singlet-A      2.3245 eV  533.38 nm  f=0.0376  <S**2>=0.000
     245 -> 247        0.58750
     246 -> 248        0.37862

 Excited State   3:      Singlet-A      3.4320 eV  361.26 nm  f=0.7660  <S**2>=0.000
     241 -> 247        0.14620
     245 -> 247       -0.35623
     246 -> 248        0.57913
     245 <- 247        0.10764

 Excited State   4:      Singlet-A      3.6371 eV  340.89 nm  f=0.0028  <S**2>=0.000
     240 -> 247        0.19717
     240 -> 249       -0.16734
     241 -> 247        0.13832
     242 -> 247       -0.32723
     242 -> 248        0.13167
     242 -> 249       -0.26327
     242 -> 250        0.19601
     242 -> 251       -0.13548
     244 -> 247        0.33321
     244 -> 249        0.10248

 Excited State   5:      Singlet-A      3.6422 eV  340.41 nm  f=0.0037  <S**2>=0.000
     240 -> 247        0.43619
     240 -> 249       -0.35327
     240 -> 250       -0.13202
     240 -> 251        0.18895
     242 -> 247        0.17185
     242 -> 249        0.13956
     242 -> 250       -0.10223
     244 -> 247       -0.13981

 The electronic state is 1-A.
 Alpha  occ. eigenvalues --  -46.96039 -19.31088 -19.30486 -19.25151 -19.25139
 Alpha  occ. eigenvalues --  -19.24490 -19.23963 -14.47630 -14.46475 -14.45362
 Alpha  occ. eigenvalues --  -14.44102 -10.43744 -10.43652 -10.39672 -10.39029
 Alpha  occ. eigenvalues --  -10.36913 -10.36268 -10.36043 -10.35963 -10.35895
 Alpha  occ. eigenvalues --  -10.35761 -10.35115 -10.34207 -10.33849 -10.33032
 Alpha  occ. eigenvalues --  -10.33019 -10.32806 -10.32780 -10.32432 -10.32358
 Alpha  occ. eigenvalues --  -10.32207 -10.32191 -10.31896 -10.31714 -10.31458
 Alpha  occ. eigenvalues --  -10.31316 -10.31254 -10.31038 -10.30908 -10.30599
 Alpha  occ. eigenvalues --  -10.30593 -10.30305 -10.30252 -10.30197 -10.30094
 Alpha  occ. eigenvalues --  -10.29597 -10.29467 -10.29355 -10.29214 -10.29156
 Alpha  occ. eigenvalues --  -10.29107 -10.29079 -10.29075 -10.28999 -10.28820
 Alpha  occ. eigenvalues --  -10.28604 -10.28571 -10.28446 -10.28253 -10.28165
 Alpha  occ. eigenvalues --  -10.28128 -10.28112 -10.28080 -10.28022 -10.27766
 Alpha  occ. eigenvalues --  -10.27709  -3.22016  -1.95547  -1.95130  -1.94989
 Alpha  occ. eigenvalues --   -1.17656  -1.17326  -1.12373  -1.10641  -1.09456
 Alpha  occ. eigenvalues --   -1.09378  -1.05962  -1.05069  -1.04769  -1.03287
 Alpha  occ. eigenvalues --   -0.94381  -0.92551  -0.91556  -0.90999  -0.90611
 Alpha  occ. eigenvalues --   -0.90381  -0.90151  -0.89235  -0.89165  -0.89049
 Alpha  occ. eigenvalues --   -0.88709  -0.87162  -0.86278  -0.86011  -0.85193
 Alpha  occ. eigenvalues --   -0.84376  -0.84019  -0.83163  -0.82883  -0.82532
 Alpha  occ. eigenvalues --   -0.82044  -0.80164  -0.79831  -0.79708  -0.78327
 Alpha  occ. eigenvalues --   -0.77447  -0.76897  -0.76821  -0.76500  -0.75378
 Alpha  occ. eigenvalues --   -0.74686  -0.74178  -0.73822  -0.72156  -0.71375
 Alpha  occ. eigenvalues --   -0.70916  -0.69617  -0.69413  -0.68177  -0.67683
 Alpha  occ. eigenvalues --   -0.67407  -0.67099  -0.66600  -0.66077  -0.65275
 Alpha  occ. eigenvalues --   -0.65193  -0.64877  -0.64168  -0.63666  -0.62528
 Alpha  occ. eigenvalues --   -0.61564  -0.61066  -0.60600  -0.60536  -0.59755
 Alpha  occ. eigenvalues --   -0.59161  -0.58750  -0.58279  -0.57648  -0.57456
 Alpha  occ. eigenvalues --   -0.57049  -0.56548  -0.56231  -0.55889  -0.55743
 Alpha  occ. eigenvalues --   -0.55405  -0.55164  -0.54878  -0.54696  -0.54644
 Alpha  occ. eigenvalues --   -0.54512  -0.54293  -0.54169  -0.53812  -0.53552
 Alpha  occ. eigenvalues --   -0.53410  -0.53147  -0.53077  -0.52752  -0.52520
 Alpha  occ. eigenvalues --   -0.52386  -0.52157  -0.51985  -0.51480  -0.51349
 Alpha  occ. eigenvalues --   -0.51191  -0.51166  -0.51100  -0.50918  -0.50857
 Alpha  occ. eigenvalues --   -0.50560  -0.50200  -0.50088  -0.49801  -0.49659
 Alpha  occ. eigenvalues --   -0.49318  -0.49225  -0.49087  -0.48837  -0.48577
 Alpha  occ. eigenvalues --   -0.48434  -0.48306  -0.48014  -0.47800  -0.47392
 Alpha  occ. eigenvalues --   -0.47254  -0.46935  -0.46816  -0.46770  -0.46516
 Alpha  occ. eigenvalues --   -0.46491  -0.46242  -0.46082  -0.45957  -0.45831
 Alpha  occ. eigenvalues --   -0.45554  -0.45341  -0.45091  -0.45055  -0.44927
 Alpha  occ. eigenvalues --   -0.44720  -0.44352  -0.44281  -0.44192  -0.44148
 Alpha  occ. eigenvalues --   -0.43983  -0.43785  -0.43769  -0.43606  -0.43401
 Alpha  occ. eigenvalues --   -0.42966  -0.42916  -0.42548  -0.42384  -0.42278
 Alpha  occ. eigenvalues --   -0.42252  -0.41301  -0.40941  -0.40764  -0.40594
 Alpha  occ. eigenvalues --   -0.40375  -0.40188  -0.39816  -0.39419  -0.39216
 Alpha  occ. eigenvalues --   -0.38730  -0.38718  -0.38616  -0.38431  -0.38164
 Alpha  occ. eigenvalues --   -0.37885  -0.37521  -0.36985  -0.36621  -0.36365
 Alpha  occ. eigenvalues --   -0.35774  -0.35564  -0.35415  -0.34284  -0.33598
 Alpha  occ. eigenvalues --   -0.33293  -0.32798  -0.31823  -0.31677  -0.26758
 Alpha  occ. eigenvalues --   -0.22966
 Alpha virt. eigenvalues --   -0.06607  -0.00662   0.01883   0.03864   0.03976
 Alpha virt. eigenvalues --    0.06429   0.06858   0.07404   0.07774   0.09581
 Alpha virt. eigenvalues --    0.10502   0.11187   0.11498   0.11610   0.12614

 Mulliken charges:
               1
     1  Mg   0.983138
     2  C   -0.045848
     3  C   -0.058532
     4  C   -0.130081
     5  C   -0.092172
     6  N   -0.298029
     7  C   -0.015624
     8  C   -0.054474
     9  C   -0.144486
    10  C    0.059348
    11  C    0.033797
    12  C    0.069857
    13  C   -0.015720
    14  C    0.218594
    15  O   -0.278890
    16  O   -0.367287
    17  N   -0.518057
    18  C    0.120417
    19  C   -0.179786
    20  C   -0.046266
    21  C    0.240220
    22  C    0.112600
    23  C    0.027513
    24  O   -0.243149
    25  C   -0.021206
    26  N   -0.417577
    27  C    0.104655
    28  C   -0.104788
    29  C   -0.084171
    30  C    0.129104
    31  C    0.037489
    32  C   -0.006501
    33  C   -0.049221
    34  N   -0.401701
    35  C    0.076035
    36  C   -0.192296
    37  C   -0.035472
    38  C    0.165260
    39  C    0.080610
    40  C    0.155767
    41  O   -0.218745
    42  C   -0.092599
    43  C    0.274653
    44  O   -0.239887
    45  O   -0.401174
    46  C    0.135197
    47  C    0.259459
    48  C   -0.139016
    49  C   -0.230605
    50  C    0.048131
    51  C   -0.002136
    52  C    0.002223
    53  C   -0.018722
    54  C   -0.162936
    55  C    0.022857
    56  C    0.022543
    57  C   -0.047312
    58  C   -0.025920
    59  C   -0.186324
    60  C    0.024579
    61  C    0.014577
    62  C   -0.005998
    63  C   -0.020971
    64  C   -0.202257
    65  C   -0.019674
    66  C    0.002663
    67  H    0.012447
    68  H   -0.035935
    69  H   -0.021076
    70  H    0.029510
    71  H    0.040682
    72  H    0.038331
    73  H    0.034973
    74  H    0.052922
    75  H    0.045149
    76  H    0.043700
    77  H    0.048511
    78  H    0.049388
    79  H    0.074444
    80  H    0.015101
    81  H    0.067111
    82  H    0.074697
    83  H    0.054928
    84  H    0.055133
    85  H    0.039038
    86  H    0.033669
    87  H    0.045309
    88  H    0.041740
    89  H    0.029286
    90  H    0.046718
    91  H    0.022883
    92  H    0.030668
    93  H    0.028131
    94  H    0.045738
    95  H    0.037246
    96  H    0.059286
    97  H    0.047323
    98  H    0.069328
    99  H    0.054720
   100  H    0.070574
   101  H    0.057137
   102  H    0.054161
   103  H    0.083074
   104  H    0.031210
   105  H    0.057827
   106  H    0.043225
   107  H    0.029333
   108  H    0.028162
   109  H    0.006958
   110  H    0.023007
   111  H    0.011329
   112  H    0.019745
   113  H    0.018376
   114  H    0.016793
   115  H    0.034086
   116  H    0.017372
   117  H    0.020542
   118  H    0.016939
   119  H    0.017272
   120  H    0.014685
   121  H    0.011052
   122  H    0.014787
   123  H    0.015882
   124  H    0.008844
   125  H    0.036281
   126  H    0.020223
   127  H    0.024369
   128  H    0.013926
   129  H    0.021192
   130  H    0.017916
   131  H    0.002125
   132  H    0.018476
   133  H    0.027681
   134  H    0.016062
   135  H    0.031815
   136  H    0.029662
   137  H    0.023160
   138  H    0.021675
   139  H    0.022696
   140  H    0.033597
 Sum of Mulliken charges =  -0.00000

 Dipole moment (field-independent basis, Debye):
    X=             -0.2871    Y=              2.9157    Z=              1.7493  Tot=              3.4123
 Quadrupole moment (field-independent basis, Debye-Ang):
   XX=           -382.9377   YY=           -429.0317   ZZ=           -384.0857
   XY=             49.9549   XZ=              6.1390   YZ=             13.0599

 Normal termination of Gaussian 16 at Sat Apr 30 05:40:51 2022.
