 Gaussian 16, Revision A.03,
 Gaussian 16:  ES64L-G16RevA.03 25-Dec-2016

 --------------------
 #p ZINDO=(nstates=5)
 --------------------

 -----------------------------
 step_601_chromophore_17 ZINDO
 -----------------------------
 Symbolic Z-matrix:
 Charge =  0 Multiplicity = 1

                         Standard orientation:
 ---------------------------------------------------------------------
 Center     Atomic      Atomic             Coordinates (Angstroms)
 Number     Number       Type             X           Y           Z
 ---------------------------------------------------------------------
      1         12           0        4.130942    1.018137   -0.775989
      2          6           0        3.123631   -2.456504   -1.071093
      3          6           0        1.327874    1.824889   -2.650633
      4          6           0        4.318319    4.207114    0.393478
      5          6           0        6.305613   -0.042113    1.715134
      6          7           0        2.371037   -0.257999   -1.675280
      7          6           0        2.279005   -1.617877   -1.839864
      8          6           0        0.945733   -1.938343   -2.619419
      9          6           0        0.721951   -0.612100   -3.425136
     10          6           0        1.491995    0.373889   -2.509709
     11          6           0        1.330141   -0.620858   -4.862707
     12          6           0       -0.253545   -2.238595   -1.625928
     13          6           0       -1.024794   -3.593720   -1.805962
     14          6           0       -2.599506   -3.648430   -1.897346
     15          8           0       -3.312811   -3.143254   -2.778072
     16          8           0       -3.029776   -4.297967   -0.758459
     17          7           0        3.119375    2.748015   -1.094640
     18          6           0        2.054507    2.888677   -2.029670
     19          6           0        1.636411    4.355774   -2.077734
     20          6           0        2.564989    4.997955   -1.290787
     21          6           0        3.426383    4.018087   -0.645736
     22          6           0        0.445198    4.924159   -2.886356
     23          6           0        2.535831    6.489420   -1.065879
     24          8           0        1.724247    7.220188   -1.640745
     25          6           0        3.574391    7.216635   -0.208065
     26          7           0        5.191677    1.886118    0.853121
     27          6           0        5.030192    3.232448    1.181642
     28          6           0        5.895477    3.505126    2.483668
     29          6           0        6.825188    2.234514    2.656061
     30          6           0        6.067309    1.253392    1.757555
     31          6           0        6.612796    4.786214    2.616037
     32          6           0        7.080324    1.748320    4.099832
     33          6           0        8.522224    1.779214    4.578936
     34          7           0        4.707558   -0.805084    0.090182
     35          6           0        5.586682   -1.081681    1.060510
     36          6           0        5.785543   -2.498494    1.198063
     37          6           0        4.801509   -3.112338    0.439938
     38          6           0        4.147071   -2.041516   -0.241245
     39          6           0        6.826378   -3.043486    2.065280
     40          6           0        4.260231   -4.386674    0.051412
     41          8           0        4.708764   -5.525936    0.262938
     42          6           0        3.084132   -4.008554   -0.972134
     43          6           0        3.286200   -4.702556   -2.308582
     44          8           0        4.328763   -4.783626   -2.949160
     45          8           0        2.041349   -5.163192   -2.765656
     46          6           0        2.081945   -5.913438   -4.052102
     47          6           0       -4.508759   -4.095824   -0.554459
     48          6           0       -4.818549   -4.033837    0.912593
     49          6           0       -5.919763   -4.463970    1.511678
     50          6           0       -7.349859   -4.642274    0.955920
     51          6           0       -5.835007   -4.557141    3.052757
     52          6           0       -5.842423   -3.200419    3.841959
     53          6           0       -4.410704   -2.821738    4.105054
     54          6           0       -4.296711   -1.280294    4.188970
     55          6           0       -3.028498   -0.904433    4.941091
     56          6           0       -4.305202   -0.675434    2.702289
     57          6           0       -5.332129    0.411405    2.363191
     58          6           0       -6.289011    0.018351    1.240838
     59          6           0       -7.591972    0.954766    1.131939
     60          6           0       -8.826430    0.088744    1.018515
     61          6           0       -7.428331    2.078840    0.069562
     62          6           0       -8.136465    3.468306    0.262099
     63          6           0       -8.786560    3.873102   -1.042205
     64          6           0       -9.362188    5.326857   -1.062060
     65          6           0      -10.782679    5.520508   -0.493495
     66          6           0       -9.300054    5.950427   -2.468854
     67          1           0        0.676769    2.268021   -3.407408
     68          1           0        4.420062    5.196562    0.845458
     69          1           0        7.037790   -0.514408    2.374145
     70          1           0        0.970285   -2.735445   -3.362971
     71          1           0       -0.291277   -0.229502   -3.550215
     72          1           0        1.920662   -1.528399   -4.985101
     73          1           0        2.035039    0.207845   -4.932679
     74          1           0        0.540633   -0.540723   -5.609634
     75          1           0       -0.964630   -1.412235   -1.612639
     76          1           0        0.188701   -2.270942   -0.630502
     77          1           0       -0.756159   -4.277955   -1.000171
     78          1           0       -0.704838   -4.184802   -2.664429
     79          1           0       -0.218357    5.450155   -2.199647
     80          1           0       -0.040659    4.072638   -3.362723
     81          1           0        0.796046    5.553759   -3.703558
     82          1           0        3.479540    7.018984    0.859665
     83          1           0        3.407433    8.259241   -0.477500
     84          1           0        4.590826    6.998574   -0.535617
     85          1           0        5.207215    3.492577    3.329296
     86          1           0        7.786116    2.514195    2.224577
     87          1           0        7.424515    4.666048    3.333927
     88          1           0        5.875374    5.563060    2.817224
     89          1           0        7.041584    5.062779    1.652765
     90          1           0        6.596692    0.788911    4.283896
     91          1           0        6.574688    2.535001    4.659300
     92          1           0        8.851218    0.843480    5.030785
     93          1           0        8.493494    2.397318    5.476035
     94          1           0        9.290725    2.098916    3.874835
     95          1           0        7.751566   -2.726972    1.584713
     96          1           0        6.803740   -4.133209    2.029282
     97          1           0        6.888691   -2.602560    3.060831
     98          1           0        2.160557   -4.418803   -0.562918
     99          1           0        2.537531   -6.849491   -3.728997
    100          1           0        2.670727   -5.434384   -4.834474
    101          1           0        1.093922   -6.226154   -4.388636
    102          1           0       -4.967341   -5.068067   -0.734574
    103          1           0       -4.979630   -3.248215   -1.051582
    104          1           0       -3.986209   -4.103358    1.612908
    105          1           0       -8.131794   -4.324514    1.645746
    106          1           0       -7.458465   -5.694500    0.695128
    107          1           0       -7.348051   -4.172520   -0.028165
    108          1           0       -4.918148   -5.096376    3.291233
    109          1           0       -6.638461   -5.108922    3.539311
    110          1           0       -6.439642   -3.299238    4.748601
    111          1           0       -6.412159   -2.459644    3.280463
    112          1           0       -3.677222   -3.109445    3.352061
    113          1           0       -4.113524   -3.362491    5.003944
    114          1           0       -5.154425   -0.865396    4.718048
    115          1           0       -2.883412    0.174201    4.995433
    116          1           0       -2.175604   -1.386308    4.465359
    117          1           0       -3.081959   -1.371162    5.924268
    118          1           0       -4.548209   -1.481100    2.009771
    119          1           0       -3.367664   -0.233990    2.362651
    120          1           0       -4.841991    1.317386    2.005431
    121          1           0       -5.892853    0.704741    3.250041
    122          1           0       -6.650167   -1.008259    1.301044
    123          1           0       -5.684376    0.164626    0.345767
    124          1           0       -7.621142    1.500057    2.075771
    125          1           0       -9.079378   -0.203669   -0.001258
    126          1           0       -9.692542    0.592644    1.447299
    127          1           0       -8.644750   -0.708943    1.738735
    128          1           0       -7.724205    1.541561   -0.831651
    129          1           0       -6.371054    2.318912   -0.042039
    130          1           0       -7.537554    4.241360    0.744119
    131          1           0       -8.944419    3.460193    0.993045
    132          1           0       -9.699589    3.303596   -1.217182
    133          1           0       -8.097877    3.629045   -1.851311
    134          1           0       -8.719755    5.945017   -0.434154
    135          1           0      -11.563152    5.500038   -1.253612
    136          1           0      -10.804455    6.497438   -0.010396
    137          1           0      -11.077358    4.837963    0.304525
    138          1           0      -10.233276    6.468265   -2.692484
    139          1           0       -9.171406    5.140306   -3.186223
    140          1           0       -8.462347    6.635049   -2.604618
 ---------------------------------------------------------------------

 SCF Done:  E(RZINDO/S) =  -473.902303139     A.U. after   18 cycles

 Excitation energies and oscillator strengths:

 Excited State   1:      Singlet-A      1.3583 eV  912.78 nm  f=0.5059  <S**2>=0.000
     175 ->178         0.16300
     176 ->177         0.66816
 This state for optimization and/or second-order correction.
 Total Energy, E(CIS/TDA) =  -473.852386262
 Copying the excited state density for this state as the 1-particle RhoCI density.

 Excited State   2:      Singlet-A      1.9806 eV  625.99 nm  f=0.0059  <S**2>=0.000
     175 ->177        -0.43367
     176 ->178         0.52874

 Excited State   3:      Singlet-A      2.8083 eV  441.49 nm  f=0.0016  <S**2>=0.000
     176 ->179        -0.18108
     176 ->180         0.67090

 Excited State   4:      Singlet-A      2.8852 eV  429.72 nm  f=0.5296  <S**2>=0.000
     175 ->177         0.32663
     176 ->178         0.25782
     176 ->179         0.39324
     176 ->180         0.17521
     176 ->181         0.26754
     176 ->182        -0.16444

 Excited State   5:      Singlet-A      2.9494 eV  420.37 nm  f=0.0003  <S**2>=0.000
     168 ->177        -0.28659
     168 ->179         0.46826
     168 ->181        -0.24007
     168 ->182         0.12768
     168 ->185         0.23329
     168 ->193        -0.10118

 The electronic state is 1-A.
 Alpha  occ. eigenvalues --   -1.83124  -1.79067  -1.77699  -1.70956  -1.70132
 Alpha  occ. eigenvalues --   -1.69411  -1.65773  -1.60841  -1.59951  -1.56684
 Alpha  occ. eigenvalues --   -1.55233  -1.50699  -1.48954  -1.46340  -1.45737
 Alpha  occ. eigenvalues --   -1.44051  -1.42142  -1.41102  -1.39355  -1.38260
 Alpha  occ. eigenvalues --   -1.36197  -1.34857  -1.33684  -1.31086  -1.30072
 Alpha  occ. eigenvalues --   -1.28516  -1.26980  -1.23096  -1.22075  -1.17653
 Alpha  occ. eigenvalues --   -1.16993  -1.15160  -1.14674  -1.14147  -1.13648
 Alpha  occ. eigenvalues --   -1.12703  -1.10786  -1.09200  -1.03924  -1.03638
 Alpha  occ. eigenvalues --   -1.02792  -0.99559  -0.98492  -0.97680  -0.96320
 Alpha  occ. eigenvalues --   -0.96097  -0.94639  -0.93358  -0.93253  -0.92722
 Alpha  occ. eigenvalues --   -0.91409  -0.91153  -0.88771  -0.88029  -0.86563
 Alpha  occ. eigenvalues --   -0.85498  -0.83953  -0.83888  -0.82436  -0.80368
 Alpha  occ. eigenvalues --   -0.79466  -0.78429  -0.76871  -0.76704  -0.75828
 Alpha  occ. eigenvalues --   -0.75018  -0.74531  -0.74342  -0.73872  -0.73478
 Alpha  occ. eigenvalues --   -0.72732  -0.72586  -0.71708  -0.71491  -0.70970
 Alpha  occ. eigenvalues --   -0.70270  -0.69932  -0.69362  -0.68660  -0.68054
 Alpha  occ. eigenvalues --   -0.67091  -0.66478  -0.66069  -0.65749  -0.65549
 Alpha  occ. eigenvalues --   -0.65369  -0.65124  -0.64765  -0.64360  -0.64042
 Alpha  occ. eigenvalues --   -0.63188  -0.62849  -0.62702  -0.62509  -0.61900
 Alpha  occ. eigenvalues --   -0.61421  -0.61103  -0.60885  -0.60171  -0.60030
 Alpha  occ. eigenvalues --   -0.59423  -0.58974  -0.58827  -0.58574  -0.58320
 Alpha  occ. eigenvalues --   -0.57785  -0.57495  -0.57294  -0.57205  -0.56479
 Alpha  occ. eigenvalues --   -0.56319  -0.55555  -0.55272  -0.55068  -0.54812
 Alpha  occ. eigenvalues --   -0.53936  -0.53728  -0.53467  -0.53356  -0.53130
 Alpha  occ. eigenvalues --   -0.53033  -0.52689  -0.52561  -0.51964  -0.51591
 Alpha  occ. eigenvalues --   -0.51293  -0.51005  -0.50950  -0.50583  -0.50339
 Alpha  occ. eigenvalues --   -0.50251  -0.50072  -0.49972  -0.49545  -0.49235
 Alpha  occ. eigenvalues --   -0.48894  -0.48685  -0.48307  -0.48240  -0.47957
 Alpha  occ. eigenvalues --   -0.47823  -0.47362  -0.47194  -0.47003  -0.46797
 Alpha  occ. eigenvalues --   -0.46321  -0.46183  -0.46015  -0.45340  -0.45189
 Alpha  occ. eigenvalues --   -0.44912  -0.44739  -0.44519  -0.44216  -0.44003
 Alpha  occ. eigenvalues --   -0.43886  -0.43463  -0.42975  -0.42518  -0.42375
 Alpha  occ. eigenvalues --   -0.42180  -0.41806  -0.41730  -0.39650  -0.39302
 Alpha  occ. eigenvalues --   -0.38652  -0.37747  -0.36504  -0.35526  -0.34978
 Alpha  occ. eigenvalues --   -0.34585  -0.33110  -0.32311  -0.31783  -0.27739
 Alpha  occ. eigenvalues --   -0.21940
 Alpha virt. eigenvalues --   -0.07931  -0.03098  -0.01065  -0.00057   0.00814
 Alpha virt. eigenvalues --    0.01163   0.02291   0.02671   0.03919   0.04484
 Alpha virt. eigenvalues --    0.05854   0.06083   0.06533   0.06964   0.07305

 Mulliken charges:
               1
     1  Mg   0.444831
     2  C   -0.000727
     3  C   -0.080158
     4  C   -0.108587
     5  C   -0.058501
     6  N   -0.266505
     7  C    0.060447
     8  C    0.010886
     9  C    0.000063
    10  C    0.160157
    11  C   -0.050292
    12  C   -0.017573
    13  C   -0.001875
    14  C    0.465183
    15  O   -0.518518
    16  O   -0.260651
    17  N   -0.341173
    18  C    0.106909
    19  C    0.065729
    20  C   -0.031955
    21  C    0.177013
    22  C   -0.028304
    23  C    0.320791
    24  O   -0.520418
    25  C   -0.032794
    26  N   -0.303067
    27  C    0.168960
    28  C    0.009079
    29  C   -0.003040
    30  C    0.093647
    31  C   -0.046572
    32  C   -0.027706
    33  C   -0.058764
    34  N   -0.306146
    35  C    0.081648
    36  C    0.011219
    37  C   -0.047172
    38  C    0.066019
    39  C   -0.040303
    40  C    0.326729
    41  O   -0.520837
    42  C    0.053317
    43  C    0.481779
    44  O   -0.500644
    45  O   -0.288881
    46  C    0.069263
    47  C    0.095401
    48  C   -0.091718
    49  C   -0.008906
    50  C   -0.045861
    51  C   -0.034647
    52  C   -0.028174
    53  C   -0.025925
    54  C   -0.011755
    55  C   -0.055199
    56  C   -0.044765
    57  C   -0.032902
    58  C   -0.041190
    59  C   -0.019204
    60  C   -0.052966
    61  C   -0.036188
    62  C   -0.034164
    63  C   -0.028445
    64  C   -0.012051
    65  C   -0.052940
    66  C   -0.058552
    67  H    0.038589
    68  H    0.024583
    69  H    0.016985
    70  H    0.035034
    71  H    0.034635
    72  H    0.027078
    73  H    0.023514
    74  H    0.028161
    75  H    0.031175
    76  H    0.024395
    77  H    0.030080
    78  H    0.041052
    79  H    0.051311
    80  H    0.020523
    81  H    0.046954
    82  H    0.044421
    83  H    0.036866
    84  H    0.032787
    85  H    0.028919
    86  H    0.032185
    87  H    0.028939
    88  H    0.018282
    89  H    0.014649
    90  H    0.033283
    91  H    0.013579
    92  H    0.016461
    93  H    0.013386
    94  H    0.029754
    95  H    0.023823
    96  H    0.032313
    97  H    0.029797
    98  H    0.050035
    99  H    0.038934
   100  H    0.055943
   101  H    0.034538
   102  H    0.051434
   103  H    0.071233
   104  H    0.033158
   105  H    0.038333
   106  H    0.028970
   107  H    0.021809
   108  H    0.019091
   109  H    0.010213
   110  H    0.017385
   111  H    0.019544
   112  H    0.026249
   113  H    0.015874
   114  H    0.021976
   115  H    0.019542
   116  H    0.016524
   117  H    0.013426
   118  H    0.018557
   119  H    0.019747
   120  H    0.014131
   121  H    0.015549
   122  H    0.023837
   123  H    0.016946
   124  H    0.012501
   125  H    0.029771
   126  H    0.009101
   127  H    0.018064
   128  H    0.019509
   129  H    0.013997
   130  H    0.025878
   131  H    0.011023
   132  H    0.016582
   133  H    0.021892
   134  H    0.012709
   135  H    0.021430
   136  H    0.012562
   137  H    0.013773
   138  H    0.018703
   139  H    0.015460
   140  H    0.018188
 Sum of Mulliken charges =  -0.00000

 Dipole moment (field-independent basis, Debye):
    X=             -1.9061    Y=              5.6846    Z=              2.2834  Tot=              6.4158
 N-N= 4.521084184696D+03 E-N= 0.000000000000D+00  KE=-9.715737008945D+03
 Leave Link  601 at Sat Apr 30 05:53:36 2022, MaxMem=  6710886400 cpu:               1.0 elap:               0.1
 (Enter /sw/apps/gaussian-16.0/g16/l9999.exe)
 1\1\GINC-BP1-COMPUTE155\SP\RZINDO CIS\STO-3G\C55H74Mg1N4O6\OF15641\30-
 Apr-2022\0\\#p ZINDO=(nstates=5)\\step_601_chromophore_17 ZINDO\\0,1\M
 g,0,30.138,59.398,40.452\C,0,26.96,58.159,39.211\C,0,31.624,56.675,38.
 903\C,0,33.122,61.029,40.541\C,0,28.474,62.368,41.137\N,0,29.305,57.65
 3,39.112\C,0,28.007,57.251,38.916\C,0,28.016,55.944,38.033\C,0,29.423,
 55.341,38.372\C,0,30.162,56.639,38.787\C,0,29.417,54.31,39.544\C,0,27.
 871,56.281,36.49\C,0,26.71,55.581,35.699\C,0,26.968,54.83,34.335\O,0,2

 Normal termination of Gaussian 16 at Sat Apr 30 05:53:36 2022.
