 Gaussian 16, Revision A.03,
 Gaussian 16:  ES64L-G16RevA.03 25-Dec-2016

 ------------------------------
 #p blyp/Def2SVP td=(nstates=5)
 ------------------------------

 --------------------------------------------------
 step_451_chromophore_25 TDDFT with blyp functional
 --------------------------------------------------
 Symbolic Z-matrix:
 Charge =  0 Multiplicity = 1

                         Standard orientation:
 ---------------------------------------------------------------------
 Center     Atomic      Atomic             Coordinates (Angstroms)
 Number     Number       Type             X           Y           Z
 ---------------------------------------------------------------------
      1         12           0        5.987531    0.308370    0.314402
      2          6           0        3.475705   -2.052961   -0.048361
      3          6           0        3.549970    2.825766   -0.608874
      4          6           0        8.400101    2.659446   -0.130001
      5          6           0        8.289561   -2.037920    0.727392
      6          7           0        3.758608    0.339059   -0.315538
      7          6           0        2.940567   -0.778871   -0.327371
      8          6           0        1.476072   -0.433537   -0.653432
      9          6           0        1.602991    1.024352   -1.159100
     10          6           0        3.043560    1.457265   -0.686577
     11          6           0        1.375718    1.370099   -2.715355
     12          6           0        0.558016   -0.651481    0.659611
     13          6           0       -0.667282   -1.538837    0.448273
     14          6           0       -1.924567   -1.225027    1.199308
     15          8           0       -2.138471   -1.536222    2.387146
     16          8           0       -2.767673   -0.423435    0.523161
     17          7           0        5.909820    2.409875   -0.120845
     18          6           0        4.865159    3.198041   -0.278495
     19          6           0        5.334080    4.511900   -0.442871
     20          6           0        6.723721    4.550912   -0.420452
     21          6           0        7.080886    3.166814   -0.188409
     22          6           0        4.485370    5.795161   -0.578241
     23          6           0        7.701260    5.649039   -0.576289
     24          8           0        8.910424    5.491586   -0.275232
     25          6           0        7.281724    7.067699   -0.991475
     26          7           0        8.063282    0.281959    0.117308
     27          6           0        8.814675    1.379275    0.101950
     28          6           0       10.296977    1.063985    0.379572
     29          6           0       10.256250   -0.441271    0.781229
     30          6           0        8.793619   -0.733554    0.536972
     31          6           0       11.185279    1.257718   -0.969437
     32          6           0       10.552364   -0.773344    2.297324
     33          6           0       11.945220   -1.388690    2.624653
     34          7           0        5.897133   -1.699029    0.361633
     35          6           0        6.933966   -2.520600    0.659128
     36          6           0        6.379094   -3.890700    0.796313
     37          6           0        5.024485   -3.758496    0.592792
     38          6           0        4.774754   -2.389348    0.251848
     39          6           0        7.273946   -5.133677    0.929451
     40          6           0        3.752983   -4.421852    0.442393
     41          8           0        3.582141   -5.609795    0.549226
     42          6           0        2.727065   -3.348301    0.018357
     43          6           0        2.048978   -3.816016   -1.285170
     44          8           0        2.355894   -3.446232   -2.409807
     45          8           0        0.828262   -4.390686   -0.961374
     46          6           0       -0.079809   -4.821516   -2.078526
     47          6           0       -4.116550   -0.199844    0.994167
     48          6           0       -5.111475   -0.082804   -0.154615
     49          6           0       -5.904969   -1.073953   -0.566208
     50          6           0       -5.928331   -2.531536   -0.017657
     51          6           0       -6.953768   -0.862841   -1.552377
     52          6           0       -8.134857   -0.024933   -1.052233
     53          6           0       -8.854692    0.778609   -2.235001
     54          6           0      -10.089936   -0.082123   -2.740052
     55          6           0       -9.713708   -1.061576   -3.875906
     56          6           0      -11.240640    0.796240   -3.168608
     57          6           0      -11.959051    1.569547   -2.043867
     58          6           0      -13.340066    1.002046   -1.769701
     59          6           0      -13.480570    0.298712   -0.403287
     60          6           0      -14.426323   -0.891280   -0.527179
     61          6           0      -13.875883    1.262033    0.806733
     62          6           0      -13.456370    0.668972    2.104979
     63          6           0      -12.193812    1.357889    2.694189
     64          6           0      -12.248238    1.511067    4.242823
     65          6           0      -12.624110    2.944276    4.687634
     66          6           0      -10.924141    1.217000    4.883942
     67          1           0        2.829369    3.544240   -1.005695
     68          1           0        9.252607    3.338954   -0.181600
     69          1           0        9.016604   -2.800295    1.017395
     70          1           0        1.197596   -1.129356   -1.445247
     71          1           0        0.852727    1.557091   -0.574901
     72          1           0        2.036926    2.156275   -3.078372
     73          1           0        0.373685    1.737033   -2.935491
     74          1           0        1.495840    0.484833   -3.340751
     75          1           0        0.158837    0.289564    1.039270
     76          1           0        1.146841   -1.196861    1.397348
     77          1           0       -0.354061   -2.551791    0.699116
     78          1           0       -0.891197   -1.509576   -0.618013
     79          1           0        4.637970    6.396579    0.317447
     80          1           0        3.440693    5.553875   -0.773747
     81          1           0        4.676332    6.393355   -1.468868
     82          1           0        8.238480    7.587183   -1.034697
     83          1           0        6.529446    7.408837   -0.280252
     84          1           0        6.886579    6.924042   -1.996363
     85          1           0       10.875695    1.557023    1.161009
     86          1           0       10.758651   -1.079490    0.054388
     87          1           0       10.741027    2.000387   -1.632411
     88          1           0       11.470229    0.318560   -1.444459
     89          1           0       12.139686    1.719712   -0.714801
     90          1           0        9.780102   -1.438978    2.683976
     91          1           0       10.462914    0.104903    2.936826
     92          1           0       12.619962   -0.898471    3.326406
     93          1           0       12.548745   -1.548011    1.730014
     94          1           0       11.776845   -2.394172    3.011312
     95          1           0        7.470901   -5.380533    1.972942
     96          1           0        8.257415   -5.126926    0.460476
     97          1           0        6.620966   -5.891538    0.496650
     98          1           0        1.918434   -3.246642    0.741800
     99          1           0       -0.602280   -3.955339   -2.485000
    100          1           0       -0.876549   -5.523868   -1.836921
    101          1           0        0.543111   -5.286456   -2.842738
    102          1           0       -4.209595    0.785558    1.449877
    103          1           0       -4.447190   -0.884387    1.775123
    104          1           0       -5.242654    0.909333   -0.586424
    105          1           0       -5.868950   -3.272987   -0.813866
    106          1           0       -6.790125   -2.642309    0.640803
    107          1           0       -4.976140   -2.717840    0.478518
    108          1           0       -7.400246   -1.813737   -1.840403
    109          1           0       -6.549799   -0.384266   -2.444422
    110          1           0       -7.907545    0.721876   -0.292090
    111          1           0       -8.864407   -0.655532   -0.542662
    112          1           0       -8.105045    0.812283   -3.025075
    113          1           0       -9.024241    1.776358   -1.832025
    114          1           0      -10.545599   -0.659298   -1.936029
    115          1           0      -10.526961   -1.311825   -4.557038
    116          1           0       -9.573259   -2.022503   -3.381800
    117          1           0       -8.894461   -0.804477   -4.547117
    118          1           0      -11.919465    0.251114   -3.825713
    119          1           0      -10.876727    1.606537   -3.800605
    120          1           0      -12.031087    2.619419   -2.325577
    121          1           0      -11.418189    1.554461   -1.097801
    122          1           0      -13.891782    0.562894   -2.600546
    123          1           0      -13.956313    1.880657   -1.580630
    124          1           0      -12.537087   -0.236615   -0.304323
    125          1           0      -13.925461   -1.584018   -1.203509
    126          1           0      -15.357659   -0.596007   -1.008942
    127          1           0      -14.557191   -1.317089    0.468507
    128          1           0      -14.960257    1.365749    0.836126
    129          1           0      -13.494104    2.274195    0.678722
    130          1           0      -13.165681   -0.371046    1.960103
    131          1           0      -14.305375    0.626938    2.787776
    132          1           0      -12.032219    2.321413    2.209731
    133          1           0      -11.311054    0.750030    2.495143
    134          1           0      -13.013302    0.895445    4.716836
    135          1           0      -11.769422    3.418660    5.170795
    136          1           0      -13.466108    2.894067    5.377145
    137          1           0      -12.950322    3.539612    3.834333
    138          1           0      -10.729809    0.144193    4.864071
    139          1           0      -10.872482    1.572355    5.912605
    140          1           0      -10.150488    1.669591    4.263190
 ---------------------------------------------------------------------

 SCF Done:  E(RB-LYP) =  -3007.37098621     A.U. after   20 cycles

 Excitation energies and oscillator strengths:

 Excited State   1:      Singlet-A      1.8389 eV  674.24 nm  f=0.2957  <S**2>=0.000
     245 -> 248        0.19599
     246 -> 247        0.68342
     246 <- 247       -0.14139
 This state for optimization and/or second-order correction.
 Total Energy, E(TD-HF/TD-DFT) =  -3007.30340922
 Copying the excited state density for this state as the 1-particle RhoCI density.

 Excited State   2:      Singlet-A      1.9241 eV  644.39 nm  f=0.0040  <S**2>=0.000
     244 -> 247        0.68490
     245 -> 247        0.15977

 Excited State   3:      Singlet-A      2.0522 eV  604.16 nm  f=0.0698  <S**2>=0.000
     244 -> 247       -0.16447
     245 -> 247        0.62138
     246 -> 248       -0.24774

 Excited State   4:      Singlet-A      2.1079 eV  588.18 nm  f=0.0024  <S**2>=0.000
     243 -> 247        0.69931

 Excited State   5:      Singlet-A      2.4733 eV  501.28 nm  f=0.0005  <S**2>=0.000
     242 -> 247        0.70214

 The electronic state is 1-A.
 Alpha  occ. eigenvalues --  -46.27349 -18.82508 -18.82051 -18.77488 -18.75708
 Alpha  occ. eigenvalues --  -18.75644 -18.75159 -14.03239 -14.03010 -14.00938
 Alpha  occ. eigenvalues --  -14.00663 -10.04743 -10.03719  -9.99622  -9.99510
 Alpha  occ. eigenvalues --   -9.98445  -9.97736  -9.96866  -9.96564  -9.96192
 Alpha  occ. eigenvalues --   -9.95688  -9.95653  -9.95433  -9.95011  -9.94781
 Alpha  occ. eigenvalues --   -9.94694  -9.94343  -9.94170  -9.94058  -9.94006
 Alpha  occ. eigenvalues --   -9.93877  -9.93719  -9.93429  -9.93208  -9.93125
 Alpha  occ. eigenvalues --   -9.93053  -9.93041  -9.93026  -9.92804  -9.92789
 Alpha  occ. eigenvalues --   -9.92648  -9.92602  -9.92442  -9.92321  -9.92169
 Alpha  occ. eigenvalues --   -9.92090  -9.91896  -9.91883  -9.91800  -9.91727
 Alpha  occ. eigenvalues --   -9.91723  -9.91711  -9.91700  -9.91469  -9.91280
 Alpha  occ. eigenvalues --   -9.91242  -9.91208  -9.91177  -9.90945  -9.90942
 Alpha  occ. eigenvalues --   -9.90805  -9.90696  -9.90533  -9.90431  -9.90425
 Alpha  occ. eigenvalues --   -9.90280  -2.92024  -1.72426  -1.71927  -1.71732
 Alpha  occ. eigenvalues --   -0.98024  -0.97144  -0.92394  -0.89839  -0.89788
 Alpha  occ. eigenvalues --   -0.88283  -0.88170  -0.86869  -0.86333  -0.84476
 Alpha  occ. eigenvalues --   -0.76143  -0.74327  -0.73455  -0.72652  -0.72343
 Alpha  occ. eigenvalues --   -0.72337  -0.71405  -0.71187  -0.70349  -0.70162
 Alpha  occ. eigenvalues --   -0.69517  -0.69233  -0.68237  -0.67410  -0.67110
 Alpha  occ. eigenvalues --   -0.66605  -0.65735  -0.65246  -0.65164  -0.64488
 Alpha  occ. eigenvalues --   -0.64349  -0.62500  -0.62242  -0.61974  -0.60842
 Alpha  occ. eigenvalues --   -0.60747  -0.59884  -0.59753  -0.59697  -0.59271
 Alpha  occ. eigenvalues --   -0.58677  -0.57787  -0.56656  -0.55743  -0.54788
 Alpha  occ. eigenvalues --   -0.54326  -0.53951  -0.53319  -0.52506  -0.51967
 Alpha  occ. eigenvalues --   -0.51487  -0.51218  -0.51080  -0.50543  -0.50077
 Alpha  occ. eigenvalues --   -0.49686  -0.49167  -0.49104  -0.48522  -0.46762
 Alpha  occ. eigenvalues --   -0.46374  -0.46085  -0.45674  -0.45410  -0.44458
 Alpha  occ. eigenvalues --   -0.44047  -0.43795  -0.43118  -0.43028  -0.42575
 Alpha  occ. eigenvalues --   -0.41941  -0.41684  -0.41301  -0.41249  -0.41020
 Alpha  occ. eigenvalues --   -0.40776  -0.40697  -0.40503  -0.40252  -0.40105
 Alpha  occ. eigenvalues --   -0.39920  -0.39810  -0.39731  -0.39264  -0.39186
 Alpha  occ. eigenvalues --   -0.38959  -0.38869  -0.38531  -0.38475  -0.38418
 Alpha  occ. eigenvalues --   -0.38062  -0.37883  -0.37789  -0.37444  -0.37406
 Alpha  occ. eigenvalues --   -0.36904  -0.36834  -0.36780  -0.36566  -0.36504
 Alpha  occ. eigenvalues --   -0.36347  -0.35981  -0.35826  -0.35780  -0.35627
 Alpha  occ. eigenvalues --   -0.35334  -0.35180  -0.34937  -0.34663  -0.34598
 Alpha  occ. eigenvalues --   -0.34511  -0.34330  -0.34182  -0.34090  -0.33695
 Alpha  occ. eigenvalues --   -0.33506  -0.33485  -0.33408  -0.33337  -0.33285
 Alpha  occ. eigenvalues --   -0.33082  -0.32750  -0.32685  -0.32592  -0.32368
 Alpha  occ. eigenvalues --   -0.32320  -0.32039  -0.31847  -0.31736  -0.31601
 Alpha  occ. eigenvalues --   -0.31246  -0.31020  -0.30747  -0.30645  -0.30196
 Alpha  occ. eigenvalues --   -0.30089  -0.30048  -0.29957  -0.29879  -0.29851
 Alpha  occ. eigenvalues --   -0.29699  -0.29633  -0.29480  -0.29160  -0.29072
 Alpha  occ. eigenvalues --   -0.29051  -0.28847  -0.28710  -0.28523  -0.27948
 Alpha  occ. eigenvalues --   -0.27670  -0.27360  -0.27128  -0.26958  -0.26540
 Alpha  occ. eigenvalues --   -0.26130  -0.26062  -0.25741  -0.25556  -0.25490
 Alpha  occ. eigenvalues --   -0.25063  -0.24651  -0.24178  -0.23921  -0.23872
 Alpha  occ. eigenvalues --   -0.23493  -0.22435  -0.21941  -0.21692  -0.21172
 Alpha  occ. eigenvalues --   -0.20593  -0.20283  -0.18811  -0.18208  -0.17111
 Alpha  occ. eigenvalues --   -0.15644
 Alpha virt. eigenvalues --   -0.11203  -0.06859  -0.06164  -0.04705  -0.03892
 Alpha virt. eigenvalues --   -0.03334  -0.02957  -0.02666  -0.01199   0.00484
 Alpha virt. eigenvalues --    0.01295   0.01766   0.02008   0.02963   0.03177

 Mulliken charges:
               1
     1  Mg   0.704728
     2  C    0.080053
     3  C   -0.076646
     4  C   -0.046757
     5  C   -0.061828
     6  N   -0.195799
     7  C   -0.140079
     8  C    0.027483
     9  C    0.036745
    10  C   -0.014825
    11  C    0.109773
    12  C    0.118063
    13  C    0.130199
    14  C    0.047988
    15  O   -0.221781
    16  O   -0.246150
    17  N   -0.241443
    18  C    0.159905
    19  C   -0.161752
    20  C    0.107115
    21  C    0.088135
    22  C    0.155176
    23  C   -0.117619
    24  O   -0.199079
    25  C    0.153635
    26  N   -0.198863
    27  C    0.042136
    28  C    0.003152
    29  C    0.079977
    30  C   -0.027897
    31  C    0.089362
    32  C    0.083557
    33  C    0.054874
    34  N   -0.254570
    35  C    0.097847
    36  C   -0.186733
    37  C    0.127752
    38  C    0.021827
    39  C    0.154617
    40  C   -0.073060
    41  O   -0.106180
    42  C    0.024308
    43  C    0.148796
    44  O   -0.181140
    45  O   -0.293288
    46  C    0.213343
    47  C    0.323899
    48  C   -0.104625
    49  C   -0.137623
    50  C    0.131068
    51  C    0.169848
    52  C    0.035977
    53  C    0.107406
    54  C   -0.048163
    55  C    0.105470
    56  C    0.115593
    57  C    0.078971
    58  C    0.120317
    59  C   -0.104525
    60  C    0.098131
    61  C    0.131986
    62  C    0.078103
    63  C    0.115945
    64  C   -0.107469
    65  C    0.105113
    66  C    0.104800
    67  H   -0.053051
    68  H   -0.040768
    69  H   -0.066255
    70  H   -0.009370
    71  H   -0.031344
    72  H   -0.003615
    73  H   -0.010914
    74  H    0.004548
    75  H   -0.002160
    76  H   -0.000053
    77  H    0.009788
    78  H   -0.020723
    79  H    0.018021
    80  H   -0.029856
    81  H   -0.007852
    82  H   -0.003906
    83  H    0.013916
    84  H    0.004235
    85  H   -0.010178
    86  H   -0.018821
    87  H    0.003292
    88  H   -0.004378
    89  H   -0.016134
    90  H   -0.013933
    91  H   -0.022992
    92  H   -0.002704
    93  H   -0.016356
    94  H   -0.012395
    95  H   -0.003140
    96  H   -0.000517
    97  H    0.012753
    98  H    0.005016
    99  H    0.012941
   100  H    0.022743
   101  H    0.024670
   102  H   -0.022321
   103  H   -0.000001
   104  H   -0.042375
   105  H   -0.002823
   106  H    0.016853
   107  H   -0.008810
   108  H   -0.039692
   109  H   -0.020141
   110  H   -0.035715
   111  H   -0.037465
   112  H   -0.031742
   113  H   -0.020802
   114  H   -0.036482
   115  H   -0.031387
   116  H   -0.019729
   117  H   -0.007302
   118  H   -0.042690
   119  H   -0.053469
   120  H   -0.040685
   121  H   -0.031413
   122  H   -0.041461
   123  H   -0.062603
   124  H   -0.041452
   125  H   -0.019815
   126  H   -0.017545
   127  H   -0.019927
   128  H   -0.041347
   129  H   -0.032343
   130  H   -0.024349
   131  H   -0.030691
   132  H   -0.031283
   133  H   -0.040295
   134  H   -0.034432
   135  H   -0.018898
   136  H   -0.018487
   137  H   -0.026336
   138  H   -0.024225
   139  H   -0.013747
   140  H   -0.018360
 Sum of Mulliken charges =  -0.00000

 Dipole moment (field-independent basis, Debye):
    X=             -2.9254    Y=              2.2147    Z=             -1.3153  Tot=              3.8978
 Quadrupole moment (field-independent basis, Debye-Ang):
   XX=           -373.5714   YY=           -422.2091   ZZ=           -410.2568
   XY=             -8.1714   XZ=             18.7433   YZ=              3.5219

 Normal termination of Gaussian 16 at Fri Apr 29 20:35:58 2022.
