 Gaussian 16, Revision A.03,
 Gaussian 16:  ES64L-G16RevA.03 25-Dec-2016

 -----------------------------------
 #p cam-b3lyp/Def2SVP td=(nstates=5)
 -----------------------------------

 -------------------------------------------------------
 step_451_chromophore_25 TDDFT with cam-b3lyp functional
 -------------------------------------------------------
 Symbolic Z-matrix:
 Charge =  0 Multiplicity = 1

                         Standard orientation:
 ---------------------------------------------------------------------
 Center     Atomic      Atomic             Coordinates (Angstroms)
 Number     Number       Type             X           Y           Z
 ---------------------------------------------------------------------
      1         12           0        5.987531    0.308370    0.314402
      2          6           0        3.475705   -2.052961   -0.048361
      3          6           0        3.549970    2.825766   -0.608874
      4          6           0        8.400101    2.659446   -0.130001
      5          6           0        8.289561   -2.037920    0.727392
      6          7           0        3.758608    0.339059   -0.315538
      7          6           0        2.940567   -0.778871   -0.327371
      8          6           0        1.476072   -0.433537   -0.653432
      9          6           0        1.602991    1.024352   -1.159100
     10          6           0        3.043560    1.457265   -0.686577
     11          6           0        1.375718    1.370099   -2.715355
     12          6           0        0.558016   -0.651481    0.659611
     13          6           0       -0.667282   -1.538837    0.448273
     14          6           0       -1.924567   -1.225027    1.199308
     15          8           0       -2.138471   -1.536222    2.387146
     16          8           0       -2.767673   -0.423435    0.523161
     17          7           0        5.909820    2.409875   -0.120845
     18          6           0        4.865159    3.198041   -0.278495
     19          6           0        5.334080    4.511900   -0.442871
     20          6           0        6.723721    4.550912   -0.420452
     21          6           0        7.080886    3.166814   -0.188409
     22          6           0        4.485370    5.795161   -0.578241
     23          6           0        7.701260    5.649039   -0.576289
     24          8           0        8.910424    5.491586   -0.275232
     25          6           0        7.281724    7.067699   -0.991475
     26          7           0        8.063282    0.281959    0.117308
     27          6           0        8.814675    1.379275    0.101950
     28          6           0       10.296977    1.063985    0.379572
     29          6           0       10.256250   -0.441271    0.781229
     30          6           0        8.793619   -0.733554    0.536972
     31          6           0       11.185279    1.257718   -0.969437
     32          6           0       10.552364   -0.773344    2.297324
     33          6           0       11.945220   -1.388690    2.624653
     34          7           0        5.897133   -1.699029    0.361633
     35          6           0        6.933966   -2.520600    0.659128
     36          6           0        6.379094   -3.890700    0.796313
     37          6           0        5.024485   -3.758496    0.592792
     38          6           0        4.774754   -2.389348    0.251848
     39          6           0        7.273946   -5.133677    0.929451
     40          6           0        3.752983   -4.421852    0.442393
     41          8           0        3.582141   -5.609795    0.549226
     42          6           0        2.727065   -3.348301    0.018357
     43          6           0        2.048978   -3.816016   -1.285170
     44          8           0        2.355894   -3.446232   -2.409807
     45          8           0        0.828262   -4.390686   -0.961374
     46          6           0       -0.079809   -4.821516   -2.078526
     47          6           0       -4.116550   -0.199844    0.994167
     48          6           0       -5.111475   -0.082804   -0.154615
     49          6           0       -5.904969   -1.073953   -0.566208
     50          6           0       -5.928331   -2.531536   -0.017657
     51          6           0       -6.953768   -0.862841   -1.552377
     52          6           0       -8.134857   -0.024933   -1.052233
     53          6           0       -8.854692    0.778609   -2.235001
     54          6           0      -10.089936   -0.082123   -2.740052
     55          6           0       -9.713708   -1.061576   -3.875906
     56          6           0      -11.240640    0.796240   -3.168608
     57          6           0      -11.959051    1.569547   -2.043867
     58          6           0      -13.340066    1.002046   -1.769701
     59          6           0      -13.480570    0.298712   -0.403287
     60          6           0      -14.426323   -0.891280   -0.527179
     61          6           0      -13.875883    1.262033    0.806733
     62          6           0      -13.456370    0.668972    2.104979
     63          6           0      -12.193812    1.357889    2.694189
     64          6           0      -12.248238    1.511067    4.242823
     65          6           0      -12.624110    2.944276    4.687634
     66          6           0      -10.924141    1.217000    4.883942
     67          1           0        2.829369    3.544240   -1.005695
     68          1           0        9.252607    3.338954   -0.181600
     69          1           0        9.016604   -2.800295    1.017395
     70          1           0        1.197596   -1.129356   -1.445247
     71          1           0        0.852727    1.557091   -0.574901
     72          1           0        2.036926    2.156275   -3.078372
     73          1           0        0.373685    1.737033   -2.935491
     74          1           0        1.495840    0.484833   -3.340751
     75          1           0        0.158837    0.289564    1.039270
     76          1           0        1.146841   -1.196861    1.397348
     77          1           0       -0.354061   -2.551791    0.699116
     78          1           0       -0.891197   -1.509576   -0.618013
     79          1           0        4.637970    6.396579    0.317447
     80          1           0        3.440693    5.553875   -0.773747
     81          1           0        4.676332    6.393355   -1.468868
     82          1           0        8.238480    7.587183   -1.034697
     83          1           0        6.529446    7.408837   -0.280252
     84          1           0        6.886579    6.924042   -1.996363
     85          1           0       10.875695    1.557023    1.161009
     86          1           0       10.758651   -1.079490    0.054388
     87          1           0       10.741027    2.000387   -1.632411
     88          1           0       11.470229    0.318560   -1.444459
     89          1           0       12.139686    1.719712   -0.714801
     90          1           0        9.780102   -1.438978    2.683976
     91          1           0       10.462914    0.104903    2.936826
     92          1           0       12.619962   -0.898471    3.326406
     93          1           0       12.548745   -1.548011    1.730014
     94          1           0       11.776845   -2.394172    3.011312
     95          1           0        7.470901   -5.380533    1.972942
     96          1           0        8.257415   -5.126926    0.460476
     97          1           0        6.620966   -5.891538    0.496650
     98          1           0        1.918434   -3.246642    0.741800
     99          1           0       -0.602280   -3.955339   -2.485000
    100          1           0       -0.876549   -5.523868   -1.836921
    101          1           0        0.543111   -5.286456   -2.842738
    102          1           0       -4.209595    0.785558    1.449877
    103          1           0       -4.447190   -0.884387    1.775123
    104          1           0       -5.242654    0.909333   -0.586424
    105          1           0       -5.868950   -3.272987   -0.813866
    106          1           0       -6.790125   -2.642309    0.640803
    107          1           0       -4.976140   -2.717840    0.478518
    108          1           0       -7.400246   -1.813737   -1.840403
    109          1           0       -6.549799   -0.384266   -2.444422
    110          1           0       -7.907545    0.721876   -0.292090
    111          1           0       -8.864407   -0.655532   -0.542662
    112          1           0       -8.105045    0.812283   -3.025075
    113          1           0       -9.024241    1.776358   -1.832025
    114          1           0      -10.545599   -0.659298   -1.936029
    115          1           0      -10.526961   -1.311825   -4.557038
    116          1           0       -9.573259   -2.022503   -3.381800
    117          1           0       -8.894461   -0.804477   -4.547117
    118          1           0      -11.919465    0.251114   -3.825713
    119          1           0      -10.876727    1.606537   -3.800605
    120          1           0      -12.031087    2.619419   -2.325577
    121          1           0      -11.418189    1.554461   -1.097801
    122          1           0      -13.891782    0.562894   -2.600546
    123          1           0      -13.956313    1.880657   -1.580630
    124          1           0      -12.537087   -0.236615   -0.304323
    125          1           0      -13.925461   -1.584018   -1.203509
    126          1           0      -15.357659   -0.596007   -1.008942
    127          1           0      -14.557191   -1.317089    0.468507
    128          1           0      -14.960257    1.365749    0.836126
    129          1           0      -13.494104    2.274195    0.678722
    130          1           0      -13.165681   -0.371046    1.960103
    131          1           0      -14.305375    0.626938    2.787776
    132          1           0      -12.032219    2.321413    2.209731
    133          1           0      -11.311054    0.750030    2.495143
    134          1           0      -13.013302    0.895445    4.716836
    135          1           0      -11.769422    3.418660    5.170795
    136          1           0      -13.466108    2.894067    5.377145
    137          1           0      -12.950322    3.539612    3.834333
    138          1           0      -10.729809    0.144193    4.864071
    139          1           0      -10.872482    1.572355    5.912605
    140          1           0      -10.150488    1.669591    4.263190
 ---------------------------------------------------------------------

 SCF Done:  E(RCAM-B3LYP) =  -3007.16938618     A.U. after   16 cycles

 Excitation energies and oscillator strengths:

 Excited State   1:      Singlet-A      1.7398 eV  712.65 nm  f=0.3764  <S**2>=0.000
     245 -> 248       -0.19214
     246 -> 247        0.68217
     245 <- 248       -0.10980
 This state for optimization and/or second-order correction.
 Total Energy, E(TD-HF/TD-DFT) =  -3007.10545120
 Copying the excited state density for this state as the 1-particle RhoCI density.

 Excited State   2:      Singlet-A      2.2704 eV  546.08 nm  f=0.0903  <S**2>=0.000
     245 -> 247        0.62871
     246 -> 248        0.31426

 Excited State   3:      Singlet-A      3.5062 eV  353.61 nm  f=0.5634  <S**2>=0.000
     243 -> 247       -0.14136
     244 -> 247       -0.25531
     245 -> 247       -0.26387
     246 -> 248        0.56518
     245 <- 247        0.10138

 Excited State   4:      Singlet-A      3.5724 eV  347.07 nm  f=0.1105  <S**2>=0.000
     240 -> 247       -0.11968
     242 -> 247        0.31102
     242 -> 249       -0.10814
     242 -> 251       -0.15771
     243 -> 249       -0.19888
     244 -> 247        0.44542
     245 -> 247       -0.10715
     246 -> 248        0.20269

 Excited State   5:      Singlet-A      3.5927 eV  345.10 nm  f=0.0292  <S**2>=0.000
     239 -> 247        0.27723
     239 -> 249        0.16070
     239 -> 251       -0.12666
     240 -> 247        0.27682
     240 -> 249        0.18699
     242 -> 249       -0.19129
     243 -> 247        0.38276
     243 -> 251       -0.13470

 The electronic state is 1-A.
 Alpha  occ. eigenvalues --  -46.88883 -19.25489 -19.24968 -19.20663 -19.19141
 Alpha  occ. eigenvalues --  -19.18655 -19.18305 -14.42196 -14.41703 -14.39287
 Alpha  occ. eigenvalues --  -14.39077 -10.40322 -10.39057 -10.34925 -10.34813
 Alpha  occ. eigenvalues --  -10.32574 -10.31833 -10.31324 -10.31097 -10.30553
 Alpha  occ. eigenvalues --  -10.30045 -10.29922 -10.29757 -10.29070 -10.28842
 Alpha  occ. eigenvalues --  -10.28811 -10.28806 -10.28444 -10.28436 -10.28042
 Alpha  occ. eigenvalues --  -10.27884 -10.27625 -10.27574 -10.27500 -10.27461
 Alpha  occ. eigenvalues --  -10.27186 -10.27017 -10.26831 -10.26719 -10.26637
 Alpha  occ. eigenvalues --  -10.26495 -10.26311 -10.26173 -10.26118 -10.25991
 Alpha  occ. eigenvalues --  -10.25830 -10.25827 -10.25797 -10.25629 -10.25488
 Alpha  occ. eigenvalues --  -10.25478 -10.25475 -10.25344 -10.25125 -10.25052
 Alpha  occ. eigenvalues --  -10.25036 -10.24913 -10.24895 -10.24885 -10.24585
 Alpha  occ. eigenvalues --  -10.24562 -10.24301 -10.24094 -10.24066 -10.23996
 Alpha  occ. eigenvalues --  -10.23915  -3.17461  -1.92338  -1.91928  -1.91762
 Alpha  occ. eigenvalues --   -1.16503  -1.15727  -1.11052  -1.08117  -1.07730
 Alpha  occ. eigenvalues --   -1.06190  -1.05871  -1.04565  -1.03868  -1.02055
 Alpha  occ. eigenvalues --   -0.93403  -0.91241  -0.90296  -0.89424  -0.89059
 Alpha  occ. eigenvalues --   -0.88977  -0.87945  -0.87790  -0.87010  -0.86763
 Alpha  occ. eigenvalues --   -0.85974  -0.85564  -0.84511  -0.83557  -0.83225
 Alpha  occ. eigenvalues --   -0.82664  -0.81690  -0.81204  -0.81047  -0.80429
 Alpha  occ. eigenvalues --   -0.80165  -0.78200  -0.77834  -0.77514  -0.76257
 Alpha  occ. eigenvalues --   -0.76125  -0.75139  -0.75069  -0.74985  -0.74523
 Alpha  occ. eigenvalues --   -0.73724  -0.72814  -0.71530  -0.70573  -0.69328
 Alpha  occ. eigenvalues --   -0.69012  -0.68537  -0.67820  -0.66863  -0.65984
 Alpha  occ. eigenvalues --   -0.65756  -0.65322  -0.65044  -0.64646  -0.63843
 Alpha  occ. eigenvalues --   -0.63671  -0.63125  -0.63054  -0.62212  -0.60405
 Alpha  occ. eigenvalues --   -0.59944  -0.59618  -0.59310  -0.58790  -0.58132
 Alpha  occ. eigenvalues --   -0.57426  -0.57139  -0.56348  -0.56187  -0.55802
 Alpha  occ. eigenvalues --   -0.54965  -0.54539  -0.54284  -0.54203  -0.54072
 Alpha  occ. eigenvalues --   -0.53826  -0.53465  -0.53115  -0.53089  -0.52673
 Alpha  occ. eigenvalues --   -0.52636  -0.52537  -0.52445  -0.51976  -0.51716
 Alpha  occ. eigenvalues --   -0.51650  -0.51458  -0.51356  -0.50997  -0.50876
 Alpha  occ. eigenvalues --   -0.50398  -0.50163  -0.50118  -0.49884  -0.49725
 Alpha  occ. eigenvalues --   -0.49647  -0.49315  -0.48979  -0.48909  -0.48765
 Alpha  occ. eigenvalues --   -0.48567  -0.48216  -0.47900  -0.47855  -0.47631
 Alpha  occ. eigenvalues --   -0.47492  -0.47164  -0.46983  -0.46857  -0.46524
 Alpha  occ. eigenvalues --   -0.46436  -0.46229  -0.46208  -0.45837  -0.45616
 Alpha  occ. eigenvalues --   -0.45423  -0.45185  -0.45154  -0.45023  -0.44941
 Alpha  occ. eigenvalues --   -0.44866  -0.44426  -0.44247  -0.44222  -0.44146
 Alpha  occ. eigenvalues --   -0.43841  -0.43601  -0.43477  -0.43412  -0.43029
 Alpha  occ. eigenvalues --   -0.42860  -0.42480  -0.42145  -0.42064  -0.41724
 Alpha  occ. eigenvalues --   -0.41462  -0.41405  -0.41223  -0.41135  -0.41068
 Alpha  occ. eigenvalues --   -0.40991  -0.40918  -0.40691  -0.40648  -0.40312
 Alpha  occ. eigenvalues --   -0.40145  -0.40104  -0.39857  -0.39491  -0.38846
 Alpha  occ. eigenvalues --   -0.38575  -0.38198  -0.37944  -0.37716  -0.37615
 Alpha  occ. eigenvalues --   -0.37166  -0.37011  -0.36853  -0.36579  -0.36190
 Alpha  occ. eigenvalues --   -0.35607  -0.35442  -0.35160  -0.34902  -0.34397
 Alpha  occ. eigenvalues --   -0.34365  -0.33371  -0.33085  -0.31432  -0.30991
 Alpha  occ. eigenvalues --   -0.30720  -0.30555  -0.30477  -0.29826  -0.23803
 Alpha  occ. eigenvalues --   -0.20867
 Alpha virt. eigenvalues --   -0.08155  -0.01663   0.00316   0.01923   0.02261
 Alpha virt. eigenvalues --    0.03856   0.04284   0.04795   0.06192   0.07284
 Alpha virt. eigenvalues --    0.07779   0.08163   0.08824   0.09108   0.09464

 Mulliken charges:
               1
     1  Mg   0.836879
     2  C    0.047270
     3  C   -0.085864
     4  C   -0.062954
     5  C   -0.073512
     6  N   -0.260321
     7  C   -0.091153
     8  C   -0.020432
     9  C   -0.014190
    10  C   -0.001361
    11  C    0.054297
    12  C    0.066720
    13  C    0.061134
    14  C    0.131603
    15  O   -0.262741
    16  O   -0.310202
    17  N   -0.329883
    18  C    0.170906
    19  C   -0.168530
    20  C    0.029875
    21  C    0.114212
    22  C    0.098964
    23  C   -0.038594
    24  O   -0.242121
    25  C    0.075758
    26  N   -0.273932
    27  C    0.053903
    28  C   -0.049463
    29  C    0.022110
    30  C   -0.006043
    31  C    0.037659
    32  C    0.023182
    33  C   -0.004829
    34  N   -0.349368
    35  C    0.106024
    36  C   -0.179012
    37  C    0.050040
    38  C    0.057286
    39  C    0.104937
    40  C    0.025150
    41  O   -0.143416
    42  C   -0.046265
    43  C    0.231482
    44  O   -0.216289
    45  O   -0.359031
    46  C    0.177893
    47  C    0.286989
    48  C   -0.124836
    49  C   -0.160064
    50  C    0.072589
    51  C    0.106056
    52  C   -0.013300
    53  C    0.049642
    54  C   -0.099898
    55  C    0.045802
    56  C    0.059823
    57  C    0.025266
    58  C    0.057841
    59  C   -0.152988
    60  C    0.046385
    61  C    0.071712
    62  C    0.021394
    63  C    0.063091
    64  C   -0.164697
    65  C    0.045381
    66  C    0.041689
    67  H   -0.019149
    68  H    0.000679
    69  H   -0.031550
    70  H    0.023873
    71  H    0.003964
    72  H    0.020852
    73  H    0.013500
    74  H    0.028258
    75  H    0.028105
    76  H    0.029783
    77  H    0.039491
    78  H    0.012432
    79  H    0.042917
    80  H   -0.001644
    81  H    0.018692
    82  H    0.032150
    83  H    0.039213
    84  H    0.031258
    85  H    0.023951
    86  H    0.016116
    87  H    0.027531
    88  H    0.018588
    89  H    0.008013
    90  H    0.017381
    91  H    0.006795
    92  H    0.021229
    93  H    0.006619
    94  H    0.010275
    95  H    0.023745
    96  H    0.024945
    97  H    0.038413
    98  H    0.045639
    99  H    0.033083
   100  H    0.045774
   101  H    0.048324
   102  H    0.006210
   103  H    0.032886
   104  H   -0.008241
   105  H    0.022465
   106  H    0.040149
   107  H    0.013959
   108  H   -0.009614
   109  H    0.010036
   110  H   -0.006203
   111  H   -0.010210
   112  H   -0.004311
   113  H    0.008348
   114  H   -0.008256
   115  H   -0.004400
   116  H    0.003596
   117  H    0.016339
   118  H   -0.013394
   119  H   -0.023208
   120  H   -0.008792
   121  H   -0.005719
   122  H   -0.009734
   123  H   -0.030328
   124  H   -0.014397
   125  H    0.003958
   126  H    0.005275
   127  H    0.003910
   128  H   -0.010120
   129  H   -0.004273
   130  H    0.002461
   131  H   -0.001193
   132  H   -0.004654
   133  H   -0.011521
   134  H   -0.002795
   135  H    0.006017
   136  H    0.005813
   137  H   -0.002491
   138  H    0.001048
   139  H    0.011462
   140  H    0.005026
 Sum of Mulliken charges =  -0.00000

 Dipole moment (field-independent basis, Debye):
    X=             -3.1239    Y=              2.4128    Z=             -1.4557  Tot=              4.2071
 Quadrupole moment (field-independent basis, Debye-Ang):
   XX=           -372.4101   YY=           -417.2025   ZZ=           -410.4291
   XY=             -7.2859   XZ=             19.7088   YZ=              2.9012

 Normal termination of Gaussian 16 at Fri Apr 29 19:36:16 2022.
