 Gaussian 16, Revision A.03,
 Gaussian 16:  ES64L-G16RevA.03 25-Dec-2016

 ---------------------------------
 #p PBE1PBE/Def2SVP td=(nstates=5)
 ---------------------------------

 -----------------------------------------------------
 step_451_chromophore_25 TDDFT with PBE1PBE functional
 -----------------------------------------------------
 Symbolic Z-matrix:
 Charge =  0 Multiplicity = 1

                         Standard orientation:
 ---------------------------------------------------------------------
 Center     Atomic      Atomic             Coordinates (Angstroms)
 Number     Number       Type             X           Y           Z
 ---------------------------------------------------------------------
      1         12           0        5.987531    0.308370    0.314402
      2          6           0        3.475705   -2.052961   -0.048361
      3          6           0        3.549970    2.825766   -0.608874
      4          6           0        8.400101    2.659446   -0.130001
      5          6           0        8.289561   -2.037920    0.727392
      6          7           0        3.758608    0.339059   -0.315538
      7          6           0        2.940567   -0.778871   -0.327371
      8          6           0        1.476072   -0.433537   -0.653432
      9          6           0        1.602991    1.024352   -1.159100
     10          6           0        3.043560    1.457265   -0.686577
     11          6           0        1.375718    1.370099   -2.715355
     12          6           0        0.558016   -0.651481    0.659611
     13          6           0       -0.667282   -1.538837    0.448273
     14          6           0       -1.924567   -1.225027    1.199308
     15          8           0       -2.138471   -1.536222    2.387146
     16          8           0       -2.767673   -0.423435    0.523161
     17          7           0        5.909820    2.409875   -0.120845
     18          6           0        4.865159    3.198041   -0.278495
     19          6           0        5.334080    4.511900   -0.442871
     20          6           0        6.723721    4.550912   -0.420452
     21          6           0        7.080886    3.166814   -0.188409
     22          6           0        4.485370    5.795161   -0.578241
     23          6           0        7.701260    5.649039   -0.576289
     24          8           0        8.910424    5.491586   -0.275232
     25          6           0        7.281724    7.067699   -0.991475
     26          7           0        8.063282    0.281959    0.117308
     27          6           0        8.814675    1.379275    0.101950
     28          6           0       10.296977    1.063985    0.379572
     29          6           0       10.256250   -0.441271    0.781229
     30          6           0        8.793619   -0.733554    0.536972
     31          6           0       11.185279    1.257718   -0.969437
     32          6           0       10.552364   -0.773344    2.297324
     33          6           0       11.945220   -1.388690    2.624653
     34          7           0        5.897133   -1.699029    0.361633
     35          6           0        6.933966   -2.520600    0.659128
     36          6           0        6.379094   -3.890700    0.796313
     37          6           0        5.024485   -3.758496    0.592792
     38          6           0        4.774754   -2.389348    0.251848
     39          6           0        7.273946   -5.133677    0.929451
     40          6           0        3.752983   -4.421852    0.442393
     41          8           0        3.582141   -5.609795    0.549226
     42          6           0        2.727065   -3.348301    0.018357
     43          6           0        2.048978   -3.816016   -1.285170
     44          8           0        2.355894   -3.446232   -2.409807
     45          8           0        0.828262   -4.390686   -0.961374
     46          6           0       -0.079809   -4.821516   -2.078526
     47          6           0       -4.116550   -0.199844    0.994167
     48          6           0       -5.111475   -0.082804   -0.154615
     49          6           0       -5.904969   -1.073953   -0.566208
     50          6           0       -5.928331   -2.531536   -0.017657
     51          6           0       -6.953768   -0.862841   -1.552377
     52          6           0       -8.134857   -0.024933   -1.052233
     53          6           0       -8.854692    0.778609   -2.235001
     54          6           0      -10.089936   -0.082123   -2.740052
     55          6           0       -9.713708   -1.061576   -3.875906
     56          6           0      -11.240640    0.796240   -3.168608
     57          6           0      -11.959051    1.569547   -2.043867
     58          6           0      -13.340066    1.002046   -1.769701
     59          6           0      -13.480570    0.298712   -0.403287
     60          6           0      -14.426323   -0.891280   -0.527179
     61          6           0      -13.875883    1.262033    0.806733
     62          6           0      -13.456370    0.668972    2.104979
     63          6           0      -12.193812    1.357889    2.694189
     64          6           0      -12.248238    1.511067    4.242823
     65          6           0      -12.624110    2.944276    4.687634
     66          6           0      -10.924141    1.217000    4.883942
     67          1           0        2.829369    3.544240   -1.005695
     68          1           0        9.252607    3.338954   -0.181600
     69          1           0        9.016604   -2.800295    1.017395
     70          1           0        1.197596   -1.129356   -1.445247
     71          1           0        0.852727    1.557091   -0.574901
     72          1           0        2.036926    2.156275   -3.078372
     73          1           0        0.373685    1.737033   -2.935491
     74          1           0        1.495840    0.484833   -3.340751
     75          1           0        0.158837    0.289564    1.039270
     76          1           0        1.146841   -1.196861    1.397348
     77          1           0       -0.354061   -2.551791    0.699116
     78          1           0       -0.891197   -1.509576   -0.618013
     79          1           0        4.637970    6.396579    0.317447
     80          1           0        3.440693    5.553875   -0.773747
     81          1           0        4.676332    6.393355   -1.468868
     82          1           0        8.238480    7.587183   -1.034697
     83          1           0        6.529446    7.408837   -0.280252
     84          1           0        6.886579    6.924042   -1.996363
     85          1           0       10.875695    1.557023    1.161009
     86          1           0       10.758651   -1.079490    0.054388
     87          1           0       10.741027    2.000387   -1.632411
     88          1           0       11.470229    0.318560   -1.444459
     89          1           0       12.139686    1.719712   -0.714801
     90          1           0        9.780102   -1.438978    2.683976
     91          1           0       10.462914    0.104903    2.936826
     92          1           0       12.619962   -0.898471    3.326406
     93          1           0       12.548745   -1.548011    1.730014
     94          1           0       11.776845   -2.394172    3.011312
     95          1           0        7.470901   -5.380533    1.972942
     96          1           0        8.257415   -5.126926    0.460476
     97          1           0        6.620966   -5.891538    0.496650
     98          1           0        1.918434   -3.246642    0.741800
     99          1           0       -0.602280   -3.955339   -2.485000
    100          1           0       -0.876549   -5.523868   -1.836921
    101          1           0        0.543111   -5.286456   -2.842738
    102          1           0       -4.209595    0.785558    1.449877
    103          1           0       -4.447190   -0.884387    1.775123
    104          1           0       -5.242654    0.909333   -0.586424
    105          1           0       -5.868950   -3.272987   -0.813866
    106          1           0       -6.790125   -2.642309    0.640803
    107          1           0       -4.976140   -2.717840    0.478518
    108          1           0       -7.400246   -1.813737   -1.840403
    109          1           0       -6.549799   -0.384266   -2.444422
    110          1           0       -7.907545    0.721876   -0.292090
    111          1           0       -8.864407   -0.655532   -0.542662
    112          1           0       -8.105045    0.812283   -3.025075
    113          1           0       -9.024241    1.776358   -1.832025
    114          1           0      -10.545599   -0.659298   -1.936029
    115          1           0      -10.526961   -1.311825   -4.557038
    116          1           0       -9.573259   -2.022503   -3.381800
    117          1           0       -8.894461   -0.804477   -4.547117
    118          1           0      -11.919465    0.251114   -3.825713
    119          1           0      -10.876727    1.606537   -3.800605
    120          1           0      -12.031087    2.619419   -2.325577
    121          1           0      -11.418189    1.554461   -1.097801
    122          1           0      -13.891782    0.562894   -2.600546
    123          1           0      -13.956313    1.880657   -1.580630
    124          1           0      -12.537087   -0.236615   -0.304323
    125          1           0      -13.925461   -1.584018   -1.203509
    126          1           0      -15.357659   -0.596007   -1.008942
    127          1           0      -14.557191   -1.317089    0.468507
    128          1           0      -14.960257    1.365749    0.836126
    129          1           0      -13.494104    2.274195    0.678722
    130          1           0      -13.165681   -0.371046    1.960103
    131          1           0      -14.305375    0.626938    2.787776
    132          1           0      -12.032219    2.321413    2.209731
    133          1           0      -11.311054    0.750030    2.495143
    134          1           0      -13.013302    0.895445    4.716836
    135          1           0      -11.769422    3.418660    5.170795
    136          1           0      -13.466108    2.894067    5.377145
    137          1           0      -12.950322    3.539612    3.834333
    138          1           0      -10.729809    0.144193    4.864071
    139          1           0      -10.872482    1.572355    5.912605
    140          1           0      -10.150488    1.669591    4.263190
 ---------------------------------------------------------------------

 SCF Done:  E(RPBE1PBE) =  -3005.35689781     A.U. after   15 cycles

 Excitation energies and oscillator strengths:

 Excited State   1:      Singlet-A      1.8954 eV  654.12 nm  f=0.3653  <S**2>=0.000
     245 -> 248        0.18400
     246 -> 247        0.68908
     246 <- 247       -0.10037
 This state for optimization and/or second-order correction.
 Total Energy, E(TD-HF/TD-DFT) =  -3005.28724220
 Copying the excited state density for this state as the 1-particle RhoCI density.

 Excited State   2:      Singlet-A      2.2733 eV  545.38 nm  f=0.0930  <S**2>=0.000
     245 -> 247        0.64291
     246 -> 248       -0.28412

 Excited State   3:      Singlet-A      3.0770 eV  402.94 nm  f=0.0001  <S**2>=0.000
     243 -> 247        0.13404
     244 -> 247        0.64434
     244 -> 249       -0.15709
     244 -> 250       -0.10123

 Excited State   4:      Singlet-A      3.1347 eV  395.52 nm  f=0.0005  <S**2>=0.000
     240 -> 247       -0.16355
     242 -> 247        0.57080
     242 -> 249        0.14830
     243 -> 247        0.30206

 Excited State   5:      Singlet-A      3.2547 eV  380.93 nm  f=0.0225  <S**2>=0.000
     242 -> 247       -0.29760
     243 -> 247        0.56021
     244 -> 247       -0.15891
     246 -> 248       -0.20604

 The electronic state is 1-A.
 Alpha  occ. eigenvalues --  -46.92284 -19.26119 -19.25626 -19.20841 -19.19230
 Alpha  occ. eigenvalues --  -19.18943 -19.18610 -14.41687 -14.41214 -14.38970
 Alpha  occ. eigenvalues --  -14.38681 -10.37320 -10.36069 -10.32001 -10.31963
 Alpha  occ. eigenvalues --  -10.29760 -10.29217 -10.29151 -10.28854 -10.28262
 Alpha  occ. eigenvalues --  -10.27733 -10.27658 -10.27496 -10.26777 -10.26632
 Alpha  occ. eigenvalues --  -10.26617 -10.26399 -10.26086 -10.26083 -10.25758
 Alpha  occ. eigenvalues --  -10.25668 -10.25442 -10.25263 -10.25230 -10.25163
 Alpha  occ. eigenvalues --  -10.24828 -10.24514 -10.24480 -10.24363 -10.24171
 Alpha  occ. eigenvalues --  -10.23984 -10.23883 -10.23692 -10.23587 -10.23514
 Alpha  occ. eigenvalues --  -10.23455 -10.23365 -10.23292 -10.23192 -10.23183
 Alpha  occ. eigenvalues --  -10.23086 -10.22929 -10.22875 -10.22779 -10.22775
 Alpha  occ. eigenvalues --  -10.22663 -10.22462 -10.22450 -10.22304 -10.22116
 Alpha  occ. eigenvalues --  -10.22088 -10.21681 -10.21618 -10.21484 -10.21464
 Alpha  occ. eigenvalues --  -10.21382  -3.14441  -1.87258  -1.86826  -1.86664
 Alpha  occ. eigenvalues --   -1.11321  -1.10433  -1.05703  -1.02865  -1.02520
 Alpha  occ. eigenvalues --   -1.01025  -1.00540  -0.99235  -0.98609  -0.96653
 Alpha  occ. eigenvalues --   -0.87724  -0.85384  -0.84383  -0.83605  -0.83314
 Alpha  occ. eigenvalues --   -0.83177  -0.82306  -0.81904  -0.81327  -0.81073
 Alpha  occ. eigenvalues --   -0.80314  -0.79816  -0.78686  -0.77822  -0.77460
 Alpha  occ. eigenvalues --   -0.76928  -0.75940  -0.75399  -0.75304  -0.74681
 Alpha  occ. eigenvalues --   -0.74337  -0.72475  -0.72112  -0.71806  -0.70532
 Alpha  occ. eigenvalues --   -0.70288  -0.69468  -0.69183  -0.69125  -0.68696
 Alpha  occ. eigenvalues --   -0.68047  -0.67250  -0.65983  -0.64885  -0.63678
 Alpha  occ. eigenvalues --   -0.63462  -0.62772  -0.62318  -0.61077  -0.60425
 Alpha  occ. eigenvalues --   -0.59938  -0.59814  -0.59597  -0.59201  -0.58355
 Alpha  occ. eigenvalues --   -0.57778  -0.57303  -0.57219  -0.56800  -0.54925
 Alpha  occ. eigenvalues --   -0.54297  -0.54221  -0.53824  -0.53428  -0.52485
 Alpha  occ. eigenvalues --   -0.52055  -0.51577  -0.50803  -0.50718  -0.50340
 Alpha  occ. eigenvalues --   -0.49515  -0.49058  -0.48801  -0.48746  -0.48550
 Alpha  occ. eigenvalues --   -0.48381  -0.47956  -0.47694  -0.47552  -0.47201
 Alpha  occ. eigenvalues --   -0.47101  -0.46995  -0.46909  -0.46582  -0.46277
 Alpha  occ. eigenvalues --   -0.46132  -0.45973  -0.45897  -0.45549  -0.45485
 Alpha  occ. eigenvalues --   -0.44940  -0.44692  -0.44679  -0.44417  -0.44289
 Alpha  occ. eigenvalues --   -0.44230  -0.43851  -0.43584  -0.43495  -0.43382
 Alpha  occ. eigenvalues --   -0.43085  -0.42903  -0.42559  -0.42486  -0.42287
 Alpha  occ. eigenvalues --   -0.42164  -0.41760  -0.41638  -0.41522  -0.41167
 Alpha  occ. eigenvalues --   -0.41094  -0.40944  -0.40893  -0.40514  -0.40338
 Alpha  occ. eigenvalues --   -0.40137  -0.39915  -0.39818  -0.39740  -0.39692
 Alpha  occ. eigenvalues --   -0.39562  -0.39226  -0.38971  -0.38881  -0.38785
 Alpha  occ. eigenvalues --   -0.38624  -0.38370  -0.38293  -0.38204  -0.37791
 Alpha  occ. eigenvalues --   -0.37612  -0.37270  -0.37016  -0.36903  -0.36490
 Alpha  occ. eigenvalues --   -0.36318  -0.36230  -0.36103  -0.35913  -0.35898
 Alpha  occ. eigenvalues --   -0.35815  -0.35739  -0.35514  -0.35485  -0.35187
 Alpha  occ. eigenvalues --   -0.35047  -0.34844  -0.34784  -0.34302  -0.33617
 Alpha  occ. eigenvalues --   -0.33549  -0.33056  -0.32680  -0.32642  -0.32533
 Alpha  occ. eigenvalues --   -0.32063  -0.32033  -0.31687  -0.31651  -0.31120
 Alpha  occ. eigenvalues --   -0.30497  -0.30389  -0.30032  -0.29813  -0.29517
 Alpha  occ. eigenvalues --   -0.29289  -0.28656  -0.28136  -0.26924  -0.26314
 Alpha  occ. eigenvalues --   -0.25994  -0.25697  -0.25578  -0.25179  -0.20757
 Alpha  occ. eigenvalues --   -0.18530
 Alpha virt. eigenvalues --   -0.10697  -0.05165  -0.03886  -0.02142  -0.00999
 Alpha virt. eigenvalues --   -0.00546  -0.00213   0.00288   0.01756   0.03555
 Alpha virt. eigenvalues --    0.04195   0.04567   0.04822   0.05868   0.06159

 Mulliken charges:
               1
     1  Mg   0.980263
     2  C    0.028754
     3  C   -0.083092
     4  C   -0.042671
     5  C   -0.066672
     6  N   -0.357685
     7  C   -0.010761
     8  C   -0.087747
     9  C   -0.087673
    10  C    0.038717
    11  C   -0.003511
    12  C    0.016404
    13  C   -0.018468
    14  C    0.202116
    15  O   -0.296221
    16  O   -0.342498
    17  N   -0.449200
    18  C    0.206046
    19  C   -0.203067
    20  C   -0.020396
    21  C    0.148036
    22  C    0.042079
    23  C    0.011155
    24  O   -0.277044
    25  C   -0.000507
    26  N   -0.381927
    27  C    0.076558
    28  C   -0.123414
    29  C   -0.049375
    30  C    0.027084
    31  C   -0.015692
    32  C   -0.036591
    33  C   -0.074023
    34  N   -0.484570
    35  C    0.135484
    36  C   -0.198019
    37  C   -0.005436
    38  C    0.108078
    39  C    0.052104
    40  C    0.128500
    41  O   -0.192417
    42  C   -0.155736
    43  C    0.316467
    44  O   -0.250120
    45  O   -0.389851
    46  C    0.123489
    47  C    0.243947
    48  C   -0.136408
    49  C   -0.195628
    50  C    0.005255
    51  C    0.038795
    52  C   -0.070198
    53  C   -0.006855
    54  C   -0.193744
    55  C   -0.008737
    56  C    0.007729
    57  C   -0.038437
    58  C    0.004653
    59  C   -0.242150
    60  C   -0.013694
    61  C    0.013633
    62  C   -0.039916
    63  C    0.009360
    64  C   -0.254330
    65  C   -0.012689
    66  C   -0.026345
    67  H    0.012551
    68  H    0.032013
    69  H    0.001539
    70  H    0.064284
    71  H    0.041836
    72  H    0.047940
    73  H    0.040975
    74  H    0.055355
    75  H    0.059586
    76  H    0.063206
    77  H    0.074151
    78  H    0.045742
    79  H    0.070729
    80  H    0.026630
    81  H    0.046003
    82  H    0.059577
    83  H    0.065762
    84  H    0.059315
    85  H    0.059293
    86  H    0.051561
    87  H    0.054743
    88  H    0.045143
    89  H    0.036004
    90  H    0.050884
    91  H    0.039061
    92  H    0.048249
    93  H    0.034214
    94  H    0.038000
    95  H    0.051830
    96  H    0.050205
    97  H    0.066469
    98  H    0.085250
    99  H    0.054556
   100  H    0.066954
   101  H    0.069121
   102  H    0.034046
   103  H    0.057937
   104  H    0.021033
   105  H    0.050017
   106  H    0.067772
   107  H    0.042908
   108  H    0.024155
   109  H    0.042024
   110  H    0.025947
   111  H    0.022184
   112  H    0.028794
   113  H    0.038969
   114  H    0.033395
   115  H    0.022750
   116  H    0.030648
   117  H    0.042214
   118  H    0.018012
   119  H    0.011114
   120  H    0.023698
   121  H    0.027730
   122  H    0.020596
   123  H    0.005833
   124  H    0.026748
   125  H    0.032987
   126  H    0.033300
   127  H    0.032278
   128  H    0.023083
   129  H    0.026937
   130  H    0.035153
   131  H    0.030325
   132  H    0.025874
   133  H    0.021366
   134  H    0.034211
   135  H    0.033083
   136  H    0.033446
   137  H    0.025244
   138  H    0.030632
   139  H    0.039734
   140  H    0.033902
 Sum of Mulliken charges =  -0.00000

 Dipole moment (field-independent basis, Debye):
    X=             -3.0511    Y=              2.5069    Z=             -1.4890  Tot=              4.2203
 Quadrupole moment (field-independent basis, Debye-Ang):
   XX=           -364.9383   YY=           -414.7473   ZZ=           -407.8307
   XY=             -7.6423   XZ=             20.4160   YZ=              2.6492

 Normal termination of Gaussian 16 at Fri Apr 29 19:56:02 2022.
