 Gaussian 16, Revision A.03,
 Gaussian 16:  ES64L-G16RevA.03 25-Dec-2016

 --------------------------------
 #p wB97XD/Def2SVP td=(nstates=5)
 --------------------------------

 ----------------------------------------------------
 step_451_chromophore_25 TDDFT with wB97XD functional
 ----------------------------------------------------
 Symbolic Z-matrix:
 Charge =  0 Multiplicity = 1

                         Standard orientation:
 ---------------------------------------------------------------------
 Center     Atomic      Atomic             Coordinates (Angstroms)
 Number     Number       Type             X           Y           Z
 ---------------------------------------------------------------------
      1         12           0        5.987531    0.308370    0.314402
      2          6           0        3.475705   -2.052961   -0.048361
      3          6           0        3.549970    2.825766   -0.608874
      4          6           0        8.400101    2.659446   -0.130001
      5          6           0        8.289561   -2.037920    0.727392
      6          7           0        3.758608    0.339059   -0.315538
      7          6           0        2.940567   -0.778871   -0.327371
      8          6           0        1.476072   -0.433537   -0.653432
      9          6           0        1.602991    1.024352   -1.159100
     10          6           0        3.043560    1.457265   -0.686577
     11          6           0        1.375718    1.370099   -2.715355
     12          6           0        0.558016   -0.651481    0.659611
     13          6           0       -0.667282   -1.538837    0.448273
     14          6           0       -1.924567   -1.225027    1.199308
     15          8           0       -2.138471   -1.536222    2.387146
     16          8           0       -2.767673   -0.423435    0.523161
     17          7           0        5.909820    2.409875   -0.120845
     18          6           0        4.865159    3.198041   -0.278495
     19          6           0        5.334080    4.511900   -0.442871
     20          6           0        6.723721    4.550912   -0.420452
     21          6           0        7.080886    3.166814   -0.188409
     22          6           0        4.485370    5.795161   -0.578241
     23          6           0        7.701260    5.649039   -0.576289
     24          8           0        8.910424    5.491586   -0.275232
     25          6           0        7.281724    7.067699   -0.991475
     26          7           0        8.063282    0.281959    0.117308
     27          6           0        8.814675    1.379275    0.101950
     28          6           0       10.296977    1.063985    0.379572
     29          6           0       10.256250   -0.441271    0.781229
     30          6           0        8.793619   -0.733554    0.536972
     31          6           0       11.185279    1.257718   -0.969437
     32          6           0       10.552364   -0.773344    2.297324
     33          6           0       11.945220   -1.388690    2.624653
     34          7           0        5.897133   -1.699029    0.361633
     35          6           0        6.933966   -2.520600    0.659128
     36          6           0        6.379094   -3.890700    0.796313
     37          6           0        5.024485   -3.758496    0.592792
     38          6           0        4.774754   -2.389348    0.251848
     39          6           0        7.273946   -5.133677    0.929451
     40          6           0        3.752983   -4.421852    0.442393
     41          8           0        3.582141   -5.609795    0.549226
     42          6           0        2.727065   -3.348301    0.018357
     43          6           0        2.048978   -3.816016   -1.285170
     44          8           0        2.355894   -3.446232   -2.409807
     45          8           0        0.828262   -4.390686   -0.961374
     46          6           0       -0.079809   -4.821516   -2.078526
     47          6           0       -4.116550   -0.199844    0.994167
     48          6           0       -5.111475   -0.082804   -0.154615
     49          6           0       -5.904969   -1.073953   -0.566208
     50          6           0       -5.928331   -2.531536   -0.017657
     51          6           0       -6.953768   -0.862841   -1.552377
     52          6           0       -8.134857   -0.024933   -1.052233
     53          6           0       -8.854692    0.778609   -2.235001
     54          6           0      -10.089936   -0.082123   -2.740052
     55          6           0       -9.713708   -1.061576   -3.875906
     56          6           0      -11.240640    0.796240   -3.168608
     57          6           0      -11.959051    1.569547   -2.043867
     58          6           0      -13.340066    1.002046   -1.769701
     59          6           0      -13.480570    0.298712   -0.403287
     60          6           0      -14.426323   -0.891280   -0.527179
     61          6           0      -13.875883    1.262033    0.806733
     62          6           0      -13.456370    0.668972    2.104979
     63          6           0      -12.193812    1.357889    2.694189
     64          6           0      -12.248238    1.511067    4.242823
     65          6           0      -12.624110    2.944276    4.687634
     66          6           0      -10.924141    1.217000    4.883942
     67          1           0        2.829369    3.544240   -1.005695
     68          1           0        9.252607    3.338954   -0.181600
     69          1           0        9.016604   -2.800295    1.017395
     70          1           0        1.197596   -1.129356   -1.445247
     71          1           0        0.852727    1.557091   -0.574901
     72          1           0        2.036926    2.156275   -3.078372
     73          1           0        0.373685    1.737033   -2.935491
     74          1           0        1.495840    0.484833   -3.340751
     75          1           0        0.158837    0.289564    1.039270
     76          1           0        1.146841   -1.196861    1.397348
     77          1           0       -0.354061   -2.551791    0.699116
     78          1           0       -0.891197   -1.509576   -0.618013
     79          1           0        4.637970    6.396579    0.317447
     80          1           0        3.440693    5.553875   -0.773747
     81          1           0        4.676332    6.393355   -1.468868
     82          1           0        8.238480    7.587183   -1.034697
     83          1           0        6.529446    7.408837   -0.280252
     84          1           0        6.886579    6.924042   -1.996363
     85          1           0       10.875695    1.557023    1.161009
     86          1           0       10.758651   -1.079490    0.054388
     87          1           0       10.741027    2.000387   -1.632411
     88          1           0       11.470229    0.318560   -1.444459
     89          1           0       12.139686    1.719712   -0.714801
     90          1           0        9.780102   -1.438978    2.683976
     91          1           0       10.462914    0.104903    2.936826
     92          1           0       12.619962   -0.898471    3.326406
     93          1           0       12.548745   -1.548011    1.730014
     94          1           0       11.776845   -2.394172    3.011312
     95          1           0        7.470901   -5.380533    1.972942
     96          1           0        8.257415   -5.126926    0.460476
     97          1           0        6.620966   -5.891538    0.496650
     98          1           0        1.918434   -3.246642    0.741800
     99          1           0       -0.602280   -3.955339   -2.485000
    100          1           0       -0.876549   -5.523868   -1.836921
    101          1           0        0.543111   -5.286456   -2.842738
    102          1           0       -4.209595    0.785558    1.449877
    103          1           0       -4.447190   -0.884387    1.775123
    104          1           0       -5.242654    0.909333   -0.586424
    105          1           0       -5.868950   -3.272987   -0.813866
    106          1           0       -6.790125   -2.642309    0.640803
    107          1           0       -4.976140   -2.717840    0.478518
    108          1           0       -7.400246   -1.813737   -1.840403
    109          1           0       -6.549799   -0.384266   -2.444422
    110          1           0       -7.907545    0.721876   -0.292090
    111          1           0       -8.864407   -0.655532   -0.542662
    112          1           0       -8.105045    0.812283   -3.025075
    113          1           0       -9.024241    1.776358   -1.832025
    114          1           0      -10.545599   -0.659298   -1.936029
    115          1           0      -10.526961   -1.311825   -4.557038
    116          1           0       -9.573259   -2.022503   -3.381800
    117          1           0       -8.894461   -0.804477   -4.547117
    118          1           0      -11.919465    0.251114   -3.825713
    119          1           0      -10.876727    1.606537   -3.800605
    120          1           0      -12.031087    2.619419   -2.325577
    121          1           0      -11.418189    1.554461   -1.097801
    122          1           0      -13.891782    0.562894   -2.600546
    123          1           0      -13.956313    1.880657   -1.580630
    124          1           0      -12.537087   -0.236615   -0.304323
    125          1           0      -13.925461   -1.584018   -1.203509
    126          1           0      -15.357659   -0.596007   -1.008942
    127          1           0      -14.557191   -1.317089    0.468507
    128          1           0      -14.960257    1.365749    0.836126
    129          1           0      -13.494104    2.274195    0.678722
    130          1           0      -13.165681   -0.371046    1.960103
    131          1           0      -14.305375    0.626938    2.787776
    132          1           0      -12.032219    2.321413    2.209731
    133          1           0      -11.311054    0.750030    2.495143
    134          1           0      -13.013302    0.895445    4.716836
    135          1           0      -11.769422    3.418660    5.170795
    136          1           0      -13.466108    2.894067    5.377145
    137          1           0      -12.950322    3.539612    3.834333
    138          1           0      -10.729809    0.144193    4.864071
    139          1           0      -10.872482    1.572355    5.912605
    140          1           0      -10.150488    1.669591    4.263190
 ---------------------------------------------------------------------

 SCF Done:  E(RwB97XD) =  -3007.86638976     A.U. after   17 cycles

 Excitation energies and oscillator strengths:

 Excited State   1:      Singlet-A      1.6811 eV  737.51 nm  f=0.3740  <S**2>=0.000
     245 -> 248        0.19790
     246 -> 247        0.68005
     245 <- 248        0.11936
 This state for optimization and/or second-order correction.
 Total Energy, E(TD-HF/TD-DFT) =  -3007.80460943
 Copying the excited state density for this state as the 1-particle RhoCI density.

 Excited State   2:      Singlet-A      2.2143 eV  559.94 nm  f=0.0883  <S**2>=0.000
     245 -> 247        0.62741
     246 -> 248       -0.31566

 Excited State   3:      Singlet-A      3.5199 eV  352.24 nm  f=0.6059  <S**2>=0.000
     242 -> 247        0.14420
     244 -> 247        0.23119
     245 -> 247        0.26835
     246 -> 248        0.57423
     245 <- 247       -0.10906

 Excited State   4:      Singlet-A      3.5861 eV  345.74 nm  f=0.0745  <S**2>=0.000
     242 -> 247       -0.27647
     243 -> 247        0.12628
     243 -> 248       -0.11215
     243 -> 249        0.24052
     243 -> 250        0.17305
     244 -> 247        0.44523
     244 -> 249        0.10943
     246 -> 248       -0.16398

 Excited State   5:      Singlet-A      3.6069 eV  343.74 nm  f=0.0272  <S**2>=0.000
     239 -> 247        0.18355
     239 -> 249       -0.11838
     239 -> 250        0.10263
     240 -> 247        0.27285
     240 -> 249       -0.19429
     240 -> 250        0.12475
     242 -> 247        0.28228
     242 -> 249       -0.20047
     243 -> 247        0.30617
     243 -> 249        0.12893
     243 -> 250        0.15056

 The electronic state is 1-A.
 Alpha  occ. eigenvalues --  -46.95226 -19.30730 -19.30226 -19.25610 -19.24197
 Alpha  occ. eigenvalues --  -19.23649 -19.23330 -14.46817 -14.46253 -14.43875
 Alpha  occ. eigenvalues --  -14.43648 -10.44201 -10.42897 -10.38937 -10.38772
 Alpha  occ. eigenvalues --  -10.36330 -10.35743 -10.35377 -10.35144 -10.34547
 Alpha  occ. eigenvalues --  -10.34097 -10.33920 -10.33803 -10.33061 -10.32910
 Alpha  occ. eigenvalues --  -10.32891 -10.32862 -10.32601 -10.32432 -10.32033
 Alpha  occ. eigenvalues --  -10.31931 -10.31707 -10.31626 -10.31622 -10.31582
 Alpha  occ. eigenvalues --  -10.31177 -10.30940 -10.30794 -10.30695 -10.30662
 Alpha  occ. eigenvalues --  -10.30350 -10.30166 -10.30153 -10.30014 -10.29879
 Alpha  occ. eigenvalues --  -10.29855 -10.29793 -10.29671 -10.29566 -10.29455
 Alpha  occ. eigenvalues --  -10.29430 -10.29298 -10.29262 -10.29097 -10.29073
 Alpha  occ. eigenvalues --  -10.29047 -10.28833 -10.28806 -10.28741 -10.28496
 Alpha  occ. eigenvalues --  -10.28459 -10.28129 -10.27991 -10.27897 -10.27839
 Alpha  occ. eigenvalues --  -10.27794  -3.21242  -1.94808  -1.94378  -1.94209
 Alpha  occ. eigenvalues --   -1.18726  -1.17896  -1.13304  -1.10303  -1.09942
 Alpha  occ. eigenvalues --   -1.08409  -1.07869  -1.06608  -1.05912  -1.04064
 Alpha  occ. eigenvalues --   -0.95408  -0.93054  -0.92048  -0.91271  -0.90864
 Alpha  occ. eigenvalues --   -0.90835  -0.89845  -0.89560  -0.88959  -0.88710
 Alpha  occ. eigenvalues --   -0.87924  -0.87455  -0.86341  -0.85467  -0.85108
 Alpha  occ. eigenvalues --   -0.84540  -0.83583  -0.83089  -0.82960  -0.82357
 Alpha  occ. eigenvalues --   -0.82009  -0.80140  -0.79750  -0.79438  -0.78174
 Alpha  occ. eigenvalues --   -0.77974  -0.77051  -0.76863  -0.76809  -0.76353
 Alpha  occ. eigenvalues --   -0.75651  -0.74806  -0.73505  -0.72505  -0.71227
 Alpha  occ. eigenvalues --   -0.71020  -0.70407  -0.69821  -0.68724  -0.67888
 Alpha  occ. eigenvalues --   -0.67592  -0.67282  -0.67056  -0.66653  -0.65832
 Alpha  occ. eigenvalues --   -0.65468  -0.64946  -0.64870  -0.64229  -0.62364
 Alpha  occ. eigenvalues --   -0.61842  -0.61622  -0.61294  -0.60781  -0.60090
 Alpha  occ. eigenvalues --   -0.59439  -0.59053  -0.58245  -0.58165  -0.57749
 Alpha  occ. eigenvalues --   -0.56917  -0.56456  -0.56222  -0.56161  -0.55982
 Alpha  occ. eigenvalues --   -0.55756  -0.55360  -0.55050  -0.54970  -0.54590
 Alpha  occ. eigenvalues --   -0.54506  -0.54455  -0.54335  -0.53912  -0.53610
 Alpha  occ. eigenvalues --   -0.53526  -0.53411  -0.53279  -0.52882  -0.52794
 Alpha  occ. eigenvalues --   -0.52279  -0.52066  -0.52035  -0.51756  -0.51710
 Alpha  occ. eigenvalues --   -0.51549  -0.51242  -0.50884  -0.50805  -0.50685
 Alpha  occ. eigenvalues --   -0.50425  -0.50152  -0.49801  -0.49762  -0.49530
 Alpha  occ. eigenvalues --   -0.49433  -0.49030  -0.48899  -0.48755  -0.48476
 Alpha  occ. eigenvalues --   -0.48330  -0.48142  -0.48126  -0.47716  -0.47569
 Alpha  occ. eigenvalues --   -0.47362  -0.47088  -0.46979  -0.46970  -0.46848
 Alpha  occ. eigenvalues --   -0.46755  -0.46382  -0.46184  -0.46093  -0.45996
 Alpha  occ. eigenvalues --   -0.45744  -0.45504  -0.45400  -0.45333  -0.44933
 Alpha  occ. eigenvalues --   -0.44756  -0.44385  -0.44103  -0.43986  -0.43648
 Alpha  occ. eigenvalues --   -0.43424  -0.43316  -0.43133  -0.43006  -0.42962
 Alpha  occ. eigenvalues --   -0.42842  -0.42823  -0.42585  -0.42573  -0.42206
 Alpha  occ. eigenvalues --   -0.42035  -0.41946  -0.41747  -0.41327  -0.40676
 Alpha  occ. eigenvalues --   -0.40471  -0.40052  -0.39764  -0.39566  -0.39554
 Alpha  occ. eigenvalues --   -0.39179  -0.38946  -0.38715  -0.38672  -0.38099
 Alpha  occ. eigenvalues --   -0.37441  -0.37410  -0.37006  -0.36874  -0.36384
 Alpha  occ. eigenvalues --   -0.36212  -0.35352  -0.35294  -0.33579  -0.33098
 Alpha  occ. eigenvalues --   -0.32750  -0.32644  -0.32453  -0.31985  -0.25724
 Alpha  occ. eigenvalues --   -0.22681
 Alpha virt. eigenvalues --   -0.06507   0.00237   0.02392   0.04345   0.05058
 Alpha virt. eigenvalues --    0.06097   0.06457   0.07013   0.08551   0.10182
 Alpha virt. eigenvalues --    0.10602   0.11185   0.11606   0.12617   0.12899

 Mulliken charges:
               1
     1  Mg   0.972790
     2  C    0.029770
     3  C   -0.095823
     4  C   -0.066727
     5  C   -0.086116
     6  N   -0.324589
     7  C   -0.043623
     8  C   -0.063193
     9  C   -0.063275
    10  C    0.021325
    11  C    0.007924
    12  C    0.026875
    13  C    0.002102
    14  C    0.190529
    15  O   -0.292668
    16  O   -0.340601
    17  N   -0.414290
    18  C    0.191771
    19  C   -0.189308
    20  C   -0.015208
    21  C    0.138242
    22  C    0.053973
    23  C    0.006313
    24  O   -0.272578
    25  C    0.014442
    26  N   -0.347313
    27  C    0.070301
    28  C   -0.102665
    29  C   -0.027243
    30  C    0.021160
    31  C   -0.004897
    32  C   -0.022816
    33  C   -0.058380
    34  N   -0.444290
    35  C    0.123798
    36  C   -0.193349
    37  C    0.002771
    38  C    0.089894
    39  C    0.062093
    40  C    0.107781
    41  O   -0.181217
    42  C   -0.111685
    43  C    0.290724
    44  O   -0.243595
    45  O   -0.388575
    46  C    0.139214
    47  C    0.256476
    48  C   -0.147640
    49  C   -0.184354
    50  C    0.022216
    51  C    0.059542
    52  C   -0.055482
    53  C    0.007778
    54  C   -0.157073
    55  C   -0.000273
    56  C    0.022403
    57  C   -0.019608
    58  C    0.015795
    59  C   -0.203728
    60  C   -0.000892
    61  C    0.028656
    62  C   -0.024686
    63  C    0.024312
    64  C   -0.226519
    65  C   -0.002344
    66  C   -0.010748
    67  H    0.006093
    68  H    0.027507
    69  H   -0.005337
    70  H    0.048167
    71  H    0.031177
    72  H    0.041533
    73  H    0.035579
    74  H    0.049982
    75  H    0.052860
    76  H    0.053902
    77  H    0.064427
    78  H    0.038580
    79  H    0.065185
    80  H    0.021790
    81  H    0.039833
    82  H    0.058310
    83  H    0.059709
    84  H    0.053070
    85  H    0.050853
    86  H    0.040454
    87  H    0.048314
    88  H    0.039370
    89  H    0.030044
    90  H    0.040792
    91  H    0.032081
    92  H    0.043301
    93  H    0.027318
    94  H    0.031586
    95  H    0.047429
    96  H    0.046363
    97  H    0.061846
    98  H    0.073152
    99  H    0.050393
   100  H    0.063997
   101  H    0.065169
   102  H    0.030075
   103  H    0.053328
   104  H    0.019230
   105  H    0.044780
   106  H    0.062566
   107  H    0.035223
   108  H    0.013734
   109  H    0.033341
   110  H    0.017652
   111  H    0.012662
   112  H    0.017106
   113  H    0.032992
   114  H    0.015071
   115  H    0.017543
   116  H    0.024557
   117  H    0.037093
   118  H    0.008406
   119  H    0.001902
   120  H    0.017970
   121  H    0.013462
   122  H    0.013768
   123  H   -0.005108
   124  H    0.006957
   125  H    0.026285
   126  H    0.026434
   127  H    0.025544
   128  H    0.015405
   129  H    0.017180
   130  H    0.024223
   131  H    0.023117
   132  H    0.015458
   133  H    0.012313
   134  H    0.023642
   135  H    0.026702
   136  H    0.028320
   137  H    0.018534
   138  H    0.024347
   139  H    0.033767
   140  H    0.025988
 Sum of Mulliken charges =  -0.00000

 Dipole moment (field-independent basis, Debye):
    X=             -3.1725    Y=              2.4488    Z=             -1.4812  Tot=              4.2726
 Quadrupole moment (field-independent basis, Debye-Ang):
   XX=           -366.7968   YY=           -412.7436   ZZ=           -407.5353
   XY=             -7.4127   XZ=             20.4556   YZ=              2.6271

 Normal termination of Gaussian 16 at Fri Apr 29 20:24:46 2022.
