 Gaussian 16, Revision A.03,
 Gaussian 16:  ES64L-G16RevA.03 25-Dec-2016

 --------------------
 #p ZINDO=(nstates=5)
 --------------------

 -----------------------------
 step_451_chromophore_25 ZINDO
 -----------------------------
 Symbolic Z-matrix:
 Charge =  0 Multiplicity = 1

                         Standard orientation:
 ---------------------------------------------------------------------
 Center     Atomic      Atomic             Coordinates (Angstroms)
 Number     Number       Type             X           Y           Z
 ---------------------------------------------------------------------
      1         12           0        5.987531    0.308370    0.314402
      2          6           0        3.475705   -2.052961   -0.048361
      3          6           0        3.549970    2.825766   -0.608874
      4          6           0        8.400101    2.659446   -0.130001
      5          6           0        8.289561   -2.037920    0.727392
      6          7           0        3.758608    0.339059   -0.315538
      7          6           0        2.940567   -0.778871   -0.327371
      8          6           0        1.476072   -0.433537   -0.653432
      9          6           0        1.602991    1.024352   -1.159100
     10          6           0        3.043560    1.457265   -0.686577
     11          6           0        1.375718    1.370099   -2.715355
     12          6           0        0.558016   -0.651481    0.659611
     13          6           0       -0.667282   -1.538837    0.448273
     14          6           0       -1.924567   -1.225027    1.199308
     15          8           0       -2.138471   -1.536222    2.387146
     16          8           0       -2.767673   -0.423435    0.523161
     17          7           0        5.909820    2.409875   -0.120845
     18          6           0        4.865159    3.198041   -0.278495
     19          6           0        5.334080    4.511900   -0.442871
     20          6           0        6.723721    4.550912   -0.420452
     21          6           0        7.080886    3.166814   -0.188409
     22          6           0        4.485370    5.795161   -0.578241
     23          6           0        7.701260    5.649039   -0.576289
     24          8           0        8.910424    5.491586   -0.275232
     25          6           0        7.281724    7.067699   -0.991475
     26          7           0        8.063282    0.281959    0.117308
     27          6           0        8.814675    1.379275    0.101950
     28          6           0       10.296977    1.063985    0.379572
     29          6           0       10.256250   -0.441271    0.781229
     30          6           0        8.793619   -0.733554    0.536972
     31          6           0       11.185279    1.257718   -0.969437
     32          6           0       10.552364   -0.773344    2.297324
     33          6           0       11.945220   -1.388690    2.624653
     34          7           0        5.897133   -1.699029    0.361633
     35          6           0        6.933966   -2.520600    0.659128
     36          6           0        6.379094   -3.890700    0.796313
     37          6           0        5.024485   -3.758496    0.592792
     38          6           0        4.774754   -2.389348    0.251848
     39          6           0        7.273946   -5.133677    0.929451
     40          6           0        3.752983   -4.421852    0.442393
     41          8           0        3.582141   -5.609795    0.549226
     42          6           0        2.727065   -3.348301    0.018357
     43          6           0        2.048978   -3.816016   -1.285170
     44          8           0        2.355894   -3.446232   -2.409807
     45          8           0        0.828262   -4.390686   -0.961374
     46          6           0       -0.079809   -4.821516   -2.078526
     47          6           0       -4.116550   -0.199844    0.994167
     48          6           0       -5.111475   -0.082804   -0.154615
     49          6           0       -5.904969   -1.073953   -0.566208
     50          6           0       -5.928331   -2.531536   -0.017657
     51          6           0       -6.953768   -0.862841   -1.552377
     52          6           0       -8.134857   -0.024933   -1.052233
     53          6           0       -8.854692    0.778609   -2.235001
     54          6           0      -10.089936   -0.082123   -2.740052
     55          6           0       -9.713708   -1.061576   -3.875906
     56          6           0      -11.240640    0.796240   -3.168608
     57          6           0      -11.959051    1.569547   -2.043867
     58          6           0      -13.340066    1.002046   -1.769701
     59          6           0      -13.480570    0.298712   -0.403287
     60          6           0      -14.426323   -0.891280   -0.527179
     61          6           0      -13.875883    1.262033    0.806733
     62          6           0      -13.456370    0.668972    2.104979
     63          6           0      -12.193812    1.357889    2.694189
     64          6           0      -12.248238    1.511067    4.242823
     65          6           0      -12.624110    2.944276    4.687634
     66          6           0      -10.924141    1.217000    4.883942
     67          1           0        2.829369    3.544240   -1.005695
     68          1           0        9.252607    3.338954   -0.181600
     69          1           0        9.016604   -2.800295    1.017395
     70          1           0        1.197596   -1.129356   -1.445247
     71          1           0        0.852727    1.557091   -0.574901
     72          1           0        2.036926    2.156275   -3.078372
     73          1           0        0.373685    1.737033   -2.935491
     74          1           0        1.495840    0.484833   -3.340751
     75          1           0        0.158837    0.289564    1.039270
     76          1           0        1.146841   -1.196861    1.397348
     77          1           0       -0.354061   -2.551791    0.699116
     78          1           0       -0.891197   -1.509576   -0.618013
     79          1           0        4.637970    6.396579    0.317447
     80          1           0        3.440693    5.553875   -0.773747
     81          1           0        4.676332    6.393355   -1.468868
     82          1           0        8.238480    7.587183   -1.034697
     83          1           0        6.529446    7.408837   -0.280252
     84          1           0        6.886579    6.924042   -1.996363
     85          1           0       10.875695    1.557023    1.161009
     86          1           0       10.758651   -1.079490    0.054388
     87          1           0       10.741027    2.000387   -1.632411
     88          1           0       11.470229    0.318560   -1.444459
     89          1           0       12.139686    1.719712   -0.714801
     90          1           0        9.780102   -1.438978    2.683976
     91          1           0       10.462914    0.104903    2.936826
     92          1           0       12.619962   -0.898471    3.326406
     93          1           0       12.548745   -1.548011    1.730014
     94          1           0       11.776845   -2.394172    3.011312
     95          1           0        7.470901   -5.380533    1.972942
     96          1           0        8.257415   -5.126926    0.460476
     97          1           0        6.620966   -5.891538    0.496650
     98          1           0        1.918434   -3.246642    0.741800
     99          1           0       -0.602280   -3.955339   -2.485000
    100          1           0       -0.876549   -5.523868   -1.836921
    101          1           0        0.543111   -5.286456   -2.842738
    102          1           0       -4.209595    0.785558    1.449877
    103          1           0       -4.447190   -0.884387    1.775123
    104          1           0       -5.242654    0.909333   -0.586424
    105          1           0       -5.868950   -3.272987   -0.813866
    106          1           0       -6.790125   -2.642309    0.640803
    107          1           0       -4.976140   -2.717840    0.478518
    108          1           0       -7.400246   -1.813737   -1.840403
    109          1           0       -6.549799   -0.384266   -2.444422
    110          1           0       -7.907545    0.721876   -0.292090
    111          1           0       -8.864407   -0.655532   -0.542662
    112          1           0       -8.105045    0.812283   -3.025075
    113          1           0       -9.024241    1.776358   -1.832025
    114          1           0      -10.545599   -0.659298   -1.936029
    115          1           0      -10.526961   -1.311825   -4.557038
    116          1           0       -9.573259   -2.022503   -3.381800
    117          1           0       -8.894461   -0.804477   -4.547117
    118          1           0      -11.919465    0.251114   -3.825713
    119          1           0      -10.876727    1.606537   -3.800605
    120          1           0      -12.031087    2.619419   -2.325577
    121          1           0      -11.418189    1.554461   -1.097801
    122          1           0      -13.891782    0.562894   -2.600546
    123          1           0      -13.956313    1.880657   -1.580630
    124          1           0      -12.537087   -0.236615   -0.304323
    125          1           0      -13.925461   -1.584018   -1.203509
    126          1           0      -15.357659   -0.596007   -1.008942
    127          1           0      -14.557191   -1.317089    0.468507
    128          1           0      -14.960257    1.365749    0.836126
    129          1           0      -13.494104    2.274195    0.678722
    130          1           0      -13.165681   -0.371046    1.960103
    131          1           0      -14.305375    0.626938    2.787776
    132          1           0      -12.032219    2.321413    2.209731
    133          1           0      -11.311054    0.750030    2.495143
    134          1           0      -13.013302    0.895445    4.716836
    135          1           0      -11.769422    3.418660    5.170795
    136          1           0      -13.466108    2.894067    5.377145
    137          1           0      -12.950322    3.539612    3.834333
    138          1           0      -10.729809    0.144193    4.864071
    139          1           0      -10.872482    1.572355    5.912605
    140          1           0      -10.150488    1.669591    4.263190
 ---------------------------------------------------------------------

 SCF Done:  E(RZINDO/S) =  -474.433225351     A.U. after   19 cycles

 Excitation energies and oscillator strengths:

 Excited State   1:      Singlet-A      1.2600 eV  984.02 nm  f=0.5834  <S**2>=0.000
     175 ->178        -0.19862
     176 ->177         0.66031
 This state for optimization and/or second-order correction.
 Total Energy, E(CIS/TDA) =  -474.386922213
 Copying the excited state density for this state as the 1-particle RhoCI density.

 Excited State   2:      Singlet-A      1.9127 eV  648.21 nm  f=0.0229  <S**2>=0.000
     175 ->177         0.52954
     176 ->178         0.44160

 Excited State   3:      Singlet-A      2.8879 eV  429.32 nm  f=0.0015  <S**2>=0.000
     170 ->177         0.25233
     170 ->178        -0.10636
     170 ->179         0.32078
     170 ->180        -0.26638
     170 ->181        -0.10450
     170 ->182        -0.29522
     170 ->186         0.17899
     170 ->187         0.12142
     176 ->179         0.12721

 Excited State   4:      Singlet-A      2.9430 eV  421.29 nm  f=0.0450  <S**2>=0.000
     168 ->177         0.30940
     168 ->178        -0.14814
     168 ->179        -0.32977
     168 ->182        -0.21617
     168 ->183         0.14446
     168 ->186        -0.17317
     171 ->177         0.13163
     176 ->178        -0.13457
     176 ->179        -0.18259

 Excited State   5:      Singlet-A      2.9509 eV  420.16 nm  f=0.2980  <S**2>=0.000
     168 ->177         0.12580
     168 ->179        -0.14483
     175 ->177        -0.21164
     176 ->178         0.32358
     176 ->179         0.46737
     176 ->180        -0.10531
     176 ->182         0.10445

 The electronic state is 1-A.
 Alpha  occ. eigenvalues --   -1.86713  -1.83891  -1.80246  -1.73883  -1.71111
 Alpha  occ. eigenvalues --   -1.70071  -1.66546  -1.61849  -1.59928  -1.57577
 Alpha  occ. eigenvalues --   -1.57100  -1.52265  -1.49685  -1.48243  -1.46403
 Alpha  occ. eigenvalues --   -1.44065  -1.43039  -1.39863  -1.39804  -1.37511
 Alpha  occ. eigenvalues --   -1.34819  -1.33330  -1.32209  -1.32014  -1.28632
 Alpha  occ. eigenvalues --   -1.28190  -1.24974  -1.22505  -1.20465  -1.19104
 Alpha  occ. eigenvalues --   -1.17846  -1.15720  -1.15036  -1.14519  -1.13727
 Alpha  occ. eigenvalues --   -1.12893  -1.10937  -1.10180  -1.05301  -1.03818
 Alpha  occ. eigenvalues --   -1.02646  -1.01883  -0.98081  -0.97212  -0.96265
 Alpha  occ. eigenvalues --   -0.95924  -0.94850  -0.94133  -0.93251  -0.92846
 Alpha  occ. eigenvalues --   -0.92400  -0.91250  -0.88806  -0.88396  -0.87831
 Alpha  occ. eigenvalues --   -0.85974  -0.84672  -0.83903  -0.82152  -0.81039
 Alpha  occ. eigenvalues --   -0.79824  -0.78729  -0.77727  -0.77403  -0.76641
 Alpha  occ. eigenvalues --   -0.75877  -0.75413  -0.74878  -0.74244  -0.73592
 Alpha  occ. eigenvalues --   -0.72979  -0.72437  -0.72075  -0.71333  -0.71231
 Alpha  occ. eigenvalues --   -0.70832  -0.69542  -0.68905  -0.68501  -0.68010
 Alpha  occ. eigenvalues --   -0.67507  -0.67153  -0.66795  -0.66405  -0.65537
 Alpha  occ. eigenvalues --   -0.65119  -0.64898  -0.64735  -0.63772  -0.63463
 Alpha  occ. eigenvalues --   -0.63166  -0.62806  -0.62346  -0.62014  -0.61855
 Alpha  occ. eigenvalues --   -0.61473  -0.61019  -0.60710  -0.59979  -0.59876
 Alpha  occ. eigenvalues --   -0.59254  -0.59004  -0.58736  -0.58598  -0.57936
 Alpha  occ. eigenvalues --   -0.57744  -0.57465  -0.57341  -0.56933  -0.56570
 Alpha  occ. eigenvalues --   -0.56351  -0.55386  -0.55136  -0.54908  -0.54804
 Alpha  occ. eigenvalues --   -0.54481  -0.54231  -0.53863  -0.53463  -0.52945
 Alpha  occ. eigenvalues --   -0.52601  -0.52245  -0.52054  -0.51524  -0.51055
 Alpha  occ. eigenvalues --   -0.50802  -0.50738  -0.50650  -0.50443  -0.50241
 Alpha  occ. eigenvalues --   -0.49968  -0.49772  -0.49452  -0.49266  -0.49158
 Alpha  occ. eigenvalues --   -0.48708  -0.48419  -0.48294  -0.48096  -0.47955
 Alpha  occ. eigenvalues --   -0.47649  -0.47140  -0.47067  -0.46988  -0.46802
 Alpha  occ. eigenvalues --   -0.46542  -0.46222  -0.46169  -0.45556  -0.45441
 Alpha  occ. eigenvalues --   -0.45314  -0.44535  -0.44096  -0.43982  -0.43699
 Alpha  occ. eigenvalues --   -0.43442  -0.43398  -0.43177  -0.42558  -0.42487
 Alpha  occ. eigenvalues --   -0.41612  -0.41486  -0.41028  -0.39532  -0.38898
 Alpha  occ. eigenvalues --   -0.38541  -0.37061  -0.35418  -0.34907  -0.34407
 Alpha  occ. eigenvalues --   -0.33680  -0.33040  -0.32731  -0.32237  -0.26421
 Alpha  occ. eigenvalues --   -0.21493
 Alpha virt. eigenvalues --   -0.08100  -0.02114  -0.00602   0.00797   0.01361
 Alpha virt. eigenvalues --    0.01556   0.01677   0.03164   0.04600   0.04865
 Alpha virt. eigenvalues --    0.06229   0.07059   0.07533   0.07847   0.08326

 Mulliken charges:
               1
     1  Mg   0.427996
     2  C   -0.046091
     3  C   -0.080430
     4  C   -0.061136
     5  C   -0.091823
     6  N   -0.290781
     7  C    0.127267
     8  C    0.006492
     9  C    0.007810
    10  C    0.098043
    11  C   -0.050907
    12  C   -0.018581
    13  C    0.006902
    14  C    0.474552
    15  O   -0.536905
    16  O   -0.259439
    17  N   -0.317178
    18  C    0.123385
    19  C    0.002373
    20  C   -0.047201
    21  C    0.117782
    22  C   -0.057597
    23  C    0.320328
    24  O   -0.548706
    25  C   -0.036701
    26  N   -0.248107
    27  C    0.130689
    28  C   -0.004580
    29  C   -0.002799
    30  C    0.151769
    31  C   -0.063440
    32  C   -0.026232
    33  C   -0.062474
    34  N   -0.306562
    35  C    0.096632
    36  C    0.040632
    37  C   -0.044159
    38  C    0.118607
    39  C   -0.042600
    40  C    0.339865
    41  O   -0.508553
    42  C    0.059782
    43  C    0.481359
    44  O   -0.507408
    45  O   -0.275753
    46  C    0.073583
    47  C    0.105852
    48  C   -0.099512
    49  C    0.011195
    50  C   -0.048429
    51  C   -0.012228
    52  C   -0.040918
    53  C   -0.044023
    54  C   -0.001138
    55  C   -0.060632
    56  C   -0.034085
    57  C   -0.031078
    58  C   -0.045111
    59  C   -0.016834
    60  C   -0.058148
    61  C   -0.024792
    62  C   -0.032442
    63  C   -0.032506
    64  C   -0.013985
    65  C   -0.061236
    66  C   -0.050060
    67  H    0.032713
    68  H    0.052646
    69  H    0.020780
    70  H    0.041391
    71  H    0.024575
    72  H    0.027227
    73  H    0.016989
    74  H    0.026727
    75  H    0.036512
    76  H    0.032760
    77  H    0.040522
    78  H    0.028582
    79  H    0.034257
    80  H    0.015625
    81  H    0.024368
    82  H    0.045932
    83  H    0.048562
    84  H    0.036377
    85  H    0.043036
    86  H    0.043099
    87  H    0.031517
    88  H    0.027153
    89  H    0.012420
    90  H    0.025181
    91  H    0.021733
    92  H    0.027045
    93  H    0.014184
    94  H    0.013176
    95  H    0.031597
    96  H    0.033666
    97  H    0.033732
    98  H    0.055745
    99  H    0.035511
   100  H    0.042201
   101  H    0.047416
   102  H    0.030979
   103  H    0.056352
   104  H    0.032084
   105  H    0.027123
   106  H    0.040352
   107  H    0.018979
   108  H    0.016213
   109  H    0.025806
   110  H    0.015478
   111  H    0.016698
   112  H    0.023221
   113  H    0.029381
   114  H    0.024236
   115  H    0.013227
   116  H    0.012061
   117  H    0.026997
   118  H    0.019314
   119  H    0.004366
   120  H    0.014227
   121  H    0.020567
   122  H    0.030076
   123  H   -0.002204
   124  H    0.018238
   125  H    0.013393
   126  H    0.019688
   127  H    0.020291
   128  H    0.015069
   129  H    0.022222
   130  H    0.015703
   131  H    0.019941
   132  H    0.024021
   133  H    0.015440
   134  H    0.021014
   135  H    0.022130
   136  H    0.015124
   137  H    0.014387
   138  H    0.006580
   139  H    0.019270
   140  H    0.017407
 Sum of Mulliken charges =  -0.00000

 Dipole moment (field-independent basis, Debye):
    X=             -3.6927    Y=              2.3669    Z=             -1.2842  Tot=              4.5703
 N-N= 4.256823785676D+03 E-N= 0.000000000000D+00  KE=-9.187880724978D+03
 Leave Link  601 at Fri Apr 29 20:36:06 2022, MaxMem=  6710886400 cpu:               0.8 elap:               0.0
 (Enter /sw/apps/gaussian-16.0/g16/l9999.exe)
 1\1\GINC-BP1-COMPUTE103\SP\RZINDO CIS\STO-3G\C55H74Mg1N4O6\OF15641\29-
 Apr-2022\0\\#p ZINDO=(nstates=5)\\step_451_chromophore_25 ZINDO\\0,1\M
 g,0,-2.73,34.471,26.68\C,0,-4.169,33.22,29.575\C,0,-1.253,37.078,28.71
 8\C,0,-1.855,36.286,23.944\C,0,-4.43,32.352,24.784\N,0,-2.776,35.089,2
 8.912\C,0,-3.407,34.359,29.906\C,0,-3.153,34.935,31.311\C,0,-2.54,36.3
 17,30.977\C,0,-2.155,36.194,29.453\C,0,-3.372,37.667,31.257\C,0,-2.211
 ,33.926,32.153\C,0,-2.757,33.528,33.523\C,0,-1.794,33.314,34.65\O,0,-1

 Normal termination of Gaussian 16 at Fri Apr 29 20:36:07 2022.
