 Gaussian 16, Revision A.03,
 Gaussian 16:  ES64L-G16RevA.03 25-Dec-2016

 ------------------------------
 #p blyp/Def2SVP td=(nstates=5)
 ------------------------------

 -------------------------------------------------
 step_751_chromophore_1 TDDFT with blyp functional
 -------------------------------------------------
 Symbolic Z-matrix:
 Charge =  0 Multiplicity = 1

                         Standard orientation:
 ---------------------------------------------------------------------
 Center     Atomic      Atomic             Coordinates (Angstroms)
 Number     Number       Type             X           Y           Z
 ---------------------------------------------------------------------
      1         12           0        5.890532    0.409903    0.105429
      2          6           0        3.782823   -2.314251   -0.628159
      3          6           0        3.607699    2.438149   -1.658162
      4          6           0        8.036935    3.054849    0.401324
      5          6           0        8.525898   -1.687633    0.753617
      6          7           0        3.900351    0.075382   -0.898350
      7          6           0        3.285695   -1.133893   -1.151264
      8          6           0        1.904846   -0.960270   -1.846130
      9          6           0        1.974089    0.569850   -2.208531
     10          6           0        3.209537    1.056714   -1.591744
     11          6           0        1.842089    0.960187   -3.698689
     12          6           0        0.797986   -1.261580   -0.883923
     13          6           0       -0.650225   -0.764684   -1.191262
     14          6           0       -1.820721   -1.496990   -0.661576
     15          8           0       -2.320981   -2.532140   -1.092450
     16          8           0       -2.263534   -0.974938    0.575519
     17          7           0        5.793702    2.473798   -0.406442
     18          6           0        4.771210    3.109593   -1.090897
     19          6           0        5.007502    4.533263   -0.912458
     20          6           0        6.228908    4.734273   -0.242114
     21          6           0        6.718612    3.421881    0.034880
     22          6           0        3.948156    5.583738   -1.459181
     23          6           0        6.887472    5.996981    0.179248
     24          8           0        8.000046    6.046675    0.703458
     25          6           0        6.195796    7.308756   -0.140813
     26          7           0        8.015579    0.605258    0.308520
     27          6           0        8.685579    1.798638    0.476074
     28          6           0       10.159161    1.584138    0.683968
     29          6           0       10.192202    0.120359    1.168983
     30          6           0        8.830908   -0.332008    0.757324
     31          6           0       10.927611    1.748971   -0.680683
     32          6           0       10.242961   -0.059493    2.757980
     33          6           0        9.148275    0.453798    3.580595
     34          7           0        6.133369   -1.559846    0.207813
     35          6           0        7.284276   -2.324233    0.403938
     36          6           0        6.927536   -3.738440    0.330202
     37          6           0        5.579232   -3.729073    0.094673
     38          6           0        5.119711   -2.432819   -0.065627
     39          6           0        7.861438   -4.925839    0.634949
     40          6           0        4.355044   -4.572040   -0.099990
     41          8           0        4.197364   -5.816021    0.026625
     42          6           0        3.158689   -3.685728   -0.567967
     43          6           0        1.894326   -3.944241    0.244906
     44          8           0        1.660433   -3.515632    1.382656
     45          8           0        1.055218   -4.718685   -0.486591
     46          6           0       -0.280210   -5.024589    0.132084
     47          6           0       -3.353827   -1.749463    1.178095
     48          6           0       -4.634818   -1.531491    0.434654
     49          6           0       -5.387401   -2.520125   -0.051632
     50          6           0       -5.175459   -3.989555    0.113983
     51          6           0       -6.709006   -2.196161   -0.870360
     52          6           0       -7.817750   -1.725077    0.068946
     53          6           0       -8.732759   -0.679718   -0.697182
     54          6           0       -8.462065    0.832750   -0.474185
     55          6           0       -7.012936    1.344994   -0.881744
     56          6           0       -8.817542    1.164090    1.038718
     57          6           0      -10.151688    1.993965    1.177115
     58          6           0      -11.233694    1.275333    1.921702
     59          6           0      -12.475276    2.209574    2.086856
     60          6           0      -12.395819    3.270414    3.218931
     61          6           0      -13.837452    1.374625    2.278634
     62          6           0      -14.864517    1.629476    1.225097
     63          6           0      -14.848214    0.481945    0.184197
     64          6           0      -15.266205    1.040141   -1.247292
     65          6           0      -15.901153   -0.134644   -2.048159
     66          6           0      -14.015521    1.697932   -1.870178
     67          1           0        2.854731    3.045294   -2.164490
     68          1           0        8.777658    3.852938    0.475901
     69          1           0        9.359126   -2.349951    0.996719
     70          1           0        2.122082   -1.661574   -2.651035
     71          1           0        1.187982    1.062013   -1.634910
     72          1           0        0.945989    1.553245   -3.880048
     73          1           0        1.722019    0.032088   -4.257084
     74          1           0        2.709166    1.454580   -4.137651
     75          1           0        0.978781   -0.997255    0.158020
     76          1           0        0.544141   -2.309531   -1.046637
     77          1           0       -0.744538   -0.619597   -2.267794
     78          1           0       -1.021837    0.180360   -0.794946
     79          1           0        4.431601    6.446807   -1.917380
     80          1           0        3.286052    5.940808   -0.670399
     81          1           0        3.240941    5.089497   -2.124447
     82          1           0        6.192955    7.593435   -1.193404
     83          1           0        6.752020    8.053047    0.429664
     84          1           0        5.157454    7.287898    0.189029
     85          1           0       10.551681    2.220375    1.477271
     86          1           0       10.975871   -0.446963    0.666434
     87          1           0       11.647431    2.565965   -0.626074
     88          1           0       10.322755    1.723409   -1.588156
     89          1           0       11.547483    0.862222   -0.815072
     90          1           0       11.116017    0.550473    2.990137
     91          1           0       10.474403   -1.085367    3.047350
     92          1           0        9.137951   -0.243290    4.418950
     93          1           0        8.176480    0.438724    3.086879
     94          1           0        9.438638    1.428357    3.974103
     95          1           0        7.216389   -5.794486    0.766377
     96          1           0        8.403227   -4.853894    1.577137
     97          1           0        8.607518   -4.897672   -0.159608
     98          1           0        2.847792   -4.013847   -1.560255
     99          1           0       -0.614042   -4.216762    0.782382
    100          1           0       -0.119515   -5.995660    0.599996
    101          1           0       -0.897911   -5.103268   -0.763704
    102          1           0       -3.654539   -1.341966    2.143335
    103          1           0       -3.099959   -2.800035    1.318481
    104          1           0       -4.977392   -0.544520    0.122520
    105          1           0       -6.077148   -4.577169   -0.056518
    106          1           0       -4.831939   -4.184718    1.129773
    107          1           0       -4.396879   -4.332333   -0.567794
    108          1           0       -7.199028   -2.981342   -1.445338
    109          1           0       -6.467140   -1.313665   -1.462437
    110          1           0       -7.444433   -1.355013    1.023732
    111          1           0       -8.306705   -2.672449    0.296781
    112          1           0       -9.724302   -0.901300   -0.302280
    113          1           0       -8.664368   -0.903748   -1.761355
    114          1           0       -9.127338    1.378425   -1.142492
    115          1           0       -6.500286    1.730276   -0.000115
    116          1           0       -6.970430    2.114276   -1.653329
    117          1           0       -6.325523    0.556417   -1.188561
    118          1           0       -8.023638    1.576576    1.661531
    119          1           0       -8.952307    0.186724    1.499814
    120          1           0      -10.503122    2.332369    0.201965
    121          1           0       -9.963629    2.887576    1.773115
    122          1           0      -10.839057    0.906076    2.868788
    123          1           0      -11.577712    0.426491    1.331829
    124          1           0      -12.724688    2.810973    1.212197
    125          1           0      -11.658292    3.158285    4.012699
    126          1           0      -13.374719    3.474112    3.655442
    127          1           0      -11.986383    4.159201    2.738253
    128          1           0      -14.319551    1.797438    3.159535
    129          1           0      -13.677792    0.303494    2.407878
    130          1           0      -14.847337    2.585453    0.701822
    131          1           0      -15.828090    1.431306    1.696075
    132          1           0      -15.544861   -0.284997    0.523038
    133          1           0      -13.862439    0.018316    0.138749
    134          1           0      -16.054994    1.779945   -1.104701
    135          1           0      -15.709155   -1.109356   -1.600638
    136          1           0      -15.688356   -0.091304   -3.117379
    137          1           0      -16.958832    0.078952   -1.895882
    138          1           0      -14.414642    2.485606   -2.508596
    139          1           0      -13.454784    0.937820   -2.414591
    140          1           0      -13.300157    2.238305   -1.248895
 ---------------------------------------------------------------------

 SCF Done:  E(RB-LYP) =  -3007.35570339     A.U. after   20 cycles

 Excitation energies and oscillator strengths:

 Excited State   1:      Singlet-A      1.7723 eV  699.58 nm  f=0.2906  <S**2>=0.000
     245 -> 248       -0.17531
     246 -> 247        0.69200
     246 <- 247       -0.15593
 This state for optimization and/or second-order correction.
 Total Energy, E(TD-HF/TD-DFT) =  -3007.29057345
 Copying the excited state density for this state as the 1-particle RhoCI density.

 Excited State   2:      Singlet-A      1.8529 eV  669.14 nm  f=0.0166  <S**2>=0.000
     244 -> 247        0.59738
     245 -> 247        0.36146

 Excited State   3:      Singlet-A      1.9299 eV  642.45 nm  f=0.0028  <S**2>=0.000
     243 -> 247        0.69018
     244 -> 247       -0.11662

 Excited State   4:      Singlet-A      1.9962 eV  621.10 nm  f=0.0693  <S**2>=0.000
     243 -> 247       -0.13480
     244 -> 247       -0.35403
     245 -> 247        0.54141
     246 -> 248        0.20651

 Excited State   5:      Singlet-A      2.0390 eV  608.06 nm  f=0.0002  <S**2>=0.000
     242 -> 247        0.70471

 The electronic state is 1-A.
 Alpha  occ. eigenvalues --  -46.26909 -18.82270 -18.82116 -18.77392 -18.76226
 Alpha  occ. eigenvalues --  -18.75601 -18.75504 -14.03398 -14.02822 -14.00990
 Alpha  occ. eigenvalues --  -14.00922 -10.04544 -10.03939 -10.00102  -9.99669
 Alpha  occ. eigenvalues --   -9.97874  -9.97634  -9.96798  -9.96491  -9.96148
 Alpha  occ. eigenvalues --   -9.96132  -9.95767  -9.95675  -9.95603  -9.94928
 Alpha  occ. eigenvalues --   -9.94792  -9.94326  -9.94261  -9.94153  -9.94127
 Alpha  occ. eigenvalues --   -9.94074  -9.94063  -9.93866  -9.93611  -9.93588
 Alpha  occ. eigenvalues --   -9.93493  -9.93314  -9.92959  -9.92779  -9.92696
 Alpha  occ. eigenvalues --   -9.92622  -9.92535  -9.92461  -9.92229  -9.92191
 Alpha  occ. eigenvalues --   -9.92104  -9.92058  -9.91938  -9.91602  -9.91597
 Alpha  occ. eigenvalues --   -9.91552  -9.91315  -9.91260  -9.91259  -9.91200
 Alpha  occ. eigenvalues --   -9.91175  -9.91143  -9.91084  -9.90998  -9.90869
 Alpha  occ. eigenvalues --   -9.90799  -9.90669  -9.90648  -9.90503  -9.90377
 Alpha  occ. eigenvalues --   -9.90271  -2.91614  -1.72023  -1.71504  -1.71324
 Alpha  occ. eigenvalues --   -0.97406  -0.97224  -0.91150  -0.89527  -0.89313
 Alpha  occ. eigenvalues --   -0.88688  -0.87391  -0.86009  -0.85232  -0.84372
 Alpha  occ. eigenvalues --   -0.75183  -0.74050  -0.73131  -0.72860  -0.72653
 Alpha  occ. eigenvalues --   -0.71574  -0.71383  -0.71234  -0.70351  -0.69662
 Alpha  occ. eigenvalues --   -0.69559  -0.69362  -0.68288  -0.67959  -0.67458
 Alpha  occ. eigenvalues --   -0.66510  -0.66064  -0.64867  -0.64626  -0.64254
 Alpha  occ. eigenvalues --   -0.63940  -0.63041  -0.62351  -0.62069  -0.60823
 Alpha  occ. eigenvalues --   -0.60349  -0.60304  -0.60028  -0.59266  -0.58755
 Alpha  occ. eigenvalues --   -0.58189  -0.57898  -0.57200  -0.56162  -0.54650
 Alpha  occ. eigenvalues --   -0.54124  -0.53224  -0.52690  -0.52503  -0.51563
 Alpha  occ. eigenvalues --   -0.50956  -0.50463  -0.50277  -0.50090  -0.49397
 Alpha  occ. eigenvalues --   -0.49157  -0.48801  -0.48096  -0.47833  -0.46580
 Alpha  occ. eigenvalues --   -0.46055  -0.45786  -0.45641  -0.45108  -0.44553
 Alpha  occ. eigenvalues --   -0.43909  -0.43625  -0.43139  -0.42913  -0.42756
 Alpha  occ. eigenvalues --   -0.42196  -0.42123  -0.41904  -0.41481  -0.41349
 Alpha  occ. eigenvalues --   -0.41230  -0.40772  -0.40544  -0.40258  -0.40164
 Alpha  occ. eigenvalues --   -0.39952  -0.39555  -0.39459  -0.39146  -0.38956
 Alpha  occ. eigenvalues --   -0.38922  -0.38636  -0.38374  -0.38267  -0.38172
 Alpha  occ. eigenvalues --   -0.38025  -0.37673  -0.37384  -0.37329  -0.36928
 Alpha  occ. eigenvalues --   -0.36767  -0.36673  -0.36589  -0.36447  -0.36225
 Alpha  occ. eigenvalues --   -0.36212  -0.35835  -0.35747  -0.35675  -0.35555
 Alpha  occ. eigenvalues --   -0.35260  -0.34984  -0.34907  -0.34719  -0.34574
 Alpha  occ. eigenvalues --   -0.34407  -0.34196  -0.34120  -0.34021  -0.33952
 Alpha  occ. eigenvalues --   -0.33674  -0.33565  -0.33488  -0.33236  -0.33128
 Alpha  occ. eigenvalues --   -0.32975  -0.32760  -0.32532  -0.32394  -0.32063
 Alpha  occ. eigenvalues --   -0.31961  -0.31847  -0.31740  -0.31579  -0.31304
 Alpha  occ. eigenvalues --   -0.31286  -0.31257  -0.31029  -0.30833  -0.30625
 Alpha  occ. eigenvalues --   -0.30385  -0.30305  -0.30279  -0.30130  -0.29993
 Alpha  occ. eigenvalues --   -0.29735  -0.29660  -0.29526  -0.29322  -0.29195
 Alpha  occ. eigenvalues --   -0.28813  -0.28784  -0.28183  -0.28096  -0.27802
 Alpha  occ. eigenvalues --   -0.27667  -0.27420  -0.27282  -0.26546  -0.26284
 Alpha  occ. eigenvalues --   -0.26260  -0.26194  -0.25934  -0.25823  -0.25197
 Alpha  occ. eigenvalues --   -0.24882  -0.24073  -0.23924  -0.23645  -0.23516
 Alpha  occ. eigenvalues --   -0.23213  -0.22262  -0.22224  -0.21200  -0.20941
 Alpha  occ. eigenvalues --   -0.20347  -0.19195  -0.18726  -0.18526  -0.17120
 Alpha  occ. eigenvalues --   -0.15821
 Alpha virt. eigenvalues --   -0.11704  -0.06903  -0.06021  -0.04984  -0.04433
 Alpha virt. eigenvalues --   -0.02880  -0.02604  -0.01654  -0.01426   0.00017
 Alpha virt. eigenvalues --    0.00734   0.01841   0.02176   0.02467   0.02994

 Mulliken charges:
               1
     1  Mg   0.706660
     2  C    0.023255
     3  C   -0.052711
     4  C   -0.010327
     5  C   -0.086269
     6  N   -0.217099
     7  C   -0.156375
     8  C    0.076759
     9  C    0.025231
    10  C   -0.008430
    11  C    0.142289
    12  C    0.152589
    13  C    0.127785
    14  C    0.083215
    15  O   -0.199273
    16  O   -0.292823
    17  N   -0.299016
    18  C    0.133156
    19  C   -0.132284
    20  C    0.064618
    21  C    0.094400
    22  C    0.149253
    23  C   -0.078926
    24  O   -0.167130
    25  C    0.109122
    26  N   -0.187632
    27  C   -0.027197
    28  C    0.050124
    29  C    0.030125
    30  C    0.012128
    31  C    0.147280
    32  C    0.060403
    33  C    0.090437
    34  N   -0.323515
    35  C    0.120920
    36  C   -0.206369
    37  C    0.105874
    38  C    0.074809
    39  C    0.170462
    40  C   -0.023188
    41  O   -0.169967
    42  C    0.116789
    43  C    0.092239
    44  O   -0.199208
    45  O   -0.279480
    46  C    0.202296
    47  C    0.360844
    48  C   -0.115116
    49  C   -0.150881
    50  C    0.153975
    51  C    0.110683
    52  C    0.049295
    53  C    0.082529
    54  C   -0.026006
    55  C    0.080249
    56  C    0.108598
    57  C    0.066875
    58  C    0.118156
    59  C   -0.067495
    60  C    0.093225
    61  C    0.118810
    62  C    0.068682
    63  C    0.043740
    64  C   -0.099649
    65  C    0.113798
    66  C    0.100252
    67  H   -0.067414
    68  H   -0.046087
    69  H   -0.069356
    70  H   -0.021868
    71  H   -0.011283
    72  H   -0.008454
    73  H   -0.017914
    74  H    0.002007
    75  H    0.012725
    76  H    0.007317
    77  H   -0.017945
    78  H   -0.013446
    79  H    0.001210
    80  H    0.003689
    81  H   -0.019448
    82  H    0.021625
    83  H   -0.010148
    84  H   -0.003701
    85  H   -0.031890
    86  H   -0.034457
    87  H    0.003838
    88  H    0.008376
    89  H   -0.030758
    90  H   -0.033709
    91  H   -0.015075
    92  H   -0.012437
    93  H    0.019336
    94  H   -0.003240
    95  H    0.014607
    96  H   -0.005523
    97  H    0.004549
    98  H   -0.006991
    99  H    0.041495
   100  H    0.030859
   101  H    0.031514
   102  H   -0.005376
   103  H   -0.010809
   104  H   -0.060727
   105  H   -0.020055
   106  H   -0.013268
   107  H    0.013955
   108  H   -0.026006
   109  H   -0.023989
   110  H   -0.020403
   111  H   -0.041031
   112  H   -0.030127
   113  H   -0.029013
   114  H   -0.030055
   115  H   -0.019887
   116  H   -0.014357
   117  H   -0.011754
   118  H   -0.033971
   119  H   -0.034034
   120  H   -0.031502
   121  H   -0.044011
   122  H   -0.025606
   123  H   -0.032891
   124  H   -0.037669
   125  H   -0.021641
   126  H   -0.010484
   127  H   -0.024893
   128  H   -0.055782
   129  H   -0.033558
   130  H   -0.017476
   131  H   -0.039220
   132  H   -0.038161
   133  H   -0.030245
   134  H   -0.031831
   135  H   -0.006545
   136  H   -0.017866
   137  H   -0.020974
   138  H   -0.020543
   139  H   -0.010586
   140  H   -0.015179
 Sum of Mulliken charges =  -0.00000

 Dipole moment (field-independent basis, Debye):
    X=             -1.3310    Y=              2.6065    Z=             -1.4853  Tot=              3.2819
 Quadrupole moment (field-independent basis, Debye-Ang):
   XX=           -372.3264   YY=           -433.8080   ZZ=           -402.4247
   XY=             -6.4429   XZ=             -0.3330   YZ=             -8.4516

 Normal termination of Gaussian 16 at Thu May  5 08:09:27 2022.
