 Gaussian 16, Revision A.03,
 Gaussian 16:  ES64L-G16RevA.03 25-Dec-2016

 -----------------------------------
 #p cam-b3lyp/Def2SVP td=(nstates=5)
 -----------------------------------

 ------------------------------------------------------
 step_751_chromophore_1 TDDFT with cam-b3lyp functional
 ------------------------------------------------------
 Symbolic Z-matrix:
 Charge =  0 Multiplicity = 1

                         Standard orientation:
 ---------------------------------------------------------------------
 Center     Atomic      Atomic             Coordinates (Angstroms)
 Number     Number       Type             X           Y           Z
 ---------------------------------------------------------------------
      1         12           0        5.890532    0.409903    0.105429
      2          6           0        3.782823   -2.314251   -0.628159
      3          6           0        3.607699    2.438149   -1.658162
      4          6           0        8.036935    3.054849    0.401324
      5          6           0        8.525898   -1.687633    0.753617
      6          7           0        3.900351    0.075382   -0.898350
      7          6           0        3.285695   -1.133893   -1.151264
      8          6           0        1.904846   -0.960270   -1.846130
      9          6           0        1.974089    0.569850   -2.208531
     10          6           0        3.209537    1.056714   -1.591744
     11          6           0        1.842089    0.960187   -3.698689
     12          6           0        0.797986   -1.261580   -0.883923
     13          6           0       -0.650225   -0.764684   -1.191262
     14          6           0       -1.820721   -1.496990   -0.661576
     15          8           0       -2.320981   -2.532140   -1.092450
     16          8           0       -2.263534   -0.974938    0.575519
     17          7           0        5.793702    2.473798   -0.406442
     18          6           0        4.771210    3.109593   -1.090897
     19          6           0        5.007502    4.533263   -0.912458
     20          6           0        6.228908    4.734273   -0.242114
     21          6           0        6.718612    3.421881    0.034880
     22          6           0        3.948156    5.583738   -1.459181
     23          6           0        6.887472    5.996981    0.179248
     24          8           0        8.000046    6.046675    0.703458
     25          6           0        6.195796    7.308756   -0.140813
     26          7           0        8.015579    0.605258    0.308520
     27          6           0        8.685579    1.798638    0.476074
     28          6           0       10.159161    1.584138    0.683968
     29          6           0       10.192202    0.120359    1.168983
     30          6           0        8.830908   -0.332008    0.757324
     31          6           0       10.927611    1.748971   -0.680683
     32          6           0       10.242961   -0.059493    2.757980
     33          6           0        9.148275    0.453798    3.580595
     34          7           0        6.133369   -1.559846    0.207813
     35          6           0        7.284276   -2.324233    0.403938
     36          6           0        6.927536   -3.738440    0.330202
     37          6           0        5.579232   -3.729073    0.094673
     38          6           0        5.119711   -2.432819   -0.065627
     39          6           0        7.861438   -4.925839    0.634949
     40          6           0        4.355044   -4.572040   -0.099990
     41          8           0        4.197364   -5.816021    0.026625
     42          6           0        3.158689   -3.685728   -0.567967
     43          6           0        1.894326   -3.944241    0.244906
     44          8           0        1.660433   -3.515632    1.382656
     45          8           0        1.055218   -4.718685   -0.486591
     46          6           0       -0.280210   -5.024589    0.132084
     47          6           0       -3.353827   -1.749463    1.178095
     48          6           0       -4.634818   -1.531491    0.434654
     49          6           0       -5.387401   -2.520125   -0.051632
     50          6           0       -5.175459   -3.989555    0.113983
     51          6           0       -6.709006   -2.196161   -0.870360
     52          6           0       -7.817750   -1.725077    0.068946
     53          6           0       -8.732759   -0.679718   -0.697182
     54          6           0       -8.462065    0.832750   -0.474185
     55          6           0       -7.012936    1.344994   -0.881744
     56          6           0       -8.817542    1.164090    1.038718
     57          6           0      -10.151688    1.993965    1.177115
     58          6           0      -11.233694    1.275333    1.921702
     59          6           0      -12.475276    2.209574    2.086856
     60          6           0      -12.395819    3.270414    3.218931
     61          6           0      -13.837452    1.374625    2.278634
     62          6           0      -14.864517    1.629476    1.225097
     63          6           0      -14.848214    0.481945    0.184197
     64          6           0      -15.266205    1.040141   -1.247292
     65          6           0      -15.901153   -0.134644   -2.048159
     66          6           0      -14.015521    1.697932   -1.870178
     67          1           0        2.854731    3.045294   -2.164490
     68          1           0        8.777658    3.852938    0.475901
     69          1           0        9.359126   -2.349951    0.996719
     70          1           0        2.122082   -1.661574   -2.651035
     71          1           0        1.187982    1.062013   -1.634910
     72          1           0        0.945989    1.553245   -3.880048
     73          1           0        1.722019    0.032088   -4.257084
     74          1           0        2.709166    1.454580   -4.137651
     75          1           0        0.978781   -0.997255    0.158020
     76          1           0        0.544141   -2.309531   -1.046637
     77          1           0       -0.744538   -0.619597   -2.267794
     78          1           0       -1.021837    0.180360   -0.794946
     79          1           0        4.431601    6.446807   -1.917380
     80          1           0        3.286052    5.940808   -0.670399
     81          1           0        3.240941    5.089497   -2.124447
     82          1           0        6.192955    7.593435   -1.193404
     83          1           0        6.752020    8.053047    0.429664
     84          1           0        5.157454    7.287898    0.189029
     85          1           0       10.551681    2.220375    1.477271
     86          1           0       10.975871   -0.446963    0.666434
     87          1           0       11.647431    2.565965   -0.626074
     88          1           0       10.322755    1.723409   -1.588156
     89          1           0       11.547483    0.862222   -0.815072
     90          1           0       11.116017    0.550473    2.990137
     91          1           0       10.474403   -1.085367    3.047350
     92          1           0        9.137951   -0.243290    4.418950
     93          1           0        8.176480    0.438724    3.086879
     94          1           0        9.438638    1.428357    3.974103
     95          1           0        7.216389   -5.794486    0.766377
     96          1           0        8.403227   -4.853894    1.577137
     97          1           0        8.607518   -4.897672   -0.159608
     98          1           0        2.847792   -4.013847   -1.560255
     99          1           0       -0.614042   -4.216762    0.782382
    100          1           0       -0.119515   -5.995660    0.599996
    101          1           0       -0.897911   -5.103268   -0.763704
    102          1           0       -3.654539   -1.341966    2.143335
    103          1           0       -3.099959   -2.800035    1.318481
    104          1           0       -4.977392   -0.544520    0.122520
    105          1           0       -6.077148   -4.577169   -0.056518
    106          1           0       -4.831939   -4.184718    1.129773
    107          1           0       -4.396879   -4.332333   -0.567794
    108          1           0       -7.199028   -2.981342   -1.445338
    109          1           0       -6.467140   -1.313665   -1.462437
    110          1           0       -7.444433   -1.355013    1.023732
    111          1           0       -8.306705   -2.672449    0.296781
    112          1           0       -9.724302   -0.901300   -0.302280
    113          1           0       -8.664368   -0.903748   -1.761355
    114          1           0       -9.127338    1.378425   -1.142492
    115          1           0       -6.500286    1.730276   -0.000115
    116          1           0       -6.970430    2.114276   -1.653329
    117          1           0       -6.325523    0.556417   -1.188561
    118          1           0       -8.023638    1.576576    1.661531
    119          1           0       -8.952307    0.186724    1.499814
    120          1           0      -10.503122    2.332369    0.201965
    121          1           0       -9.963629    2.887576    1.773115
    122          1           0      -10.839057    0.906076    2.868788
    123          1           0      -11.577712    0.426491    1.331829
    124          1           0      -12.724688    2.810973    1.212197
    125          1           0      -11.658292    3.158285    4.012699
    126          1           0      -13.374719    3.474112    3.655442
    127          1           0      -11.986383    4.159201    2.738253
    128          1           0      -14.319551    1.797438    3.159535
    129          1           0      -13.677792    0.303494    2.407878
    130          1           0      -14.847337    2.585453    0.701822
    131          1           0      -15.828090    1.431306    1.696075
    132          1           0      -15.544861   -0.284997    0.523038
    133          1           0      -13.862439    0.018316    0.138749
    134          1           0      -16.054994    1.779945   -1.104701
    135          1           0      -15.709155   -1.109356   -1.600638
    136          1           0      -15.688356   -0.091304   -3.117379
    137          1           0      -16.958832    0.078952   -1.895882
    138          1           0      -14.414642    2.485606   -2.508596
    139          1           0      -13.454784    0.937820   -2.414591
    140          1           0      -13.300157    2.238305   -1.248895
 ---------------------------------------------------------------------

 SCF Done:  E(RCAM-B3LYP) =  -3007.14671128     A.U. after   17 cycles

 Excitation energies and oscillator strengths:

 Excited State   1:      Singlet-A      1.6421 eV  755.02 nm  f=0.3621  <S**2>=0.000
     245 -> 248        0.17294
     246 -> 247        0.68651
     245 <- 248        0.10783
 This state for optimization and/or second-order correction.
 Total Energy, E(TD-HF/TD-DFT) =  -3007.08636406
 Copying the excited state density for this state as the 1-particle RhoCI density.

 Excited State   2:      Singlet-A      2.1689 eV  571.64 nm  f=0.1363  <S**2>=0.000
     245 -> 247        0.64863
     246 -> 248       -0.26551

 Excited State   3:      Singlet-A      3.3075 eV  374.86 nm  f=0.0040  <S**2>=0.000
     243 -> 247        0.67642
     246 -> 248        0.13182

 Excited State   4:      Singlet-A      3.4464 eV  359.75 nm  f=0.0680  <S**2>=0.000
     240 -> 247        0.12180
     240 -> 249        0.10534
     241 -> 247        0.43716
     241 -> 249        0.21382
     241 -> 250       -0.18237
     242 -> 247        0.25088
     246 -> 248        0.29326

 Excited State   5:      Singlet-A      3.5233 eV  351.90 nm  f=0.1182  <S**2>=0.000
     239 -> 247        0.11169
     240 -> 247       -0.12314
     241 -> 247       -0.26164
     241 -> 249       -0.16107
     241 -> 250        0.12308
     242 -> 247        0.46059
     245 -> 247        0.10512
     246 -> 248        0.32861

 The electronic state is 1-A.
 Alpha  occ. eigenvalues --  -46.88422 -19.25149 -19.24986 -19.20492 -19.19220
 Alpha  occ. eigenvalues --  -19.18869 -19.18814 -14.42207 -14.41761 -14.39444
 Alpha  occ. eigenvalues --  -14.39327 -10.39963 -10.39359 -10.35548 -10.34946
 Alpha  occ. eigenvalues --  -10.31895 -10.31658 -10.31330 -10.30998 -10.30601
 Alpha  occ. eigenvalues --  -10.30523 -10.30021 -10.29967 -10.29964 -10.29140
 Alpha  occ. eigenvalues --  -10.28986 -10.28876 -10.28492 -10.28275 -10.28129
 Alpha  occ. eigenvalues --  -10.28068 -10.28057 -10.27956 -10.27920 -10.27701
 Alpha  occ. eigenvalues --  -10.27474 -10.27320 -10.26702 -10.26686 -10.26584
 Alpha  occ. eigenvalues --  -10.26559 -10.26388 -10.26349 -10.26272 -10.26249
 Alpha  occ. eigenvalues --  -10.26220 -10.25823 -10.25736 -10.25696 -10.25398
 Alpha  occ. eigenvalues --  -10.25311 -10.25082 -10.25073 -10.24906 -10.24893
 Alpha  occ. eigenvalues --  -10.24888 -10.24789 -10.24753 -10.24654 -10.24557
 Alpha  occ. eigenvalues --  -10.24465 -10.24395 -10.24244 -10.24212 -10.23998
 Alpha  occ. eigenvalues --  -10.23938  -3.17031  -1.91916  -1.91484  -1.91339
 Alpha  occ. eigenvalues --   -1.15883  -1.15669  -1.09629  -1.07680  -1.07362
 Alpha  occ. eigenvalues --   -1.06563  -1.05164  -1.03694  -1.02796  -1.01881
 Alpha  occ. eigenvalues --   -0.92293  -0.90903  -0.90000  -0.89490  -0.89462
 Alpha  occ. eigenvalues --   -0.88242  -0.88037  -0.87840  -0.86901  -0.86328
 Alpha  occ. eigenvalues --   -0.86046  -0.85801  -0.84476  -0.84183  -0.83645
 Alpha  occ. eigenvalues --   -0.82539  -0.82078  -0.80911  -0.80444  -0.80187
 Alpha  occ. eigenvalues --   -0.79729  -0.78680  -0.78072  -0.77539  -0.76235
 Alpha  occ. eigenvalues --   -0.75724  -0.75700  -0.75299  -0.74487  -0.73899
 Alpha  occ. eigenvalues --   -0.73385  -0.72935  -0.72131  -0.70981  -0.69238
 Alpha  occ. eigenvalues --   -0.68715  -0.67777  -0.67185  -0.66950  -0.65706
 Alpha  occ. eigenvalues --   -0.64997  -0.64540  -0.64431  -0.64015  -0.63399
 Alpha  occ. eigenvalues --   -0.62882  -0.62719  -0.61894  -0.61515  -0.60209
 Alpha  occ. eigenvalues --   -0.59656  -0.59276  -0.59120  -0.58504  -0.58037
 Alpha  occ. eigenvalues --   -0.57249  -0.57086  -0.56224  -0.55953  -0.55879
 Alpha  occ. eigenvalues --   -0.55579  -0.55196  -0.55014  -0.54733  -0.54271
 Alpha  occ. eigenvalues --   -0.54121  -0.53414  -0.53197  -0.53064  -0.52867
 Alpha  occ. eigenvalues --   -0.52553  -0.52458  -0.52093  -0.51787  -0.51702
 Alpha  occ. eigenvalues --   -0.51383  -0.51209  -0.51007  -0.50706  -0.50590
 Alpha  occ. eigenvalues --   -0.50285  -0.49922  -0.49698  -0.49543  -0.49276
 Alpha  occ. eigenvalues --   -0.49055  -0.48920  -0.48804  -0.48724  -0.48612
 Alpha  occ. eigenvalues --   -0.48374  -0.48087  -0.48059  -0.47747  -0.47682
 Alpha  occ. eigenvalues --   -0.47597  -0.47134  -0.46809  -0.46644  -0.46488
 Alpha  occ. eigenvalues --   -0.46392  -0.46033  -0.45917  -0.45764  -0.45684
 Alpha  occ. eigenvalues --   -0.45505  -0.45350  -0.45181  -0.44980  -0.44809
 Alpha  occ. eigenvalues --   -0.44674  -0.44507  -0.44379  -0.43962  -0.43752
 Alpha  occ. eigenvalues --   -0.43584  -0.43348  -0.43315  -0.43089  -0.42995
 Alpha  occ. eigenvalues --   -0.42705  -0.42640  -0.42528  -0.42331  -0.42081
 Alpha  occ. eigenvalues --   -0.41861  -0.41822  -0.41781  -0.41637  -0.41494
 Alpha  occ. eigenvalues --   -0.41099  -0.41017  -0.40800  -0.40631  -0.40345
 Alpha  occ. eigenvalues --   -0.39977  -0.39853  -0.39171  -0.39116  -0.38780
 Alpha  occ. eigenvalues --   -0.38500  -0.38295  -0.38162  -0.37652  -0.37285
 Alpha  occ. eigenvalues --   -0.37176  -0.37140  -0.37059  -0.36387  -0.36235
 Alpha  occ. eigenvalues --   -0.35930  -0.34876  -0.34588  -0.34332  -0.34041
 Alpha  occ. eigenvalues --   -0.33860  -0.33586  -0.32715  -0.31372  -0.31048
 Alpha  occ. eigenvalues --   -0.30618  -0.30393  -0.29661  -0.28947  -0.23873
 Alpha  occ. eigenvalues --   -0.21131
 Alpha virt. eigenvalues --   -0.08919  -0.01587   0.00550   0.01966   0.02221
 Alpha virt. eigenvalues --    0.03340   0.05152   0.05599   0.05962   0.06716
 Alpha virt. eigenvalues --    0.07617   0.08227   0.08375   0.09065   0.09298

 Mulliken charges:
               1
     1  Mg   0.837672
     2  C   -0.012582
     3  C   -0.071449
     4  C   -0.027722
     5  C   -0.084500
     6  N   -0.285269
     7  C   -0.102868
     8  C    0.026926
     9  C   -0.043331
    10  C    0.022867
    11  C    0.079155
    12  C    0.083281
    13  C    0.063093
    14  C    0.164029
    15  O   -0.236836
    16  O   -0.358385
    17  N   -0.384037
    18  C    0.144270
    19  C   -0.140989
    20  C   -0.009636
    21  C    0.123100
    22  C    0.098902
    23  C    0.001028
    24  O   -0.208130
    25  C    0.028351
    26  N   -0.251912
    27  C   -0.012949
    28  C   -0.009428
    29  C   -0.027343
    30  C    0.016917
    31  C    0.089751
    32  C    0.011339
    33  C    0.026785
    34  N   -0.414356
    35  C    0.124374
    36  C   -0.198808
    37  C    0.018037
    38  C    0.116127
    39  C    0.120219
    40  C    0.077877
    41  O   -0.207354
    42  C    0.043587
    43  C    0.178551
    44  O   -0.237473
    45  O   -0.343284
    46  C    0.167518
    47  C    0.326007
    48  C   -0.140120
    49  C   -0.165337
    50  C    0.089454
    51  C    0.052031
    52  C   -0.002341
    53  C    0.029920
    54  C   -0.082227
    55  C    0.026515
    56  C    0.053495
    57  C    0.016469
    58  C    0.067609
    59  C   -0.124246
    60  C    0.037290
    61  C    0.061695
    62  C    0.011222
    63  C   -0.003158
    64  C   -0.157208
    65  C    0.052343
    66  C    0.042709
    67  H   -0.033746
    68  H   -0.005300
    69  H   -0.032547
    70  H    0.015135
    71  H    0.025072
    72  H    0.016015
    73  H    0.007759
    74  H    0.029740
    75  H    0.047681
    76  H    0.035362
    77  H    0.015362
    78  H    0.019449
    79  H    0.025087
    80  H    0.030035
    81  H    0.007648
    82  H    0.048880
    83  H    0.025759
    84  H    0.024276
    85  H    0.004762
    86  H    0.003199
    87  H    0.028137
    88  H    0.034270
    89  H   -0.006024
    90  H   -0.004158
    91  H    0.012611
    92  H    0.013046
    93  H    0.038622
    94  H    0.020217
    95  H    0.041822
    96  H    0.020072
    97  H    0.029230
    98  H    0.037194
    99  H    0.060933
   100  H    0.054375
   101  H    0.054221
   102  H    0.024036
   103  H    0.017184
   104  H   -0.026780
   105  H    0.005855
   106  H    0.009799
   107  H    0.040018
   108  H    0.005090
   109  H    0.003358
   110  H    0.007087
   111  H   -0.011075
   112  H   -0.002173
   113  H    0.000059
   114  H    0.002466
   115  H    0.003073
   116  H    0.011651
   117  H    0.003320
   118  H   -0.004239
   119  H   -0.006887
   120  H   -0.005376
   121  H   -0.015070
   122  H    0.002477
   123  H   -0.009199
   124  H   -0.007345
   125  H    0.002853
   126  H    0.013660
   127  H   -0.001824
   128  H   -0.023720
   129  H   -0.003982
   130  H    0.008681
   131  H   -0.008248
   132  H   -0.009187
   133  H   -0.005666
   134  H   -0.000989
   135  H    0.017159
   136  H    0.007474
   137  H    0.003223
   138  H    0.004019
   139  H    0.012761
   140  H    0.005023
 Sum of Mulliken charges =  -0.00000

 Dipole moment (field-independent basis, Debye):
    X=             -1.3737    Y=              3.1168    Z=             -1.6413  Tot=              3.7809
 Quadrupole moment (field-independent basis, Debye-Ang):
   XX=           -370.5257   YY=           -429.4401   ZZ=           -402.4106
   XY=             -4.3317   XZ=             -0.1968   YZ=             -9.1159

 Normal termination of Gaussian 16 at Thu May  5 06:54:43 2022.
