 Gaussian 16, Revision A.03,
 Gaussian 16:  ES64L-G16RevA.03 25-Dec-2016

 ---------------------------------
 #p PBE1PBE/Def2SVP td=(nstates=5)
 ---------------------------------

 ----------------------------------------------------
 step_751_chromophore_1 TDDFT with PBE1PBE functional
 ----------------------------------------------------
 Symbolic Z-matrix:
 Charge =  0 Multiplicity = 1

                         Standard orientation:
 ---------------------------------------------------------------------
 Center     Atomic      Atomic             Coordinates (Angstroms)
 Number     Number       Type             X           Y           Z
 ---------------------------------------------------------------------
      1         12           0        5.890532    0.409903    0.105429
      2          6           0        3.782823   -2.314251   -0.628159
      3          6           0        3.607699    2.438149   -1.658162
      4          6           0        8.036935    3.054849    0.401324
      5          6           0        8.525898   -1.687633    0.753617
      6          7           0        3.900351    0.075382   -0.898350
      7          6           0        3.285695   -1.133893   -1.151264
      8          6           0        1.904846   -0.960270   -1.846130
      9          6           0        1.974089    0.569850   -2.208531
     10          6           0        3.209537    1.056714   -1.591744
     11          6           0        1.842089    0.960187   -3.698689
     12          6           0        0.797986   -1.261580   -0.883923
     13          6           0       -0.650225   -0.764684   -1.191262
     14          6           0       -1.820721   -1.496990   -0.661576
     15          8           0       -2.320981   -2.532140   -1.092450
     16          8           0       -2.263534   -0.974938    0.575519
     17          7           0        5.793702    2.473798   -0.406442
     18          6           0        4.771210    3.109593   -1.090897
     19          6           0        5.007502    4.533263   -0.912458
     20          6           0        6.228908    4.734273   -0.242114
     21          6           0        6.718612    3.421881    0.034880
     22          6           0        3.948156    5.583738   -1.459181
     23          6           0        6.887472    5.996981    0.179248
     24          8           0        8.000046    6.046675    0.703458
     25          6           0        6.195796    7.308756   -0.140813
     26          7           0        8.015579    0.605258    0.308520
     27          6           0        8.685579    1.798638    0.476074
     28          6           0       10.159161    1.584138    0.683968
     29          6           0       10.192202    0.120359    1.168983
     30          6           0        8.830908   -0.332008    0.757324
     31          6           0       10.927611    1.748971   -0.680683
     32          6           0       10.242961   -0.059493    2.757980
     33          6           0        9.148275    0.453798    3.580595
     34          7           0        6.133369   -1.559846    0.207813
     35          6           0        7.284276   -2.324233    0.403938
     36          6           0        6.927536   -3.738440    0.330202
     37          6           0        5.579232   -3.729073    0.094673
     38          6           0        5.119711   -2.432819   -0.065627
     39          6           0        7.861438   -4.925839    0.634949
     40          6           0        4.355044   -4.572040   -0.099990
     41          8           0        4.197364   -5.816021    0.026625
     42          6           0        3.158689   -3.685728   -0.567967
     43          6           0        1.894326   -3.944241    0.244906
     44          8           0        1.660433   -3.515632    1.382656
     45          8           0        1.055218   -4.718685   -0.486591
     46          6           0       -0.280210   -5.024589    0.132084
     47          6           0       -3.353827   -1.749463    1.178095
     48          6           0       -4.634818   -1.531491    0.434654
     49          6           0       -5.387401   -2.520125   -0.051632
     50          6           0       -5.175459   -3.989555    0.113983
     51          6           0       -6.709006   -2.196161   -0.870360
     52          6           0       -7.817750   -1.725077    0.068946
     53          6           0       -8.732759   -0.679718   -0.697182
     54          6           0       -8.462065    0.832750   -0.474185
     55          6           0       -7.012936    1.344994   -0.881744
     56          6           0       -8.817542    1.164090    1.038718
     57          6           0      -10.151688    1.993965    1.177115
     58          6           0      -11.233694    1.275333    1.921702
     59          6           0      -12.475276    2.209574    2.086856
     60          6           0      -12.395819    3.270414    3.218931
     61          6           0      -13.837452    1.374625    2.278634
     62          6           0      -14.864517    1.629476    1.225097
     63          6           0      -14.848214    0.481945    0.184197
     64          6           0      -15.266205    1.040141   -1.247292
     65          6           0      -15.901153   -0.134644   -2.048159
     66          6           0      -14.015521    1.697932   -1.870178
     67          1           0        2.854731    3.045294   -2.164490
     68          1           0        8.777658    3.852938    0.475901
     69          1           0        9.359126   -2.349951    0.996719
     70          1           0        2.122082   -1.661574   -2.651035
     71          1           0        1.187982    1.062013   -1.634910
     72          1           0        0.945989    1.553245   -3.880048
     73          1           0        1.722019    0.032088   -4.257084
     74          1           0        2.709166    1.454580   -4.137651
     75          1           0        0.978781   -0.997255    0.158020
     76          1           0        0.544141   -2.309531   -1.046637
     77          1           0       -0.744538   -0.619597   -2.267794
     78          1           0       -1.021837    0.180360   -0.794946
     79          1           0        4.431601    6.446807   -1.917380
     80          1           0        3.286052    5.940808   -0.670399
     81          1           0        3.240941    5.089497   -2.124447
     82          1           0        6.192955    7.593435   -1.193404
     83          1           0        6.752020    8.053047    0.429664
     84          1           0        5.157454    7.287898    0.189029
     85          1           0       10.551681    2.220375    1.477271
     86          1           0       10.975871   -0.446963    0.666434
     87          1           0       11.647431    2.565965   -0.626074
     88          1           0       10.322755    1.723409   -1.588156
     89          1           0       11.547483    0.862222   -0.815072
     90          1           0       11.116017    0.550473    2.990137
     91          1           0       10.474403   -1.085367    3.047350
     92          1           0        9.137951   -0.243290    4.418950
     93          1           0        8.176480    0.438724    3.086879
     94          1           0        9.438638    1.428357    3.974103
     95          1           0        7.216389   -5.794486    0.766377
     96          1           0        8.403227   -4.853894    1.577137
     97          1           0        8.607518   -4.897672   -0.159608
     98          1           0        2.847792   -4.013847   -1.560255
     99          1           0       -0.614042   -4.216762    0.782382
    100          1           0       -0.119515   -5.995660    0.599996
    101          1           0       -0.897911   -5.103268   -0.763704
    102          1           0       -3.654539   -1.341966    2.143335
    103          1           0       -3.099959   -2.800035    1.318481
    104          1           0       -4.977392   -0.544520    0.122520
    105          1           0       -6.077148   -4.577169   -0.056518
    106          1           0       -4.831939   -4.184718    1.129773
    107          1           0       -4.396879   -4.332333   -0.567794
    108          1           0       -7.199028   -2.981342   -1.445338
    109          1           0       -6.467140   -1.313665   -1.462437
    110          1           0       -7.444433   -1.355013    1.023732
    111          1           0       -8.306705   -2.672449    0.296781
    112          1           0       -9.724302   -0.901300   -0.302280
    113          1           0       -8.664368   -0.903748   -1.761355
    114          1           0       -9.127338    1.378425   -1.142492
    115          1           0       -6.500286    1.730276   -0.000115
    116          1           0       -6.970430    2.114276   -1.653329
    117          1           0       -6.325523    0.556417   -1.188561
    118          1           0       -8.023638    1.576576    1.661531
    119          1           0       -8.952307    0.186724    1.499814
    120          1           0      -10.503122    2.332369    0.201965
    121          1           0       -9.963629    2.887576    1.773115
    122          1           0      -10.839057    0.906076    2.868788
    123          1           0      -11.577712    0.426491    1.331829
    124          1           0      -12.724688    2.810973    1.212197
    125          1           0      -11.658292    3.158285    4.012699
    126          1           0      -13.374719    3.474112    3.655442
    127          1           0      -11.986383    4.159201    2.738253
    128          1           0      -14.319551    1.797438    3.159535
    129          1           0      -13.677792    0.303494    2.407878
    130          1           0      -14.847337    2.585453    0.701822
    131          1           0      -15.828090    1.431306    1.696075
    132          1           0      -15.544861   -0.284997    0.523038
    133          1           0      -13.862439    0.018316    0.138749
    134          1           0      -16.054994    1.779945   -1.104701
    135          1           0      -15.709155   -1.109356   -1.600638
    136          1           0      -15.688356   -0.091304   -3.117379
    137          1           0      -16.958832    0.078952   -1.895882
    138          1           0      -14.414642    2.485606   -2.508596
    139          1           0      -13.454784    0.937820   -2.414591
    140          1           0      -13.300157    2.238305   -1.248895
 ---------------------------------------------------------------------

 SCF Done:  E(RPBE1PBE) =  -3005.33584671     A.U. after   15 cycles

 Excitation energies and oscillator strengths:

 Excited State   1:      Singlet-A      1.8097 eV  685.12 nm  f=0.3502  <S**2>=0.000
     245 -> 248       -0.16373
     246 -> 247        0.69431
     246 <- 247       -0.11306
 This state for optimization and/or second-order correction.
 Total Energy, E(TD-HF/TD-DFT) =  -3005.26934207
 Copying the excited state density for this state as the 1-particle RhoCI density.

 Excited State   2:      Singlet-A      2.1792 eV  568.94 nm  f=0.1264  <S**2>=0.000
     245 -> 247        0.65777
     246 -> 248        0.24184

 Excited State   3:      Singlet-A      2.9392 eV  421.83 nm  f=0.0004  <S**2>=0.000
     242 -> 247        0.32455
     242 -> 249       -0.12007
     243 -> 247        0.59227

 Excited State   4:      Singlet-A      3.0335 eV  408.71 nm  f=0.0006  <S**2>=0.000
     242 -> 247        0.58330
     243 -> 247       -0.35425
     246 -> 248       -0.12365

 Excited State   5:      Singlet-A      3.0893 eV  401.33 nm  f=0.0002  <S**2>=0.000
     241 -> 247        0.66778
     241 -> 248        0.10588
     241 -> 249        0.11912

 The electronic state is 1-A.
 Alpha  occ. eigenvalues --  -46.91834 -19.25855 -19.25679 -19.20694 -19.19496
 Alpha  occ. eigenvalues --  -19.19099 -19.18989 -14.41788 -14.41194 -14.39130
 Alpha  occ. eigenvalues --  -14.39023 -10.36953 -10.36423 -10.32742 -10.32021
 Alpha  occ. eigenvalues --  -10.29307 -10.29017 -10.28908 -10.28744 -10.28338
 Alpha  occ. eigenvalues --  -10.28218 -10.27799 -10.27691 -10.27655 -10.26847
 Alpha  occ. eigenvalues --  -10.26791 -10.26584 -10.26117 -10.26061 -10.25917
 Alpha  occ. eigenvalues --  -10.25773 -10.25743 -10.25608 -10.25572 -10.25446
 Alpha  occ. eigenvalues --  -10.25329 -10.24753 -10.24326 -10.24283 -10.24209
 Alpha  occ. eigenvalues --  -10.24164 -10.24064 -10.24005 -10.23869 -10.23770
 Alpha  occ. eigenvalues --  -10.23640 -10.23508 -10.23467 -10.23107 -10.22941
 Alpha  occ. eigenvalues --  -10.22909 -10.22672 -10.22510 -10.22476 -10.22473
 Alpha  occ. eigenvalues --  -10.22311 -10.22274 -10.22186 -10.22178 -10.22133
 Alpha  occ. eigenvalues --  -10.21847 -10.21788 -10.21786 -10.21649 -10.21538
 Alpha  occ. eigenvalues --  -10.21518  -3.14022  -1.86846  -1.86393  -1.86253
 Alpha  occ. eigenvalues --   -1.10631  -1.10470  -1.04307  -1.02386  -1.02191
 Alpha  occ. eigenvalues --   -1.01402  -0.99759  -0.98313  -0.97458  -0.96544
 Alpha  occ. eigenvalues --   -0.86652  -0.85117  -0.84111  -0.83782  -0.83557
 Alpha  occ. eigenvalues --   -0.82430  -0.82307  -0.82126  -0.81032  -0.80564
 Alpha  occ. eigenvalues --   -0.80364  -0.80083  -0.78720  -0.78394  -0.77922
 Alpha  occ. eigenvalues --   -0.76763  -0.76331  -0.75104  -0.74689  -0.74436
 Alpha  occ. eigenvalues --   -0.73927  -0.72930  -0.72345  -0.71852  -0.70565
 Alpha  occ. eigenvalues --   -0.69818  -0.69799  -0.69643  -0.68701  -0.68158
 Alpha  occ. eigenvalues --   -0.67576  -0.67347  -0.66467  -0.65365  -0.63590
 Alpha  occ. eigenvalues --   -0.63143  -0.62014  -0.61651  -0.61121  -0.60200
 Alpha  occ. eigenvalues --   -0.59433  -0.59112  -0.58634  -0.58610  -0.57525
 Alpha  occ. eigenvalues --   -0.57343  -0.56942  -0.56151  -0.56106  -0.54726
 Alpha  occ. eigenvalues --   -0.54162  -0.53718  -0.53616  -0.53122  -0.52530
 Alpha  occ. eigenvalues --   -0.51748  -0.51589  -0.50703  -0.50512  -0.50393
 Alpha  occ. eigenvalues --   -0.50104  -0.49705  -0.49478  -0.49225  -0.48839
 Alpha  occ. eigenvalues --   -0.48452  -0.47949  -0.47667  -0.47665  -0.47333
 Alpha  occ. eigenvalues --   -0.47105  -0.46982  -0.46745  -0.46247  -0.46048
 Alpha  occ. eigenvalues --   -0.45863  -0.45765  -0.45585  -0.45362  -0.45243
 Alpha  occ. eigenvalues --   -0.44837  -0.44523  -0.44274  -0.44143  -0.43829
 Alpha  occ. eigenvalues --   -0.43629  -0.43484  -0.43399  -0.43315  -0.43210
 Alpha  occ. eigenvalues --   -0.43061  -0.42718  -0.42646  -0.42378  -0.42362
 Alpha  occ. eigenvalues --   -0.42197  -0.41796  -0.41486  -0.41320  -0.41126
 Alpha  occ. eigenvalues --   -0.41073  -0.40751  -0.40529  -0.40459  -0.40368
 Alpha  occ. eigenvalues --   -0.40236  -0.40087  -0.39811  -0.39769  -0.39505
 Alpha  occ. eigenvalues --   -0.39402  -0.39259  -0.39170  -0.38603  -0.38528
 Alpha  occ. eigenvalues --   -0.38354  -0.38190  -0.37976  -0.37856  -0.37796
 Alpha  occ. eigenvalues --   -0.37561  -0.37419  -0.37281  -0.37058  -0.36888
 Alpha  occ. eigenvalues --   -0.36702  -0.36584  -0.36554  -0.36431  -0.36341
 Alpha  occ. eigenvalues --   -0.35974  -0.35837  -0.35537  -0.35499  -0.35119
 Alpha  occ. eigenvalues --   -0.34804  -0.34767  -0.34062  -0.33964  -0.33749
 Alpha  occ. eigenvalues --   -0.33308  -0.33073  -0.32886  -0.32648  -0.32190
 Alpha  occ. eigenvalues --   -0.32120  -0.32068  -0.31842  -0.31465  -0.31257
 Alpha  occ. eigenvalues --   -0.30831  -0.30049  -0.29550  -0.29103  -0.29054
 Alpha  occ. eigenvalues --   -0.28898  -0.28547  -0.28186  -0.26847  -0.26002
 Alpha  occ. eigenvalues --   -0.25795  -0.25582  -0.25227  -0.24222  -0.20804
 Alpha  occ. eigenvalues --   -0.18754
 Alpha virt. eigenvalues --   -0.11328  -0.05149  -0.03685  -0.02431  -0.01345
 Alpha virt. eigenvalues --   -0.00548   0.00489   0.01172   0.01527   0.03059
 Alpha virt. eigenvalues --    0.03534   0.04640   0.05024   0.05416   0.05868

 Mulliken charges:
               1
     1  Mg   0.985281
     2  C   -0.024782
     3  C   -0.069486
     4  C   -0.024910
     5  C   -0.065982
     6  N   -0.382285
     7  C   -0.027436
     8  C   -0.050924
     9  C   -0.126039
    10  C    0.066536
    11  C    0.019999
    12  C    0.020087
    13  C   -0.002894
    14  C    0.228705
    15  O   -0.267949
    16  O   -0.388109
    17  N   -0.492892
    18  C    0.174159
    19  C   -0.166230
    20  C   -0.067471
    21  C    0.162172
    22  C    0.039171
    23  C    0.051965
    24  O   -0.245859
    25  C   -0.044280
    26  N   -0.352484
    27  C    0.017663
    28  C   -0.090561
    29  C   -0.104037
    30  C    0.044226
    31  C    0.037781
    32  C   -0.045357
    33  C   -0.048625
    34  N   -0.540569
    35  C    0.145805
    36  C   -0.213361
    37  C   -0.042069
    38  C    0.172180
    39  C    0.066371
    40  C    0.174248
    41  O   -0.250860
    42  C   -0.056811
    43  C    0.261828
    44  O   -0.272459
    45  O   -0.374238
    46  C    0.111221
    47  C    0.277605
    48  C   -0.167805
    49  C   -0.193666
    50  C    0.026386
    51  C   -0.021098
    52  C   -0.054187
    53  C   -0.039133
    54  C   -0.162816
    55  C   -0.033570
    56  C    0.000704
    57  C   -0.047466
    58  C    0.004325
    59  C   -0.206884
    60  C   -0.018297
    61  C    0.005520
    62  C   -0.056585
    63  C   -0.055311
    64  C   -0.250328
    65  C   -0.009204
    66  C   -0.020091
    67  H   -0.000091
    68  H    0.026445
    69  H   -0.001464
    70  H    0.050963
    71  H    0.064008
    72  H    0.043021
    73  H    0.036213
    74  H    0.056636
    75  H    0.078406
    76  H    0.076387
    77  H    0.048800
    78  H    0.049625
    79  H    0.052888
    80  H    0.057718
    81  H    0.036074
    82  H    0.074558
    83  H    0.053457
    84  H    0.051593
    85  H    0.040182
    86  H    0.037950
    87  H    0.055474
    88  H    0.061131
    89  H    0.021903
    90  H    0.030957
    91  H    0.044086
    92  H    0.041864
    93  H    0.070835
    94  H    0.047529
    95  H    0.069043
    96  H    0.046912
    97  H    0.056775
    98  H    0.074662
    99  H    0.082733
   100  H    0.076676
   101  H    0.075415
   102  H    0.052176
   103  H    0.044903
   104  H    0.010540
   105  H    0.033225
   106  H    0.037217
   107  H    0.068394
   108  H    0.036959
   109  H    0.041374
   110  H    0.038195
   111  H    0.022602
   112  H    0.033829
   113  H    0.033271
   114  H    0.039691
   115  H    0.029958
   116  H    0.039546
   117  H    0.030144
   118  H    0.026373
   119  H    0.027025
   120  H    0.026924
   121  H    0.020621
   122  H    0.034548
   123  H    0.027213
   124  H    0.031971
   125  H    0.029902
   126  H    0.040307
   127  H    0.025274
   128  H    0.009982
   129  H    0.027681
   130  H    0.039365
   131  H    0.027197
   132  H    0.023438
   133  H    0.028675
   134  H    0.035957
   135  H    0.043964
   136  H    0.035008
   137  H    0.031682
   138  H    0.032504
   139  H    0.040070
   140  H    0.034393
 Sum of Mulliken charges =  -0.00000

 Dipole moment (field-independent basis, Debye):
    X=             -1.3650    Y=              3.0409    Z=             -1.6006  Tot=              3.6976
 Quadrupole moment (field-independent basis, Debye-Ang):
   XX=           -364.3513   YY=           -427.0276   ZZ=           -399.6027
   XY=             -4.8930   XZ=              0.6563   YZ=             -9.3334

 Normal termination of Gaussian 16 at Thu May  5 07:14:47 2022.
