 Gaussian 16, Revision A.03,
 Gaussian 16:  ES64L-G16RevA.03 25-Dec-2016

 --------------------------------
 #p wB97XD/Def2SVP td=(nstates=5)
 --------------------------------

 ---------------------------------------------------
 step_751_chromophore_1 TDDFT with wB97XD functional
 ---------------------------------------------------
 Symbolic Z-matrix:
 Charge =  0 Multiplicity = 1

                         Standard orientation:
 ---------------------------------------------------------------------
 Center     Atomic      Atomic             Coordinates (Angstroms)
 Number     Number       Type             X           Y           Z
 ---------------------------------------------------------------------
      1         12           0        5.890532    0.409903    0.105429
      2          6           0        3.782823   -2.314251   -0.628159
      3          6           0        3.607699    2.438149   -1.658162
      4          6           0        8.036935    3.054849    0.401324
      5          6           0        8.525898   -1.687633    0.753617
      6          7           0        3.900351    0.075382   -0.898350
      7          6           0        3.285695   -1.133893   -1.151264
      8          6           0        1.904846   -0.960270   -1.846130
      9          6           0        1.974089    0.569850   -2.208531
     10          6           0        3.209537    1.056714   -1.591744
     11          6           0        1.842089    0.960187   -3.698689
     12          6           0        0.797986   -1.261580   -0.883923
     13          6           0       -0.650225   -0.764684   -1.191262
     14          6           0       -1.820721   -1.496990   -0.661576
     15          8           0       -2.320981   -2.532140   -1.092450
     16          8           0       -2.263534   -0.974938    0.575519
     17          7           0        5.793702    2.473798   -0.406442
     18          6           0        4.771210    3.109593   -1.090897
     19          6           0        5.007502    4.533263   -0.912458
     20          6           0        6.228908    4.734273   -0.242114
     21          6           0        6.718612    3.421881    0.034880
     22          6           0        3.948156    5.583738   -1.459181
     23          6           0        6.887472    5.996981    0.179248
     24          8           0        8.000046    6.046675    0.703458
     25          6           0        6.195796    7.308756   -0.140813
     26          7           0        8.015579    0.605258    0.308520
     27          6           0        8.685579    1.798638    0.476074
     28          6           0       10.159161    1.584138    0.683968
     29          6           0       10.192202    0.120359    1.168983
     30          6           0        8.830908   -0.332008    0.757324
     31          6           0       10.927611    1.748971   -0.680683
     32          6           0       10.242961   -0.059493    2.757980
     33          6           0        9.148275    0.453798    3.580595
     34          7           0        6.133369   -1.559846    0.207813
     35          6           0        7.284276   -2.324233    0.403938
     36          6           0        6.927536   -3.738440    0.330202
     37          6           0        5.579232   -3.729073    0.094673
     38          6           0        5.119711   -2.432819   -0.065627
     39          6           0        7.861438   -4.925839    0.634949
     40          6           0        4.355044   -4.572040   -0.099990
     41          8           0        4.197364   -5.816021    0.026625
     42          6           0        3.158689   -3.685728   -0.567967
     43          6           0        1.894326   -3.944241    0.244906
     44          8           0        1.660433   -3.515632    1.382656
     45          8           0        1.055218   -4.718685   -0.486591
     46          6           0       -0.280210   -5.024589    0.132084
     47          6           0       -3.353827   -1.749463    1.178095
     48          6           0       -4.634818   -1.531491    0.434654
     49          6           0       -5.387401   -2.520125   -0.051632
     50          6           0       -5.175459   -3.989555    0.113983
     51          6           0       -6.709006   -2.196161   -0.870360
     52          6           0       -7.817750   -1.725077    0.068946
     53          6           0       -8.732759   -0.679718   -0.697182
     54          6           0       -8.462065    0.832750   -0.474185
     55          6           0       -7.012936    1.344994   -0.881744
     56          6           0       -8.817542    1.164090    1.038718
     57          6           0      -10.151688    1.993965    1.177115
     58          6           0      -11.233694    1.275333    1.921702
     59          6           0      -12.475276    2.209574    2.086856
     60          6           0      -12.395819    3.270414    3.218931
     61          6           0      -13.837452    1.374625    2.278634
     62          6           0      -14.864517    1.629476    1.225097
     63          6           0      -14.848214    0.481945    0.184197
     64          6           0      -15.266205    1.040141   -1.247292
     65          6           0      -15.901153   -0.134644   -2.048159
     66          6           0      -14.015521    1.697932   -1.870178
     67          1           0        2.854731    3.045294   -2.164490
     68          1           0        8.777658    3.852938    0.475901
     69          1           0        9.359126   -2.349951    0.996719
     70          1           0        2.122082   -1.661574   -2.651035
     71          1           0        1.187982    1.062013   -1.634910
     72          1           0        0.945989    1.553245   -3.880048
     73          1           0        1.722019    0.032088   -4.257084
     74          1           0        2.709166    1.454580   -4.137651
     75          1           0        0.978781   -0.997255    0.158020
     76          1           0        0.544141   -2.309531   -1.046637
     77          1           0       -0.744538   -0.619597   -2.267794
     78          1           0       -1.021837    0.180360   -0.794946
     79          1           0        4.431601    6.446807   -1.917380
     80          1           0        3.286052    5.940808   -0.670399
     81          1           0        3.240941    5.089497   -2.124447
     82          1           0        6.192955    7.593435   -1.193404
     83          1           0        6.752020    8.053047    0.429664
     84          1           0        5.157454    7.287898    0.189029
     85          1           0       10.551681    2.220375    1.477271
     86          1           0       10.975871   -0.446963    0.666434
     87          1           0       11.647431    2.565965   -0.626074
     88          1           0       10.322755    1.723409   -1.588156
     89          1           0       11.547483    0.862222   -0.815072
     90          1           0       11.116017    0.550473    2.990137
     91          1           0       10.474403   -1.085367    3.047350
     92          1           0        9.137951   -0.243290    4.418950
     93          1           0        8.176480    0.438724    3.086879
     94          1           0        9.438638    1.428357    3.974103
     95          1           0        7.216389   -5.794486    0.766377
     96          1           0        8.403227   -4.853894    1.577137
     97          1           0        8.607518   -4.897672   -0.159608
     98          1           0        2.847792   -4.013847   -1.560255
     99          1           0       -0.614042   -4.216762    0.782382
    100          1           0       -0.119515   -5.995660    0.599996
    101          1           0       -0.897911   -5.103268   -0.763704
    102          1           0       -3.654539   -1.341966    2.143335
    103          1           0       -3.099959   -2.800035    1.318481
    104          1           0       -4.977392   -0.544520    0.122520
    105          1           0       -6.077148   -4.577169   -0.056518
    106          1           0       -4.831939   -4.184718    1.129773
    107          1           0       -4.396879   -4.332333   -0.567794
    108          1           0       -7.199028   -2.981342   -1.445338
    109          1           0       -6.467140   -1.313665   -1.462437
    110          1           0       -7.444433   -1.355013    1.023732
    111          1           0       -8.306705   -2.672449    0.296781
    112          1           0       -9.724302   -0.901300   -0.302280
    113          1           0       -8.664368   -0.903748   -1.761355
    114          1           0       -9.127338    1.378425   -1.142492
    115          1           0       -6.500286    1.730276   -0.000115
    116          1           0       -6.970430    2.114276   -1.653329
    117          1           0       -6.325523    0.556417   -1.188561
    118          1           0       -8.023638    1.576576    1.661531
    119          1           0       -8.952307    0.186724    1.499814
    120          1           0      -10.503122    2.332369    0.201965
    121          1           0       -9.963629    2.887576    1.773115
    122          1           0      -10.839057    0.906076    2.868788
    123          1           0      -11.577712    0.426491    1.331829
    124          1           0      -12.724688    2.810973    1.212197
    125          1           0      -11.658292    3.158285    4.012699
    126          1           0      -13.374719    3.474112    3.655442
    127          1           0      -11.986383    4.159201    2.738253
    128          1           0      -14.319551    1.797438    3.159535
    129          1           0      -13.677792    0.303494    2.407878
    130          1           0      -14.847337    2.585453    0.701822
    131          1           0      -15.828090    1.431306    1.696075
    132          1           0      -15.544861   -0.284997    0.523038
    133          1           0      -13.862439    0.018316    0.138749
    134          1           0      -16.054994    1.779945   -1.104701
    135          1           0      -15.709155   -1.109356   -1.600638
    136          1           0      -15.688356   -0.091304   -3.117379
    137          1           0      -16.958832    0.078952   -1.895882
    138          1           0      -14.414642    2.485606   -2.508596
    139          1           0      -13.454784    0.937820   -2.414591
    140          1           0      -13.300157    2.238305   -1.248895
 ---------------------------------------------------------------------

 SCF Done:  E(RwB97XD) =  -3007.84990246     A.U. after   17 cycles

 Excitation energies and oscillator strengths:

 Excited State   1:      Singlet-A      1.5814 eV  784.02 nm  f=0.3611  <S**2>=0.000
     245 -> 248        0.17906
     246 -> 247        0.68421
     245 <- 248        0.11757
 This state for optimization and/or second-order correction.
 Total Energy, E(TD-HF/TD-DFT) =  -3007.79178716
 Copying the excited state density for this state as the 1-particle RhoCI density.

 Excited State   2:      Singlet-A      2.1115 eV  587.19 nm  f=0.1335  <S**2>=0.000
     245 -> 247        0.64687
     246 -> 248       -0.26771

 Excited State   3:      Singlet-A      3.3223 eV  373.19 nm  f=0.0053  <S**2>=0.000
     243 -> 247        0.67244
     246 -> 248        0.13569

 Excited State   4:      Singlet-A      3.4702 eV  357.29 nm  f=0.1008  <S**2>=0.000
     241 -> 247        0.31075
     241 -> 249        0.19725
     241 -> 250       -0.17572
     242 -> 247        0.39219
     245 -> 247        0.10338
     246 -> 248        0.34193

 Excited State   5:      Singlet-A      3.5442 eV  349.82 nm  f=0.0980  <S**2>=0.000
     239 -> 247       -0.11618
     241 -> 247        0.41575
     241 -> 249        0.22255
     241 -> 250       -0.16615
     242 -> 247       -0.32639
     246 -> 248       -0.28554

 The electronic state is 1-A.
 Alpha  occ. eigenvalues --  -46.94754 -19.30378 -19.30231 -19.25392 -19.24184
 Alpha  occ. eigenvalues --  -19.23932 -19.23838 -14.46792 -14.46370 -14.44060
 Alpha  occ. eigenvalues --  -14.43926 -10.43758 -10.43231 -10.39594 -10.38905
 Alpha  occ. eigenvalues --  -10.35775 -10.35417 -10.35352 -10.35024 -10.34636
 Alpha  occ. eigenvalues --  -10.34589 -10.34056 -10.34007 -10.33931 -10.33145
 Alpha  occ. eigenvalues --  -10.33046 -10.33043 -10.32534 -10.32302 -10.32156
 Alpha  occ. eigenvalues --  -10.32138 -10.32041 -10.31996 -10.31996 -10.31768
 Alpha  occ. eigenvalues --  -10.31528 -10.31275 -10.30761 -10.30629 -10.30598
 Alpha  occ. eigenvalues --  -10.30550 -10.30393 -10.30347 -10.30280 -10.30114
 Alpha  occ. eigenvalues --  -10.30100 -10.29774 -10.29745 -10.29563 -10.29424
 Alpha  occ. eigenvalues --  -10.29255 -10.29026 -10.28888 -10.28859 -10.28829
 Alpha  occ. eigenvalues --  -10.28728 -10.28702 -10.28614 -10.28564 -10.28482
 Alpha  occ. eigenvalues --  -10.28277 -10.28202 -10.28133 -10.28077 -10.27896
 Alpha  occ. eigenvalues --  -10.27863  -3.20807  -1.94381  -1.93930  -1.93781
 Alpha  occ. eigenvalues --   -1.18025  -1.17848  -1.11836  -1.09908  -1.09553
 Alpha  occ. eigenvalues --   -1.08760  -1.07166  -1.05690  -1.04819  -1.03930
 Alpha  occ. eigenvalues --   -0.94262  -0.92749  -0.91783  -0.91345  -0.91226
 Alpha  occ. eigenvalues --   -0.90058  -0.89940  -0.89734  -0.88694  -0.88274
 Alpha  occ. eigenvalues --   -0.87969  -0.87714  -0.86337  -0.86031  -0.85556
 Alpha  occ. eigenvalues --   -0.84406  -0.83977  -0.82838  -0.82335  -0.82107
 Alpha  occ. eigenvalues --   -0.81580  -0.80571  -0.80019  -0.79451  -0.78182
 Alpha  occ. eigenvalues --   -0.77517  -0.77497  -0.77236  -0.76345  -0.75782
 Alpha  occ. eigenvalues --   -0.75227  -0.74910  -0.74055  -0.72934  -0.71169
 Alpha  occ. eigenvalues --   -0.70690  -0.69649  -0.69197  -0.68795  -0.67678
 Alpha  occ. eigenvalues --   -0.66934  -0.66549  -0.66276  -0.66029  -0.65198
 Alpha  occ. eigenvalues --   -0.64830  -0.64577  -0.63756  -0.63515  -0.62187
 Alpha  occ. eigenvalues --   -0.61606  -0.61159  -0.61114  -0.60500  -0.59994
 Alpha  occ. eigenvalues --   -0.59185  -0.59057  -0.58135  -0.57918  -0.57819
 Alpha  occ. eigenvalues --   -0.57520  -0.57137  -0.56932  -0.56652  -0.56226
 Alpha  occ. eigenvalues --   -0.55961  -0.55301  -0.55070  -0.54999  -0.54733
 Alpha  occ. eigenvalues --   -0.54423  -0.54395  -0.54026  -0.53702  -0.53605
 Alpha  occ. eigenvalues --   -0.53246  -0.53133  -0.52954  -0.52609  -0.52524
 Alpha  occ. eigenvalues --   -0.52153  -0.51821  -0.51595  -0.51433  -0.51209
 Alpha  occ. eigenvalues --   -0.50974  -0.50834  -0.50720  -0.50624  -0.50509
 Alpha  occ. eigenvalues --   -0.50286  -0.50049  -0.49976  -0.49637  -0.49616
 Alpha  occ. eigenvalues --   -0.49494  -0.49065  -0.48697  -0.48578  -0.48346
 Alpha  occ. eigenvalues --   -0.48299  -0.47939  -0.47768  -0.47622  -0.47586
 Alpha  occ. eigenvalues --   -0.47403  -0.47260  -0.47036  -0.46898  -0.46706
 Alpha  occ. eigenvalues --   -0.46572  -0.46423  -0.46302  -0.45812  -0.45676
 Alpha  occ. eigenvalues --   -0.45509  -0.45287  -0.45166  -0.44976  -0.44951
 Alpha  occ. eigenvalues --   -0.44609  -0.44557  -0.44434  -0.44197  -0.44012
 Alpha  occ. eigenvalues --   -0.43823  -0.43743  -0.43691  -0.43507  -0.43384
 Alpha  occ. eigenvalues --   -0.43077  -0.42924  -0.42639  -0.42517  -0.42199
 Alpha  occ. eigenvalues --   -0.41858  -0.41764  -0.41033  -0.41011  -0.40691
 Alpha  occ. eigenvalues --   -0.40345  -0.40140  -0.39981  -0.39575  -0.39140
 Alpha  occ. eigenvalues --   -0.39135  -0.39083  -0.38885  -0.38478  -0.38305
 Alpha  occ. eigenvalues --   -0.37800  -0.36868  -0.36454  -0.36220  -0.35887
 Alpha  occ. eigenvalues --   -0.35862  -0.35421  -0.34930  -0.33501  -0.33010
 Alpha  occ. eigenvalues --   -0.32624  -0.32544  -0.31837  -0.30963  -0.25779
 Alpha  occ. eigenvalues --   -0.22934
 Alpha virt. eigenvalues --   -0.07273   0.00341   0.02607   0.04065   0.05291
 Alpha virt. eigenvalues --    0.05625   0.07315   0.07946   0.08208   0.09678
 Alpha virt. eigenvalues --    0.10018   0.11278   0.11677   0.12216   0.12628

 Mulliken charges:
               1
     1  Mg   0.972528
     2  C   -0.031496
     3  C   -0.086073
     4  C   -0.037351
     5  C   -0.086701
     6  N   -0.352591
     7  C   -0.056102
     8  C   -0.025939
     9  C   -0.098303
    10  C    0.055163
    11  C    0.029976
    12  C    0.041769
    13  C    0.009410
    14  C    0.216759
    15  O   -0.263947
    16  O   -0.389226
    17  N   -0.463171
    18  C    0.165224
    19  C   -0.160071
    20  C   -0.055912
    21  C    0.149155
    22  C    0.053772
    23  C    0.047164
    24  O   -0.239842
    25  C   -0.032273
    26  N   -0.319542
    27  C    0.005729
    28  C   -0.065838
    29  C   -0.080260
    30  C    0.038210
    31  C    0.043935
    32  C   -0.031908
    33  C   -0.031175
    34  N   -0.505957
    35  C    0.135953
    36  C   -0.209317
    37  C   -0.033239
    38  C    0.154571
    39  C    0.076356
    40  C    0.153642
    41  O   -0.241236
    42  C   -0.020479
    43  C    0.240505
    44  O   -0.266501
    45  O   -0.372970
    46  C    0.125798
    47  C    0.300579
    48  C   -0.169912
    49  C   -0.182667
    50  C    0.036592
    51  C    0.004037
    52  C   -0.045411
    53  C   -0.010168
    54  C   -0.141158
    55  C   -0.017946
    56  C    0.016352
    57  C   -0.028051
    58  C    0.024727
    59  C   -0.177865
    60  C   -0.008555
    61  C    0.022398
    62  C   -0.038107
    63  C   -0.039832
    64  C   -0.218512
    65  C    0.001823
    66  C   -0.007682
    67  H   -0.009199
    68  H    0.022367
    69  H   -0.005346
    70  H    0.042050
    71  H    0.051186
    72  H    0.038182
    73  H    0.030156
    74  H    0.051292
    75  H    0.074046
    76  H    0.056269
    77  H    0.042722
    78  H    0.043097
    79  H    0.046333
    80  H    0.052896
    81  H    0.031202
    82  H    0.070390
    83  H    0.052021
    84  H    0.045056
    85  H    0.032139
    86  H    0.029825
    87  H    0.050899
    88  H    0.056351
    89  H    0.014821
    90  H    0.021842
    91  H    0.037167
    92  H    0.037006
    93  H    0.058899
    94  H    0.042508
    95  H    0.066007
    96  H    0.041966
    97  H    0.051622
    98  H    0.067609
    99  H    0.076838
   100  H    0.074069
   101  H    0.073444
   102  H    0.047604
   103  H    0.036663
   104  H   -0.000073
   105  H    0.028817
   106  H    0.030763
   107  H    0.063728
   108  H    0.030994
   109  H    0.025652
   110  H    0.026950
   111  H    0.015200
   112  H    0.022198
   113  H    0.024371
   114  H    0.029147
   115  H    0.022772
   116  H    0.035867
   117  H    0.018753
   118  H    0.020162
   119  H    0.012171
   120  H    0.016728
   121  H    0.010451
   122  H    0.027048
   123  H    0.012489
   124  H    0.014206
   125  H    0.024563
   126  H    0.034468
   127  H    0.018861
   128  H    0.000557
   129  H    0.019503
   130  H    0.029322
   131  H    0.019041
   132  H    0.014928
   133  H    0.015174
   134  H    0.024821
   135  H    0.038013
   136  H    0.030226
   137  H    0.025430
   138  H    0.026819
   139  H    0.034003
   140  H    0.025041
 Sum of Mulliken charges =  -0.00000

 Dipole moment (field-independent basis, Debye):
    X=             -1.3737    Y=              3.1726    Z=             -1.5971  Tot=              3.8083
 Quadrupole moment (field-independent basis, Debye-Ang):
   XX=           -365.4165   YY=           -425.0660   ZZ=           -399.3497
   XY=             -4.0151   XZ=              0.5873   YZ=             -9.3534

 Normal termination of Gaussian 16 at Thu May  5 07:53:42 2022.
