 Gaussian 16, Revision A.03,
 Gaussian 16:  ES64L-G16RevA.03 25-Dec-2016

 --------------------
 #p ZINDO=(nstates=5)
 --------------------

 ----------------------------
 step_751_chromophore_1 ZINDO
 ----------------------------
 Symbolic Z-matrix:
 Charge =  0 Multiplicity = 1

                         Standard orientation:
 ---------------------------------------------------------------------
 Center     Atomic      Atomic             Coordinates (Angstroms)
 Number     Number       Type             X           Y           Z
 ---------------------------------------------------------------------
      1         12           0        5.890532    0.409903    0.105429
      2          6           0        3.782823   -2.314251   -0.628159
      3          6           0        3.607699    2.438149   -1.658162
      4          6           0        8.036935    3.054849    0.401324
      5          6           0        8.525898   -1.687633    0.753617
      6          7           0        3.900351    0.075382   -0.898350
      7          6           0        3.285695   -1.133893   -1.151264
      8          6           0        1.904846   -0.960270   -1.846130
      9          6           0        1.974089    0.569850   -2.208531
     10          6           0        3.209537    1.056714   -1.591744
     11          6           0        1.842089    0.960187   -3.698689
     12          6           0        0.797986   -1.261580   -0.883923
     13          6           0       -0.650225   -0.764684   -1.191262
     14          6           0       -1.820721   -1.496990   -0.661576
     15          8           0       -2.320981   -2.532140   -1.092450
     16          8           0       -2.263534   -0.974938    0.575519
     17          7           0        5.793702    2.473798   -0.406442
     18          6           0        4.771210    3.109593   -1.090897
     19          6           0        5.007502    4.533263   -0.912458
     20          6           0        6.228908    4.734273   -0.242114
     21          6           0        6.718612    3.421881    0.034880
     22          6           0        3.948156    5.583738   -1.459181
     23          6           0        6.887472    5.996981    0.179248
     24          8           0        8.000046    6.046675    0.703458
     25          6           0        6.195796    7.308756   -0.140813
     26          7           0        8.015579    0.605258    0.308520
     27          6           0        8.685579    1.798638    0.476074
     28          6           0       10.159161    1.584138    0.683968
     29          6           0       10.192202    0.120359    1.168983
     30          6           0        8.830908   -0.332008    0.757324
     31          6           0       10.927611    1.748971   -0.680683
     32          6           0       10.242961   -0.059493    2.757980
     33          6           0        9.148275    0.453798    3.580595
     34          7           0        6.133369   -1.559846    0.207813
     35          6           0        7.284276   -2.324233    0.403938
     36          6           0        6.927536   -3.738440    0.330202
     37          6           0        5.579232   -3.729073    0.094673
     38          6           0        5.119711   -2.432819   -0.065627
     39          6           0        7.861438   -4.925839    0.634949
     40          6           0        4.355044   -4.572040   -0.099990
     41          8           0        4.197364   -5.816021    0.026625
     42          6           0        3.158689   -3.685728   -0.567967
     43          6           0        1.894326   -3.944241    0.244906
     44          8           0        1.660433   -3.515632    1.382656
     45          8           0        1.055218   -4.718685   -0.486591
     46          6           0       -0.280210   -5.024589    0.132084
     47          6           0       -3.353827   -1.749463    1.178095
     48          6           0       -4.634818   -1.531491    0.434654
     49          6           0       -5.387401   -2.520125   -0.051632
     50          6           0       -5.175459   -3.989555    0.113983
     51          6           0       -6.709006   -2.196161   -0.870360
     52          6           0       -7.817750   -1.725077    0.068946
     53          6           0       -8.732759   -0.679718   -0.697182
     54          6           0       -8.462065    0.832750   -0.474185
     55          6           0       -7.012936    1.344994   -0.881744
     56          6           0       -8.817542    1.164090    1.038718
     57          6           0      -10.151688    1.993965    1.177115
     58          6           0      -11.233694    1.275333    1.921702
     59          6           0      -12.475276    2.209574    2.086856
     60          6           0      -12.395819    3.270414    3.218931
     61          6           0      -13.837452    1.374625    2.278634
     62          6           0      -14.864517    1.629476    1.225097
     63          6           0      -14.848214    0.481945    0.184197
     64          6           0      -15.266205    1.040141   -1.247292
     65          6           0      -15.901153   -0.134644   -2.048159
     66          6           0      -14.015521    1.697932   -1.870178
     67          1           0        2.854731    3.045294   -2.164490
     68          1           0        8.777658    3.852938    0.475901
     69          1           0        9.359126   -2.349951    0.996719
     70          1           0        2.122082   -1.661574   -2.651035
     71          1           0        1.187982    1.062013   -1.634910
     72          1           0        0.945989    1.553245   -3.880048
     73          1           0        1.722019    0.032088   -4.257084
     74          1           0        2.709166    1.454580   -4.137651
     75          1           0        0.978781   -0.997255    0.158020
     76          1           0        0.544141   -2.309531   -1.046637
     77          1           0       -0.744538   -0.619597   -2.267794
     78          1           0       -1.021837    0.180360   -0.794946
     79          1           0        4.431601    6.446807   -1.917380
     80          1           0        3.286052    5.940808   -0.670399
     81          1           0        3.240941    5.089497   -2.124447
     82          1           0        6.192955    7.593435   -1.193404
     83          1           0        6.752020    8.053047    0.429664
     84          1           0        5.157454    7.287898    0.189029
     85          1           0       10.551681    2.220375    1.477271
     86          1           0       10.975871   -0.446963    0.666434
     87          1           0       11.647431    2.565965   -0.626074
     88          1           0       10.322755    1.723409   -1.588156
     89          1           0       11.547483    0.862222   -0.815072
     90          1           0       11.116017    0.550473    2.990137
     91          1           0       10.474403   -1.085367    3.047350
     92          1           0        9.137951   -0.243290    4.418950
     93          1           0        8.176480    0.438724    3.086879
     94          1           0        9.438638    1.428357    3.974103
     95          1           0        7.216389   -5.794486    0.766377
     96          1           0        8.403227   -4.853894    1.577137
     97          1           0        8.607518   -4.897672   -0.159608
     98          1           0        2.847792   -4.013847   -1.560255
     99          1           0       -0.614042   -4.216762    0.782382
    100          1           0       -0.119515   -5.995660    0.599996
    101          1           0       -0.897911   -5.103268   -0.763704
    102          1           0       -3.654539   -1.341966    2.143335
    103          1           0       -3.099959   -2.800035    1.318481
    104          1           0       -4.977392   -0.544520    0.122520
    105          1           0       -6.077148   -4.577169   -0.056518
    106          1           0       -4.831939   -4.184718    1.129773
    107          1           0       -4.396879   -4.332333   -0.567794
    108          1           0       -7.199028   -2.981342   -1.445338
    109          1           0       -6.467140   -1.313665   -1.462437
    110          1           0       -7.444433   -1.355013    1.023732
    111          1           0       -8.306705   -2.672449    0.296781
    112          1           0       -9.724302   -0.901300   -0.302280
    113          1           0       -8.664368   -0.903748   -1.761355
    114          1           0       -9.127338    1.378425   -1.142492
    115          1           0       -6.500286    1.730276   -0.000115
    116          1           0       -6.970430    2.114276   -1.653329
    117          1           0       -6.325523    0.556417   -1.188561
    118          1           0       -8.023638    1.576576    1.661531
    119          1           0       -8.952307    0.186724    1.499814
    120          1           0      -10.503122    2.332369    0.201965
    121          1           0       -9.963629    2.887576    1.773115
    122          1           0      -10.839057    0.906076    2.868788
    123          1           0      -11.577712    0.426491    1.331829
    124          1           0      -12.724688    2.810973    1.212197
    125          1           0      -11.658292    3.158285    4.012699
    126          1           0      -13.374719    3.474112    3.655442
    127          1           0      -11.986383    4.159201    2.738253
    128          1           0      -14.319551    1.797438    3.159535
    129          1           0      -13.677792    0.303494    2.407878
    130          1           0      -14.847337    2.585453    0.701822
    131          1           0      -15.828090    1.431306    1.696075
    132          1           0      -15.544861   -0.284997    0.523038
    133          1           0      -13.862439    0.018316    0.138749
    134          1           0      -16.054994    1.779945   -1.104701
    135          1           0      -15.709155   -1.109356   -1.600638
    136          1           0      -15.688356   -0.091304   -3.117379
    137          1           0      -16.958832    0.078952   -1.895882
    138          1           0      -14.414642    2.485606   -2.508596
    139          1           0      -13.454784    0.937820   -2.414591
    140          1           0      -13.300157    2.238305   -1.248895
 ---------------------------------------------------------------------

 SCF Done:  E(RZINDO/S) =  -474.137812285     A.U. after   20 cycles

 Excitation energies and oscillator strengths:

 Excited State   1:      Singlet-A      1.1754 eV 1054.85 nm  f=0.5926  <S**2>=0.000
     175 ->178        -0.18836
     176 ->177         0.66292
 This state for optimization and/or second-order correction.
 Total Energy, E(CIS/TDA) =  -474.094617940
 Copying the excited state density for this state as the 1-particle RhoCI density.

 Excited State   2:      Singlet-A      1.8922 eV  655.24 nm  f=0.0688  <S**2>=0.000
     175 ->177         0.56357
     176 ->178         0.40133

 Excited State   3:      Singlet-A      2.9565 eV  419.36 nm  f=0.0195  <S**2>=0.000
     168 ->177         0.25603
     168 ->179        -0.37402
     168 ->180        -0.28146
     168 ->183        -0.10722
     168 ->185        -0.17154
     169 ->177        -0.12428
     169 ->180         0.13743
     170 ->179         0.10392

 Excited State   4:      Singlet-A      2.9759 eV  416.63 nm  f=0.0056  <S**2>=0.000
     168 ->177         0.13230
     168 ->180        -0.16469
     169 ->177         0.25568
     169 ->178         0.16325
     169 ->179         0.35515
     169 ->180        -0.31880
     169 ->185         0.19978
     169 ->186        -0.13019

 Excited State   5:      Singlet-A      3.0151 eV  411.20 nm  f=0.9937  <S**2>=0.000
     172 ->177        -0.13160
     175 ->177        -0.34364
     176 ->178         0.51411
     176 ->179         0.18628
     176 ->180        -0.11252

 The electronic state is 1-A.
 Alpha  occ. eigenvalues --   -1.85996  -1.83229  -1.79415  -1.73854  -1.71954
 Alpha  occ. eigenvalues --   -1.71343  -1.64796  -1.61179  -1.58611  -1.56797
 Alpha  occ. eigenvalues --   -1.54111  -1.49822  -1.47255  -1.46500  -1.46290
 Alpha  occ. eigenvalues --   -1.43913  -1.42767  -1.40004  -1.39045  -1.38014
 Alpha  occ. eigenvalues --   -1.36652  -1.32845  -1.32499  -1.30788  -1.29921
 Alpha  occ. eigenvalues --   -1.26749  -1.23901  -1.22792  -1.20215  -1.18444
 Alpha  occ. eigenvalues --   -1.17397  -1.16684  -1.16583  -1.15508  -1.13932
 Alpha  occ. eigenvalues --   -1.11506  -1.11142  -1.09073  -1.05362  -1.03968
 Alpha  occ. eigenvalues --   -1.03242  -1.01948  -0.99317  -0.97494  -0.97313
 Alpha  occ. eigenvalues --   -0.95772  -0.94874  -0.93698  -0.92510  -0.91491
 Alpha  occ. eigenvalues --   -0.90380  -0.89868  -0.88712  -0.86857  -0.85404
 Alpha  occ. eigenvalues --   -0.84846  -0.83368  -0.82616  -0.80970  -0.79989
 Alpha  occ. eigenvalues --   -0.79069  -0.78165  -0.77404  -0.77074  -0.76596
 Alpha  occ. eigenvalues --   -0.76047  -0.75470  -0.74902  -0.74432  -0.73564
 Alpha  occ. eigenvalues --   -0.72885  -0.72579  -0.72002  -0.71533  -0.70962
 Alpha  occ. eigenvalues --   -0.70724  -0.69807  -0.68955  -0.68417  -0.68064
 Alpha  occ. eigenvalues --   -0.67566  -0.67203  -0.65812  -0.65306  -0.65083
 Alpha  occ. eigenvalues --   -0.64815  -0.64477  -0.64127  -0.63809  -0.63275
 Alpha  occ. eigenvalues --   -0.62975  -0.62569  -0.62509  -0.62251  -0.61529
 Alpha  occ. eigenvalues --   -0.61172  -0.60934  -0.60463  -0.59855  -0.59549
 Alpha  occ. eigenvalues --   -0.59298  -0.59160  -0.58788  -0.58635  -0.58219
 Alpha  occ. eigenvalues --   -0.57986  -0.57591  -0.57163  -0.56618  -0.56062
 Alpha  occ. eigenvalues --   -0.55716  -0.55680  -0.55182  -0.55074  -0.54596
 Alpha  occ. eigenvalues --   -0.53872  -0.53637  -0.53445  -0.53197  -0.52642
 Alpha  occ. eigenvalues --   -0.52317  -0.52290  -0.51835  -0.51601  -0.51056
 Alpha  occ. eigenvalues --   -0.51045  -0.50849  -0.50300  -0.50276  -0.50088
 Alpha  occ. eigenvalues --   -0.49978  -0.49890  -0.49669  -0.49535  -0.48946
 Alpha  occ. eigenvalues --   -0.48776  -0.48449  -0.48094  -0.47936  -0.47632
 Alpha  occ. eigenvalues --   -0.47266  -0.47113  -0.46792  -0.46692  -0.46486
 Alpha  occ. eigenvalues --   -0.46298  -0.45977  -0.45463  -0.45210  -0.45064
 Alpha  occ. eigenvalues --   -0.44970  -0.44798  -0.44671  -0.44242  -0.44184
 Alpha  occ. eigenvalues --   -0.44133  -0.42919  -0.42471  -0.42342  -0.42040
 Alpha  occ. eigenvalues --   -0.41312  -0.41141  -0.40656  -0.38875  -0.38716
 Alpha  occ. eigenvalues --   -0.38013  -0.37677  -0.35544  -0.35358  -0.34594
 Alpha  occ. eigenvalues --   -0.33563  -0.32887  -0.32136  -0.30904  -0.26638
 Alpha  occ. eigenvalues --   -0.21737
 Alpha virt. eigenvalues --   -0.08877  -0.01935  -0.00452   0.01045   0.01208
 Alpha virt. eigenvalues --    0.01590   0.02504   0.02658   0.04423   0.05885
 Alpha virt. eigenvalues --    0.06011   0.07055   0.07147   0.07884   0.08079

 Mulliken charges:
               1
     1  Mg   0.430109
     2  C   -0.050111
     3  C   -0.099462
     4  C   -0.062745
     5  C   -0.080158
     6  N   -0.300711
     7  C    0.112822
     8  C    0.003770
     9  C    0.013553
    10  C    0.139486
    11  C   -0.049664
    12  C   -0.005800
    13  C   -0.004134
    14  C    0.473399
    15  O   -0.517110
    16  O   -0.276859
    17  N   -0.335079
    18  C    0.104507
    19  C   -0.001266
    20  C   -0.030325
    21  C    0.135677
    22  C   -0.054534
    23  C    0.331139
    24  O   -0.525476
    25  C   -0.034943
    26  N   -0.271192
    27  C    0.131751
    28  C    0.014708
    29  C   -0.003983
    30  C    0.158321
    31  C   -0.050820
    32  C   -0.023232
    33  C   -0.046609
    34  N   -0.323829
    35  C    0.089085
    36  C    0.026919
    37  C   -0.029886
    38  C    0.116140
    39  C   -0.042324
    40  C    0.327324
    41  O   -0.527408
    42  C    0.059903
    43  C    0.495412
    44  O   -0.535937
    45  O   -0.269259
    46  C    0.072329
    47  C    0.111365
    48  C   -0.088204
    49  C   -0.006116
    50  C   -0.039822
    51  C   -0.039441
    52  C   -0.039847
    53  C   -0.029867
    54  C   -0.007103
    55  C   -0.067312
    56  C   -0.044638
    57  C   -0.034550
    58  C   -0.020636
    59  C   -0.021871
    60  C   -0.062327
    61  C   -0.043496
    62  C   -0.039503
    63  C   -0.044338
    64  C   -0.016249
    65  C   -0.061360
    66  C   -0.056570
    67  H    0.024264
    68  H    0.039615
    69  H    0.020557
    70  H    0.047571
    71  H    0.033610
    72  H    0.021532
    73  H    0.014213
    74  H    0.030425
    75  H    0.052125
    76  H    0.036222
    77  H    0.031832
    78  H    0.031539
    79  H    0.029934
    80  H    0.027733
    81  H    0.023324
    82  H    0.042787
    83  H    0.033380
    84  H    0.030474
    85  H    0.035408
    86  H    0.034961
    87  H    0.027595
    88  H    0.035768
    89  H    0.010303
    90  H    0.007115
    91  H    0.022665
    92  H    0.015032
    93  H    0.034953
    94  H    0.023644
    95  H    0.040610
    96  H    0.027256
    97  H    0.036025
    98  H    0.050927
    99  H    0.059950
   100  H    0.050270
   101  H    0.038806
   102  H    0.032254
   103  H    0.054765
   104  H    0.036772
   105  H    0.018884
   106  H    0.017890
   107  H    0.039100
   108  H    0.031384
   109  H    0.022684
   110  H    0.025089
   111  H    0.013551
   112  H    0.012574
   113  H    0.017850
   114  H    0.019900
   115  H    0.013722
   116  H    0.020965
   117  H    0.023617
   118  H    0.024617
   119  H    0.015353
   120  H    0.022845
   121  H    0.014014
   122  H    0.026741
   123  H    0.015383
   124  H    0.025492
   125  H    0.020426
   126  H    0.025148
   127  H    0.006757
   128  H    0.009737
   129  H    0.025430
   130  H    0.032389
   131  H    0.011158
   132  H    0.013872
   133  H    0.019465
   134  H    0.021945
   135  H    0.026839
   136  H    0.021964
   137  H    0.012440
   138  H    0.010159
   139  H    0.021214
   140  H    0.021575
 Sum of Mulliken charges =  -0.00000

 Dipole moment (field-independent basis, Debye):
    X=             -0.8444    Y=              4.4324    Z=             -3.5189  Tot=              5.7220
 N-N= 4.306199027678D+03 E-N= 0.000000000000D+00  KE=-9.286924509571D+03
 Leave Link  601 at Thu May  5 08:09:36 2022, MaxMem=  6710886400 cpu:               2.8 elap:               0.1
 (Enter /sw/apps/gaussian-16.0/g16/l9999.exe)
 1\1\GINC-BP1-COMPUTE211\SP\RZINDO CIS\STO-3G\C55H74Mg1N4O6\OF15641\05-
 May-2022\0\\#p ZINDO=(nstates=5)\\step_751_chromophore_1 ZINDO\\0,1\Mg
 ,0,-1.52,17.453,26.52\C,0,-2.216,15.211,29.145\C,0,-2.857,19.999,28.56
 1\C,0,-1.268,19.652,23.914\C,0,-1.333,14.884,24.255\N,0,-2.316,17.56,2
 8.626\C,0,-2.589,16.503,29.47\C,0,-3.109,16.975,30.858\C,0,-3.36,18.49
 8,30.55\C,0,-2.851,18.706,29.193\C,0,-4.792,19.044,30.754\C,0,-2.054,1
 6.778,31.902\C,0,-2.158,17.542,33.26\C,0,-1.557,16.974,34.486\O,0,-2.0

 Normal termination of Gaussian 16 at Thu May  5 08:09:36 2022.
