 Gaussian 16, Revision A.03,
 Gaussian 16:  ES64L-G16RevA.03 25-Dec-2016

 ------------------------------
 #p blyp/Def2SVP td=(nstates=5)
 ------------------------------

 --------------------------------------------------
 step_751_chromophore_19 TDDFT with blyp functional
 --------------------------------------------------
 Symbolic Z-matrix:
 Charge =  0 Multiplicity = 1

                         Standard orientation:
 ---------------------------------------------------------------------
 Center     Atomic      Atomic             Coordinates (Angstroms)
 Number     Number       Type             X           Y           Z
 ---------------------------------------------------------------------
      1         12           0       -5.910513    0.404205   -0.193151
      2          6           0       -3.371837   -2.200560   -0.326655
      3          6           0       -3.512094    2.645125    0.094040
      4          6           0       -8.331543    2.544048    0.759639
      5          6           0       -8.245872   -2.174259    0.122838
      6          7           0       -3.734167    0.219863   -0.080664
      7          6           0       -2.869445   -0.863595   -0.203969
      8          6           0       -1.391504   -0.384454   -0.151743
      9          6           0       -1.536139    1.155493    0.121368
     10          6           0       -2.980932    1.349633    0.037769
     11          6           0       -0.868972    1.677361    1.437968
     12          6           0       -0.582563   -0.731416   -1.525630
     13          6           0        0.558834   -1.704712   -1.273995
     14          6           0        1.758214   -1.228373   -0.378164
     15          8           0        1.659123   -0.929194    0.779204
     16          8           0        3.017233   -1.098737   -1.019044
     17          7           0       -5.934804    2.419956    0.079337
     18          6           0       -4.796576    3.226714    0.177825
     19          6           0       -5.181866    4.663638    0.254524
     20          6           0       -6.644909    4.606289    0.339058
     21          6           0       -7.026690    3.114811    0.455176
     22          6           0       -4.270181    5.800756    0.041123
     23          6           0       -7.586599    5.757673    0.360382
     24          8           0       -8.825015    5.679526    0.500270
     25          6           0       -7.050051    7.135857    0.098798
     26          7           0       -7.974257    0.198434    0.348798
     27          6           0       -8.840525    1.218522    0.585032
     28          6           0      -10.302768    0.756257    0.793543
     29          6           0      -10.252474   -0.641055   -0.007583
     30          6           0       -8.757295   -0.913687    0.231892
     31          6           0      -10.875650    0.815295    2.272054
     32          6           0      -10.658951   -0.544829   -1.538828
     33          6           0      -11.979877   -1.379634   -1.951661
     34          7           0       -5.892230   -1.747087   -0.174017
     35          6           0       -6.899074   -2.638233   -0.016401
     36          6           0       -6.397210   -3.958339   -0.232349
     37          6           0       -5.017462   -3.842868   -0.264597
     38          6           0       -4.769957   -2.474192   -0.279425
     39          6           0       -7.251787   -5.188788   -0.311701
     40          6           0       -3.768599   -4.557561   -0.350593
     41          8           0       -3.630457   -5.777374   -0.441315
     42          6           0       -2.659114   -3.511606   -0.403578
     43          6           0       -1.659359   -3.727094    0.672946
     44          8           0       -1.665245   -3.239328    1.751927
     45          8           0       -0.674058   -4.627237    0.252329
     46          6           0        0.202094   -4.940470    1.335042
     47          6           0        4.001688   -0.732547   -0.036231
     48          6           0        5.436461   -0.820042   -0.722945
     49          6           0        6.658989   -0.654484   -0.252370
     50          6           0        6.914098   -0.482896    1.196438
     51          6           0        7.897307   -0.449730   -1.066020
     52          6           0        8.011323    0.984145   -1.653428
     53          6           0        8.159600    1.178113   -3.196503
     54          6           0        9.557154    1.649754   -3.607025
     55          6           0        9.661232    2.247081   -4.985115
     56          6           0       10.615582    0.563751   -3.280382
     57          6           0       11.784847    1.205970   -2.586420
     58          6           0       12.648508    0.186083   -1.907573
     59          6           0       13.174658    0.467166   -0.503187
     60          6           0       14.576957   -0.195807   -0.233493
     61          6           0       12.171911    0.043563    0.558120
     62          6           0       12.442730    0.864240    1.820475
     63          6           0       12.724018    0.065910    3.103122
     64          6           0       11.640451    0.472309    4.131412
     65          6           0       11.888819    1.881938    4.760544
     66          6           0       11.335863   -0.627114    5.135329
     67          1           0       -2.763110    3.388847   -0.186057
     68          1           0       -9.056277    3.312129    1.038279
     69          1           0       -8.977159   -2.975218   -0.010722
     70          1           0       -1.013044   -0.944973    0.702981
     71          1           0       -1.158058    1.720059   -0.731864
     72          1           0       -1.604168    2.258584    1.995083
     73          1           0       -0.016867    2.265303    1.095402
     74          1           0       -0.510294    0.794376    1.966226
     75          1           0       -0.132227    0.145944   -1.991118
     76          1           0       -1.310281   -1.187661   -2.196096
     77          1           0        1.027370   -1.698658   -2.258922
     78          1           0        0.113099   -2.675411   -1.054537
     79          1           0       -4.316405    6.369825    0.968714
     80          1           0       -4.538402    6.317514   -0.879951
     81          1           0       -3.215250    5.532935   -0.012449
     82          1           0       -6.601734    7.212591   -0.891374
     83          1           0       -6.284037    7.381691    0.834051
     84          1           0       -7.864606    7.854349    0.182402
     85          1           0      -10.935405    1.452876    0.244048
     86          1           0      -10.805073   -1.392096    0.557417
     87          1           0      -10.031721    0.826711    2.962300
     88          1           0      -11.558572   -0.019686    2.428613
     89          1           0      -11.244809    1.834793    2.385385
     90          1           0       -9.884911   -1.011023   -2.148025
     91          1           0      -10.688360    0.513473   -1.798601
     92          1           0      -12.392628   -0.924313   -2.851789
     93          1           0      -12.534676   -1.314020   -1.016364
     94          1           0      -11.870187   -2.455667   -2.088586
     95          1           0       -7.997724   -5.364551    0.462261
     96          1           0       -6.661655   -6.073296   -0.554053
     97          1           0       -7.804477   -4.987973   -1.229974
     98          1           0       -2.158689   -3.459541   -1.369954
     99          1           0        0.457882   -4.125613    2.012858
    100          1           0        1.249034   -5.148532    1.111252
    101          1           0       -0.086079   -5.850194    1.861494
    102          1           0        4.081252   -1.375339    0.840263
    103          1           0        3.855624    0.291532    0.307653
    104          1           0        5.363228   -0.929110   -1.804947
    105          1           0        6.036201   -0.370290    1.832728
    106          1           0        7.428245    0.470859    1.316256
    107          1           0        7.520392   -1.282208    1.624322
    108          1           0        7.952862   -1.235671   -1.819561
    109          1           0        8.797731   -0.549660   -0.459728
    110          1           0        8.896955    1.375593   -1.154719
    111          1           0        7.237983    1.643300   -1.256967
    112          1           0        7.501654    1.929470   -3.632231
    113          1           0        8.002013    0.208989   -3.669731
    114          1           0        9.733703    2.481300   -2.924683
    115          1           0        8.671426    2.389270   -5.420158
    116          1           0       10.356233    1.703138   -5.624677
    117          1           0       10.016199    3.276417   -4.937283
    118          1           0       10.959867    0.144342   -4.225962
    119          1           0       10.193312   -0.321638   -2.806300
    120          1           0       11.398256    1.926244   -1.866102
    121          1           0       12.410622    1.784028   -3.266208
    122          1           0       13.375874    0.084082   -2.713755
    123          1           0       12.034130   -0.710970   -1.836657
    124          1           0       13.334680    1.544941   -0.518056
    125          1           0       14.574453   -0.851811    0.636041
    126          1           0       15.389880    0.497273   -0.014801
    127          1           0       14.861242   -0.800152   -1.095986
    128          1           0       12.152673   -1.018123    0.800807
    129          1           0       11.158280    0.263624    0.223706
    130          1           0       11.590552    1.520335    1.996454
    131          1           0       13.282748    1.540833    1.664072
    132          1           0       13.696118    0.398926    3.463733
    133          1           0       12.705165   -1.018516    2.993218
    134          1           0       10.698778    0.617709    3.600598
    135          1           0       10.941758    2.273541    5.130641
    136          1           0       12.296892    2.459045    3.930575
    137          1           0       12.535764    1.918298    5.637619
    138          1           0       11.079739   -0.100510    6.055010
    139          1           0       12.226272   -1.246012    5.244258
    140          1           0       10.541674   -1.311403    4.835515
 ---------------------------------------------------------------------

 SCF Done:  E(RB-LYP) =  -3007.34635735     A.U. after   21 cycles

 Excitation energies and oscillator strengths:

 Excited State   1:      Singlet-A      1.7497 eV  708.59 nm  f=0.3084  <S**2>=0.000
     245 -> 248        0.17218
     246 -> 247        0.69132
     246 <- 247       -0.15633
 This state for optimization and/or second-order correction.
 Total Energy, E(TD-HF/TD-DFT) =  -3007.28205590
 Copying the excited state density for this state as the 1-particle RhoCI density.

 Excited State   2:      Singlet-A      1.7848 eV  694.65 nm  f=0.0115  <S**2>=0.000
     244 -> 247        0.64462
     245 -> 247       -0.27967

 Excited State   3:      Singlet-A      1.9559 eV  633.91 nm  f=0.0708  <S**2>=0.000
     244 -> 247        0.28134
     245 -> 247        0.58887
     246 -> 248       -0.21131

 Excited State   4:      Singlet-A      2.0499 eV  604.83 nm  f=0.0011  <S**2>=0.000
     243 -> 247        0.70106

 Excited State   5:      Singlet-A      2.3677 eV  523.65 nm  f=0.0000  <S**2>=0.000
     242 -> 247        0.70701

 The electronic state is 1-A.
 Alpha  occ. eigenvalues --  -46.27312 -18.82921 -18.82514 -18.78257 -18.77769
 Alpha  occ. eigenvalues --  -18.75636 -18.74749 -14.03462 -14.02835 -14.01361
 Alpha  occ. eigenvalues --  -14.00366 -10.05257 -10.04350  -9.99711  -9.99108
 Alpha  occ. eigenvalues --   -9.98340  -9.96813  -9.96754  -9.96675  -9.96618
 Alpha  occ. eigenvalues --   -9.96266  -9.96240  -9.95614  -9.94996  -9.94646
 Alpha  occ. eigenvalues --   -9.94548  -9.94529  -9.94508  -9.94368  -9.94294
 Alpha  occ. eigenvalues --   -9.94011  -9.93821  -9.93759  -9.93670  -9.93589
 Alpha  occ. eigenvalues --   -9.93569  -9.93505  -9.92824  -9.92821  -9.92682
 Alpha  occ. eigenvalues --   -9.92540  -9.92351  -9.92099  -9.92079  -9.92061
 Alpha  occ. eigenvalues --   -9.91952  -9.91858  -9.91854  -9.91776  -9.91752
 Alpha  occ. eigenvalues --   -9.91560  -9.91378  -9.91328  -9.91280  -9.91201
 Alpha  occ. eigenvalues --   -9.91126  -9.91049  -9.90944  -9.90850  -9.90833
 Alpha  occ. eigenvalues --   -9.90740  -9.90695  -9.90628  -9.90486  -9.90223
 Alpha  occ. eigenvalues --   -9.90098  -2.91931  -1.72350  -1.71810  -1.71649
 Alpha  occ. eigenvalues --   -0.99354  -0.99144  -0.91703  -0.91251  -0.90989
 Alpha  occ. eigenvalues --   -0.89560  -0.86906  -0.85960  -0.85630  -0.84513
 Alpha  occ. eigenvalues --   -0.76459  -0.74276  -0.73580  -0.72741  -0.72579
 Alpha  occ. eigenvalues --   -0.71848  -0.71252  -0.71166  -0.70962  -0.70373
 Alpha  occ. eigenvalues --   -0.69704  -0.68965  -0.68341  -0.67383  -0.66792
 Alpha  occ. eigenvalues --   -0.66412  -0.65686  -0.64912  -0.64682  -0.64264
 Alpha  occ. eigenvalues --   -0.63972  -0.62268  -0.61901  -0.61796  -0.60875
 Alpha  occ. eigenvalues --   -0.60493  -0.60302  -0.59957  -0.59789  -0.59346
 Alpha  occ. eigenvalues --   -0.58676  -0.57526  -0.56661  -0.55681  -0.54821
 Alpha  occ. eigenvalues --   -0.54143  -0.53830  -0.52720  -0.52560  -0.51623
 Alpha  occ. eigenvalues --   -0.51276  -0.51102  -0.50604  -0.50382  -0.50191
 Alpha  occ. eigenvalues --   -0.49900  -0.48958  -0.48542  -0.48501  -0.46496
 Alpha  occ. eigenvalues --   -0.46334  -0.45950  -0.45622  -0.45351  -0.45007
 Alpha  occ. eigenvalues --   -0.44093  -0.43736  -0.42917  -0.42786  -0.42420
 Alpha  occ. eigenvalues --   -0.42368  -0.41908  -0.41472  -0.41268  -0.41099
 Alpha  occ. eigenvalues --   -0.40975  -0.40661  -0.40525  -0.40497  -0.40284
 Alpha  occ. eigenvalues --   -0.40123  -0.40078  -0.39689  -0.39390  -0.39144
 Alpha  occ. eigenvalues --   -0.39027  -0.38960  -0.38851  -0.38400  -0.38286
 Alpha  occ. eigenvalues --   -0.38203  -0.38002  -0.37643  -0.37544  -0.37460
 Alpha  occ. eigenvalues --   -0.37416  -0.37252  -0.37054  -0.36946  -0.36695
 Alpha  occ. eigenvalues --   -0.36410  -0.36224  -0.35952  -0.35791  -0.35612
 Alpha  occ. eigenvalues --   -0.35516  -0.35279  -0.34911  -0.34840  -0.34728
 Alpha  occ. eigenvalues --   -0.34683  -0.34399  -0.34121  -0.34041  -0.34011
 Alpha  occ. eigenvalues --   -0.33774  -0.33630  -0.33516  -0.33340  -0.33269
 Alpha  occ. eigenvalues --   -0.32981  -0.32866  -0.32689  -0.32542  -0.32231
 Alpha  occ. eigenvalues --   -0.32011  -0.31789  -0.31705  -0.31501  -0.31488
 Alpha  occ. eigenvalues --   -0.31221  -0.31126  -0.31029  -0.30925  -0.30809
 Alpha  occ. eigenvalues --   -0.30752  -0.30615  -0.30283  -0.30199  -0.29815
 Alpha  occ. eigenvalues --   -0.29407  -0.29368  -0.29196  -0.28922  -0.28855
 Alpha  occ. eigenvalues --   -0.28527  -0.28330  -0.28090  -0.28017  -0.27747
 Alpha  occ. eigenvalues --   -0.27530  -0.27446  -0.26917  -0.26712  -0.26431
 Alpha  occ. eigenvalues --   -0.26319  -0.26211  -0.26082  -0.25960  -0.25824
 Alpha  occ. eigenvalues --   -0.25728  -0.25479  -0.24058  -0.24020  -0.23697
 Alpha  occ. eigenvalues --   -0.23383  -0.22954  -0.22740  -0.21582  -0.20372
 Alpha  occ. eigenvalues --   -0.20266  -0.20185  -0.18906  -0.18003  -0.16933
 Alpha  occ. eigenvalues --   -0.15542
 Alpha virt. eigenvalues --   -0.11484  -0.06781  -0.06298  -0.05014  -0.04227
 Alpha virt. eigenvalues --   -0.03020  -0.02583  -0.01747  -0.00905  -0.00086
 Alpha virt. eigenvalues --    0.00864   0.00969   0.02055   0.02479   0.03207

 Mulliken charges:
               1
     1  Mg   0.703342
     2  C   -0.072280
     3  C   -0.082445
     4  C   -0.033080
     5  C   -0.074673
     6  N   -0.219187
     7  C   -0.099651
     8  C    0.020509
     9  C    0.002240
    10  C    0.008440
    11  C    0.159957
    12  C    0.099685
    13  C    0.098734
    14  C    0.104208
    15  O   -0.171740
    16  O   -0.276035
    17  N   -0.322824
    18  C    0.130445
    19  C   -0.135362
    20  C    0.011776
    21  C    0.097992
    22  C    0.192950
    23  C   -0.087596
    24  O   -0.189514
    25  C    0.135961
    26  N   -0.215072
    27  C    0.036287
    28  C   -0.009882
    29  C    0.010335
    30  C    0.029401
    31  C    0.145889
    32  C    0.105988
    33  C    0.043020
    34  N   -0.197061
    35  C    0.079723
    36  C   -0.200790
    37  C    0.117591
    38  C    0.059940
    39  C    0.187286
    40  C   -0.071859
    41  O   -0.130338
    42  C    0.147573
    43  C    0.098556
    44  O   -0.125697
    45  O   -0.266683
    46  C    0.207792
    47  C    0.298645
    48  C   -0.124603
    49  C   -0.127905
    50  C    0.136582
    51  C    0.141144
    52  C    0.074659
    53  C    0.136929
    54  C   -0.113529
    55  C    0.149941
    56  C    0.091189
    57  C    0.059775
    58  C    0.117703
    59  C   -0.061641
    60  C    0.104729
    61  C    0.131117
    62  C    0.045189
    63  C    0.116544
    64  C   -0.131030
    65  C    0.093880
    66  C    0.126506
    67  H   -0.053835
    68  H   -0.048819
    69  H   -0.074817
    70  H    0.017487
    71  H   -0.028486
    72  H   -0.000308
    73  H   -0.011405
    74  H    0.012154
    75  H   -0.011847
    76  H   -0.010161
    77  H   -0.015383
    78  H    0.024966
    79  H    0.006927
    80  H    0.022547
    81  H   -0.022141
    82  H    0.002859
    83  H   -0.008232
    84  H   -0.010152
    85  H   -0.027910
    86  H   -0.038841
    87  H   -0.007251
    88  H    0.011356
    89  H    0.005646
    90  H   -0.015780
    91  H   -0.007897
    92  H    0.010617
    93  H   -0.005228
    94  H    0.001512
    95  H    0.006372
    96  H   -0.002046
    97  H   -0.016689
    98  H    0.001464
    99  H    0.015115
   100  H   -0.012869
   101  H    0.015214
   102  H    0.010840
   103  H    0.002343
   104  H   -0.044471
   105  H   -0.025926
   106  H   -0.016738
   107  H    0.002194
   108  H   -0.013823
   109  H   -0.039115
   110  H   -0.034598
   111  H   -0.028674
   112  H   -0.043639
   113  H   -0.033727
   114  H   -0.040762
   115  H   -0.031192
   116  H   -0.016013
   117  H   -0.028285
   118  H   -0.044912
   119  H   -0.032324
   120  H   -0.039000
   121  H   -0.033770
   122  H   -0.042277
   123  H   -0.042301
   124  H   -0.038661
   125  H   -0.022230
   126  H   -0.017602
   127  H   -0.017714
   128  H   -0.031210
   129  H   -0.037877
   130  H   -0.025811
   131  H   -0.027884
   132  H   -0.033409
   133  H   -0.028209
   134  H   -0.036528
   135  H   -0.016049
   136  H   -0.014640
   137  H   -0.015298
   138  H   -0.026388
   139  H   -0.021722
   140  H   -0.016412
 Sum of Mulliken charges =  -0.00000

 Dipole moment (field-independent basis, Debye):
    X=              2.7816    Y=              2.9321    Z=             -2.5937  Tot=              4.8023
 Quadrupole moment (field-independent basis, Debye-Ang):
   XX=           -385.7964   YY=           -428.1212   ZZ=           -407.0574
   XY=             19.6127   XZ=             11.6268   YZ=             -5.1271

 Normal termination of Gaussian 16 at Thu May  5 09:21:08 2022.
