 Gaussian 16, Revision A.03,
 Gaussian 16:  ES64L-G16RevA.03 25-Dec-2016

 -----------------------------------
 #p cam-b3lyp/Def2SVP td=(nstates=5)
 -----------------------------------

 -------------------------------------------------------
 step_751_chromophore_19 TDDFT with cam-b3lyp functional
 -------------------------------------------------------
 Symbolic Z-matrix:
 Charge =  0 Multiplicity = 1

                         Standard orientation:
 ---------------------------------------------------------------------
 Center     Atomic      Atomic             Coordinates (Angstroms)
 Number     Number       Type             X           Y           Z
 ---------------------------------------------------------------------
      1         12           0       -5.910513    0.404205   -0.193151
      2          6           0       -3.371837   -2.200560   -0.326655
      3          6           0       -3.512094    2.645125    0.094040
      4          6           0       -8.331543    2.544048    0.759639
      5          6           0       -8.245872   -2.174259    0.122838
      6          7           0       -3.734167    0.219863   -0.080664
      7          6           0       -2.869445   -0.863595   -0.203969
      8          6           0       -1.391504   -0.384454   -0.151743
      9          6           0       -1.536139    1.155493    0.121368
     10          6           0       -2.980932    1.349633    0.037769
     11          6           0       -0.868972    1.677361    1.437968
     12          6           0       -0.582563   -0.731416   -1.525630
     13          6           0        0.558834   -1.704712   -1.273995
     14          6           0        1.758214   -1.228373   -0.378164
     15          8           0        1.659123   -0.929194    0.779204
     16          8           0        3.017233   -1.098737   -1.019044
     17          7           0       -5.934804    2.419956    0.079337
     18          6           0       -4.796576    3.226714    0.177825
     19          6           0       -5.181866    4.663638    0.254524
     20          6           0       -6.644909    4.606289    0.339058
     21          6           0       -7.026690    3.114811    0.455176
     22          6           0       -4.270181    5.800756    0.041123
     23          6           0       -7.586599    5.757673    0.360382
     24          8           0       -8.825015    5.679526    0.500270
     25          6           0       -7.050051    7.135857    0.098798
     26          7           0       -7.974257    0.198434    0.348798
     27          6           0       -8.840525    1.218522    0.585032
     28          6           0      -10.302768    0.756257    0.793543
     29          6           0      -10.252474   -0.641055   -0.007583
     30          6           0       -8.757295   -0.913687    0.231892
     31          6           0      -10.875650    0.815295    2.272054
     32          6           0      -10.658951   -0.544829   -1.538828
     33          6           0      -11.979877   -1.379634   -1.951661
     34          7           0       -5.892230   -1.747087   -0.174017
     35          6           0       -6.899074   -2.638233   -0.016401
     36          6           0       -6.397210   -3.958339   -0.232349
     37          6           0       -5.017462   -3.842868   -0.264597
     38          6           0       -4.769957   -2.474192   -0.279425
     39          6           0       -7.251787   -5.188788   -0.311701
     40          6           0       -3.768599   -4.557561   -0.350593
     41          8           0       -3.630457   -5.777374   -0.441315
     42          6           0       -2.659114   -3.511606   -0.403578
     43          6           0       -1.659359   -3.727094    0.672946
     44          8           0       -1.665245   -3.239328    1.751927
     45          8           0       -0.674058   -4.627237    0.252329
     46          6           0        0.202094   -4.940470    1.335042
     47          6           0        4.001688   -0.732547   -0.036231
     48          6           0        5.436461   -0.820042   -0.722945
     49          6           0        6.658989   -0.654484   -0.252370
     50          6           0        6.914098   -0.482896    1.196438
     51          6           0        7.897307   -0.449730   -1.066020
     52          6           0        8.011323    0.984145   -1.653428
     53          6           0        8.159600    1.178113   -3.196503
     54          6           0        9.557154    1.649754   -3.607025
     55          6           0        9.661232    2.247081   -4.985115
     56          6           0       10.615582    0.563751   -3.280382
     57          6           0       11.784847    1.205970   -2.586420
     58          6           0       12.648508    0.186083   -1.907573
     59          6           0       13.174658    0.467166   -0.503187
     60          6           0       14.576957   -0.195807   -0.233493
     61          6           0       12.171911    0.043563    0.558120
     62          6           0       12.442730    0.864240    1.820475
     63          6           0       12.724018    0.065910    3.103122
     64          6           0       11.640451    0.472309    4.131412
     65          6           0       11.888819    1.881938    4.760544
     66          6           0       11.335863   -0.627114    5.135329
     67          1           0       -2.763110    3.388847   -0.186057
     68          1           0       -9.056277    3.312129    1.038279
     69          1           0       -8.977159   -2.975218   -0.010722
     70          1           0       -1.013044   -0.944973    0.702981
     71          1           0       -1.158058    1.720059   -0.731864
     72          1           0       -1.604168    2.258584    1.995083
     73          1           0       -0.016867    2.265303    1.095402
     74          1           0       -0.510294    0.794376    1.966226
     75          1           0       -0.132227    0.145944   -1.991118
     76          1           0       -1.310281   -1.187661   -2.196096
     77          1           0        1.027370   -1.698658   -2.258922
     78          1           0        0.113099   -2.675411   -1.054537
     79          1           0       -4.316405    6.369825    0.968714
     80          1           0       -4.538402    6.317514   -0.879951
     81          1           0       -3.215250    5.532935   -0.012449
     82          1           0       -6.601734    7.212591   -0.891374
     83          1           0       -6.284037    7.381691    0.834051
     84          1           0       -7.864606    7.854349    0.182402
     85          1           0      -10.935405    1.452876    0.244048
     86          1           0      -10.805073   -1.392096    0.557417
     87          1           0      -10.031721    0.826711    2.962300
     88          1           0      -11.558572   -0.019686    2.428613
     89          1           0      -11.244809    1.834793    2.385385
     90          1           0       -9.884911   -1.011023   -2.148025
     91          1           0      -10.688360    0.513473   -1.798601
     92          1           0      -12.392628   -0.924313   -2.851789
     93          1           0      -12.534676   -1.314020   -1.016364
     94          1           0      -11.870187   -2.455667   -2.088586
     95          1           0       -7.997724   -5.364551    0.462261
     96          1           0       -6.661655   -6.073296   -0.554053
     97          1           0       -7.804477   -4.987973   -1.229974
     98          1           0       -2.158689   -3.459541   -1.369954
     99          1           0        0.457882   -4.125613    2.012858
    100          1           0        1.249034   -5.148532    1.111252
    101          1           0       -0.086079   -5.850194    1.861494
    102          1           0        4.081252   -1.375339    0.840263
    103          1           0        3.855624    0.291532    0.307653
    104          1           0        5.363228   -0.929110   -1.804947
    105          1           0        6.036201   -0.370290    1.832728
    106          1           0        7.428245    0.470859    1.316256
    107          1           0        7.520392   -1.282208    1.624322
    108          1           0        7.952862   -1.235671   -1.819561
    109          1           0        8.797731   -0.549660   -0.459728
    110          1           0        8.896955    1.375593   -1.154719
    111          1           0        7.237983    1.643300   -1.256967
    112          1           0        7.501654    1.929470   -3.632231
    113          1           0        8.002013    0.208989   -3.669731
    114          1           0        9.733703    2.481300   -2.924683
    115          1           0        8.671426    2.389270   -5.420158
    116          1           0       10.356233    1.703138   -5.624677
    117          1           0       10.016199    3.276417   -4.937283
    118          1           0       10.959867    0.144342   -4.225962
    119          1           0       10.193312   -0.321638   -2.806300
    120          1           0       11.398256    1.926244   -1.866102
    121          1           0       12.410622    1.784028   -3.266208
    122          1           0       13.375874    0.084082   -2.713755
    123          1           0       12.034130   -0.710970   -1.836657
    124          1           0       13.334680    1.544941   -0.518056
    125          1           0       14.574453   -0.851811    0.636041
    126          1           0       15.389880    0.497273   -0.014801
    127          1           0       14.861242   -0.800152   -1.095986
    128          1           0       12.152673   -1.018123    0.800807
    129          1           0       11.158280    0.263624    0.223706
    130          1           0       11.590552    1.520335    1.996454
    131          1           0       13.282748    1.540833    1.664072
    132          1           0       13.696118    0.398926    3.463733
    133          1           0       12.705165   -1.018516    2.993218
    134          1           0       10.698778    0.617709    3.600598
    135          1           0       10.941758    2.273541    5.130641
    136          1           0       12.296892    2.459045    3.930575
    137          1           0       12.535764    1.918298    5.637619
    138          1           0       11.079739   -0.100510    6.055010
    139          1           0       12.226272   -1.246012    5.244258
    140          1           0       10.541674   -1.311403    4.835515
 ---------------------------------------------------------------------

 SCF Done:  E(RCAM-B3LYP) =  -3007.14269105     A.U. after   17 cycles

 Excitation energies and oscillator strengths:

 Excited State   1:      Singlet-A      1.6518 eV  750.60 nm  f=0.3840  <S**2>=0.000
     245 -> 248        0.17641
     246 -> 247        0.68653
     245 <- 248        0.10691
 This state for optimization and/or second-order correction.
 Total Energy, E(TD-HF/TD-DFT) =  -3007.08198887
 Copying the excited state density for this state as the 1-particle RhoCI density.

 Excited State   2:      Singlet-A      2.1696 eV  571.46 nm  f=0.1202  <S**2>=0.000
     245 -> 247        0.64587
     246 -> 248       -0.27267

 Excited State   3:      Singlet-A      3.3907 eV  365.66 nm  f=0.1151  <S**2>=0.000
     242 -> 247        0.51576
     244 -> 247       -0.27884
     245 -> 247        0.11643
     246 -> 248        0.35273

 Excited State   4:      Singlet-A      3.4127 eV  363.30 nm  f=0.0291  <S**2>=0.000
     239 -> 247        0.21221
     239 -> 249        0.14205
     240 -> 247       -0.22765
     240 -> 249       -0.14274
     241 -> 247        0.44767
     241 -> 249        0.22951
     241 -> 250        0.11947
     242 -> 247        0.11370
     246 -> 248       -0.11176

 Excited State   5:      Singlet-A      3.4429 eV  360.12 nm  f=0.1264  <S**2>=0.000
     244 -> 247        0.56397
     245 -> 247        0.13007
     246 -> 248        0.38182

 The electronic state is 1-A.
 Alpha  occ. eigenvalues --  -46.88847 -19.25761 -19.25404 -19.21362 -19.20972
 Alpha  occ. eigenvalues --  -19.18640 -19.18296 -14.42540 -14.41562 -14.39995
 Alpha  occ. eigenvalues --  -14.38550 -10.40643 -10.39800 -10.34845 -10.34687
 Alpha  occ. eigenvalues --  -10.32335 -10.31721 -10.31396 -10.31097 -10.31092
 Alpha  occ. eigenvalues --  -10.30944 -10.30451 -10.30300 -10.29656 -10.28810
 Alpha  occ. eigenvalues --  -10.28570 -10.28516 -10.28396 -10.28373 -10.28281
 Alpha  occ. eigenvalues --  -10.28248 -10.28114 -10.28081 -10.27937 -10.27706
 Alpha  occ. eigenvalues --  -10.27600 -10.27222 -10.26940 -10.26697 -10.26508
 Alpha  occ. eigenvalues --  -10.26414 -10.26246 -10.26100 -10.25833 -10.25799
 Alpha  occ. eigenvalues --  -10.25688 -10.25649 -10.25622 -10.25544 -10.25358
 Alpha  occ. eigenvalues --  -10.25264 -10.25252 -10.25151 -10.25038 -10.24827
 Alpha  occ. eigenvalues --  -10.24805 -10.24675 -10.24589 -10.24480 -10.24450
 Alpha  occ. eigenvalues --  -10.24343 -10.24314 -10.24230 -10.24057 -10.23893
 Alpha  occ. eigenvalues --  -10.23708  -3.17369  -1.92266  -1.91819  -1.91679
 Alpha  occ. eigenvalues --   -1.17998  -1.17665  -1.09644  -1.09197  -1.09099
 Alpha  occ. eigenvalues --   -1.08238  -1.04410  -1.03550  -1.03300  -1.02236
 Alpha  occ. eigenvalues --   -0.93554  -0.91185  -0.90424  -0.89515  -0.89339
 Alpha  occ. eigenvalues --   -0.88818  -0.87901  -0.87849  -0.87619  -0.86873
 Alpha  occ. eigenvalues --   -0.85920  -0.85465  -0.84612  -0.83482  -0.82920
 Alpha  occ. eigenvalues --   -0.82478  -0.81904  -0.80927  -0.80547  -0.79998
 Alpha  occ. eigenvalues --   -0.79715  -0.78379  -0.77432  -0.77205  -0.76179
 Alpha  occ. eigenvalues --   -0.75846  -0.75681  -0.75239  -0.75093  -0.74606
 Alpha  occ. eigenvalues --   -0.73765  -0.72443  -0.71544  -0.70493  -0.69264
 Alpha  occ. eigenvalues --   -0.68866  -0.68397  -0.67296  -0.66938  -0.65724
 Alpha  occ. eigenvalues --   -0.65447  -0.65317  -0.64584  -0.64461  -0.64108
 Alpha  occ. eigenvalues --   -0.63792  -0.62901  -0.62398  -0.62181  -0.60188
 Alpha  occ. eigenvalues --   -0.60045  -0.59627  -0.59300  -0.58819  -0.58276
 Alpha  occ. eigenvalues --   -0.57393  -0.57061  -0.56365  -0.56133  -0.55705
 Alpha  occ. eigenvalues --   -0.55278  -0.55133  -0.54942  -0.54731  -0.53854
 Alpha  occ. eigenvalues --   -0.53776  -0.53679  -0.53418  -0.53112  -0.52887
 Alpha  occ. eigenvalues --   -0.52677  -0.52571  -0.52186  -0.52050  -0.51788
 Alpha  occ. eigenvalues --   -0.51461  -0.51372  -0.51293  -0.51134  -0.50988
 Alpha  occ. eigenvalues --   -0.50448  -0.50185  -0.50167  -0.49803  -0.49753
 Alpha  occ. eigenvalues --   -0.49666  -0.49546  -0.49302  -0.49216  -0.48964
 Alpha  occ. eigenvalues --   -0.48743  -0.48678  -0.48448  -0.48094  -0.48038
 Alpha  occ. eigenvalues --   -0.47727  -0.47233  -0.47165  -0.47051  -0.46744
 Alpha  occ. eigenvalues --   -0.46551  -0.46346  -0.46153  -0.45907  -0.45839
 Alpha  occ. eigenvalues --   -0.45773  -0.45378  -0.45185  -0.45031  -0.44962
 Alpha  occ. eigenvalues --   -0.44599  -0.44401  -0.44371  -0.44127  -0.43902
 Alpha  occ. eigenvalues --   -0.43566  -0.43426  -0.43345  -0.42999  -0.42944
 Alpha  occ. eigenvalues --   -0.42866  -0.42542  -0.42470  -0.42263  -0.42004
 Alpha  occ. eigenvalues --   -0.41962  -0.41791  -0.41470  -0.41450  -0.41346
 Alpha  occ. eigenvalues --   -0.40988  -0.40683  -0.40505  -0.40255  -0.40046
 Alpha  occ. eigenvalues --   -0.39521  -0.39254  -0.39102  -0.38995  -0.38879
 Alpha  occ. eigenvalues --   -0.38395  -0.38262  -0.37909  -0.37769  -0.37638
 Alpha  occ. eigenvalues --   -0.37459  -0.37239  -0.37013  -0.36802  -0.36655
 Alpha  occ. eigenvalues --   -0.36460  -0.36200  -0.35524  -0.34905  -0.34600
 Alpha  occ. eigenvalues --   -0.34498  -0.34152  -0.32459  -0.31078  -0.30880
 Alpha  occ. eigenvalues --   -0.30509  -0.29936  -0.29867  -0.29296  -0.23716
 Alpha  occ. eigenvalues --   -0.20837
 Alpha virt. eigenvalues --   -0.08636  -0.01498  -0.00012   0.01779   0.02169
 Alpha virt. eigenvalues --    0.03619   0.05118   0.05312   0.06615   0.06659
 Alpha virt. eigenvalues --    0.06937   0.08080   0.08343   0.08994   0.09373

 Mulliken charges:
               1
     1  Mg   0.835528
     2  C   -0.087046
     3  C   -0.096436
     4  C   -0.056261
     5  C   -0.080753
     6  N   -0.286766
     7  C   -0.056358
     8  C   -0.030723
     9  C   -0.054130
    10  C    0.034123
    11  C    0.101916
    12  C    0.052619
    13  C    0.031858
    14  C    0.180780
    15  O   -0.209578
    16  O   -0.340972
    17  N   -0.410429
    18  C    0.139619
    19  C   -0.131751
    20  C   -0.053753
    21  C    0.128094
    22  C    0.125121
    23  C   -0.006831
    24  O   -0.228555
    25  C    0.051803
    26  N   -0.285492
    27  C    0.054309
    28  C   -0.059608
    29  C   -0.047288
    30  C    0.042903
    31  C    0.090717
    32  C    0.052556
    33  C   -0.013006
    34  N   -0.283860
    35  C    0.084024
    36  C   -0.196076
    37  C    0.034964
    38  C    0.089257
    39  C    0.128595
    40  C    0.027332
    41  O   -0.169945
    42  C    0.066979
    43  C    0.177700
    44  O   -0.159198
    45  O   -0.328099
    46  C    0.164975
    47  C    0.269666
    48  C   -0.139366
    49  C   -0.155777
    50  C    0.074291
    51  C    0.084383
    52  C    0.018918
    53  C    0.084500
    54  C   -0.166687
    55  C    0.088341
    56  C    0.033878
    57  C    0.009586
    58  C    0.065060
    59  C   -0.123181
    60  C    0.048233
    61  C    0.080400
    62  C   -0.008681
    63  C    0.057935
    64  C   -0.187239
    65  C    0.037747
    66  C    0.065771
    67  H   -0.022585
    68  H   -0.009218
    69  H   -0.040292
    70  H    0.050981
    71  H    0.006012
    72  H    0.025459
    73  H    0.012834
    74  H    0.037979
    75  H    0.016460
    76  H    0.021111
    77  H    0.021541
    78  H    0.051483
    79  H    0.035554
    80  H    0.049718
    81  H    0.010406
    82  H    0.031101
    83  H    0.019444
    84  H    0.027791
    85  H    0.007652
    86  H   -0.003311
    87  H    0.018719
    88  H    0.034249
    89  H    0.028172
    90  H    0.013799
    91  H    0.018121
    92  H    0.033094
    93  H    0.014661
    94  H    0.023439
    95  H    0.030279
    96  H    0.026313
    97  H    0.007619
    98  H    0.043986
    99  H    0.039894
   100  H    0.009955
   101  H    0.037735
   102  H    0.035906
   103  H    0.028563
   104  H   -0.010682
   105  H   -0.000689
   106  H    0.005547
   107  H    0.026847
   108  H    0.015075
   109  H   -0.010169
   110  H   -0.009527
   111  H    0.002231
   112  H   -0.013085
   113  H   -0.006383
   114  H   -0.008389
   115  H   -0.004958
   116  H    0.008183
   117  H   -0.002601
   118  H   -0.014931
   119  H   -0.005627
   120  H   -0.013087
   121  H   -0.005103
   122  H   -0.011485
   123  H   -0.014269
   124  H   -0.005685
   125  H    0.000675
   126  H    0.006664
   127  H    0.007636
   128  H   -0.002319
   129  H   -0.014613
   130  H    0.001548
   131  H    0.000358
   132  H   -0.003659
   133  H    0.000158
   134  H   -0.006246
   135  H    0.008176
   136  H    0.007416
   137  H    0.008931
   138  H   -0.001371
   139  H    0.002072
   140  H    0.008102
 Sum of Mulliken charges =  -0.00000

 Dipole moment (field-independent basis, Debye):
    X=              2.8801    Y=              4.2886    Z=             -2.6529  Tot=              5.8074
 Quadrupole moment (field-independent basis, Debye-Ang):
   XX=           -386.8787   YY=           -422.9060   ZZ=           -406.8980
   XY=             12.7551   XZ=             11.9145   YZ=             -5.2229

 Normal termination of Gaussian 16 at Thu May  5 07:35:02 2022.
