 Gaussian 16, Revision A.03,
 Gaussian 16:  ES64L-G16RevA.03 25-Dec-2016

 ---------------------------------
 #p PBE1PBE/Def2SVP td=(nstates=5)
 ---------------------------------

 -----------------------------------------------------
 step_751_chromophore_19 TDDFT with PBE1PBE functional
 -----------------------------------------------------
 Symbolic Z-matrix:
 Charge =  0 Multiplicity = 1

                         Standard orientation:
 ---------------------------------------------------------------------
 Center     Atomic      Atomic             Coordinates (Angstroms)
 Number     Number       Type             X           Y           Z
 ---------------------------------------------------------------------
      1         12           0       -5.910513    0.404205   -0.193151
      2          6           0       -3.371837   -2.200560   -0.326655
      3          6           0       -3.512094    2.645125    0.094040
      4          6           0       -8.331543    2.544048    0.759639
      5          6           0       -8.245872   -2.174259    0.122838
      6          7           0       -3.734167    0.219863   -0.080664
      7          6           0       -2.869445   -0.863595   -0.203969
      8          6           0       -1.391504   -0.384454   -0.151743
      9          6           0       -1.536139    1.155493    0.121368
     10          6           0       -2.980932    1.349633    0.037769
     11          6           0       -0.868972    1.677361    1.437968
     12          6           0       -0.582563   -0.731416   -1.525630
     13          6           0        0.558834   -1.704712   -1.273995
     14          6           0        1.758214   -1.228373   -0.378164
     15          8           0        1.659123   -0.929194    0.779204
     16          8           0        3.017233   -1.098737   -1.019044
     17          7           0       -5.934804    2.419956    0.079337
     18          6           0       -4.796576    3.226714    0.177825
     19          6           0       -5.181866    4.663638    0.254524
     20          6           0       -6.644909    4.606289    0.339058
     21          6           0       -7.026690    3.114811    0.455176
     22          6           0       -4.270181    5.800756    0.041123
     23          6           0       -7.586599    5.757673    0.360382
     24          8           0       -8.825015    5.679526    0.500270
     25          6           0       -7.050051    7.135857    0.098798
     26          7           0       -7.974257    0.198434    0.348798
     27          6           0       -8.840525    1.218522    0.585032
     28          6           0      -10.302768    0.756257    0.793543
     29          6           0      -10.252474   -0.641055   -0.007583
     30          6           0       -8.757295   -0.913687    0.231892
     31          6           0      -10.875650    0.815295    2.272054
     32          6           0      -10.658951   -0.544829   -1.538828
     33          6           0      -11.979877   -1.379634   -1.951661
     34          7           0       -5.892230   -1.747087   -0.174017
     35          6           0       -6.899074   -2.638233   -0.016401
     36          6           0       -6.397210   -3.958339   -0.232349
     37          6           0       -5.017462   -3.842868   -0.264597
     38          6           0       -4.769957   -2.474192   -0.279425
     39          6           0       -7.251787   -5.188788   -0.311701
     40          6           0       -3.768599   -4.557561   -0.350593
     41          8           0       -3.630457   -5.777374   -0.441315
     42          6           0       -2.659114   -3.511606   -0.403578
     43          6           0       -1.659359   -3.727094    0.672946
     44          8           0       -1.665245   -3.239328    1.751927
     45          8           0       -0.674058   -4.627237    0.252329
     46          6           0        0.202094   -4.940470    1.335042
     47          6           0        4.001688   -0.732547   -0.036231
     48          6           0        5.436461   -0.820042   -0.722945
     49          6           0        6.658989   -0.654484   -0.252370
     50          6           0        6.914098   -0.482896    1.196438
     51          6           0        7.897307   -0.449730   -1.066020
     52          6           0        8.011323    0.984145   -1.653428
     53          6           0        8.159600    1.178113   -3.196503
     54          6           0        9.557154    1.649754   -3.607025
     55          6           0        9.661232    2.247081   -4.985115
     56          6           0       10.615582    0.563751   -3.280382
     57          6           0       11.784847    1.205970   -2.586420
     58          6           0       12.648508    0.186083   -1.907573
     59          6           0       13.174658    0.467166   -0.503187
     60          6           0       14.576957   -0.195807   -0.233493
     61          6           0       12.171911    0.043563    0.558120
     62          6           0       12.442730    0.864240    1.820475
     63          6           0       12.724018    0.065910    3.103122
     64          6           0       11.640451    0.472309    4.131412
     65          6           0       11.888819    1.881938    4.760544
     66          6           0       11.335863   -0.627114    5.135329
     67          1           0       -2.763110    3.388847   -0.186057
     68          1           0       -9.056277    3.312129    1.038279
     69          1           0       -8.977159   -2.975218   -0.010722
     70          1           0       -1.013044   -0.944973    0.702981
     71          1           0       -1.158058    1.720059   -0.731864
     72          1           0       -1.604168    2.258584    1.995083
     73          1           0       -0.016867    2.265303    1.095402
     74          1           0       -0.510294    0.794376    1.966226
     75          1           0       -0.132227    0.145944   -1.991118
     76          1           0       -1.310281   -1.187661   -2.196096
     77          1           0        1.027370   -1.698658   -2.258922
     78          1           0        0.113099   -2.675411   -1.054537
     79          1           0       -4.316405    6.369825    0.968714
     80          1           0       -4.538402    6.317514   -0.879951
     81          1           0       -3.215250    5.532935   -0.012449
     82          1           0       -6.601734    7.212591   -0.891374
     83          1           0       -6.284037    7.381691    0.834051
     84          1           0       -7.864606    7.854349    0.182402
     85          1           0      -10.935405    1.452876    0.244048
     86          1           0      -10.805073   -1.392096    0.557417
     87          1           0      -10.031721    0.826711    2.962300
     88          1           0      -11.558572   -0.019686    2.428613
     89          1           0      -11.244809    1.834793    2.385385
     90          1           0       -9.884911   -1.011023   -2.148025
     91          1           0      -10.688360    0.513473   -1.798601
     92          1           0      -12.392628   -0.924313   -2.851789
     93          1           0      -12.534676   -1.314020   -1.016364
     94          1           0      -11.870187   -2.455667   -2.088586
     95          1           0       -7.997724   -5.364551    0.462261
     96          1           0       -6.661655   -6.073296   -0.554053
     97          1           0       -7.804477   -4.987973   -1.229974
     98          1           0       -2.158689   -3.459541   -1.369954
     99          1           0        0.457882   -4.125613    2.012858
    100          1           0        1.249034   -5.148532    1.111252
    101          1           0       -0.086079   -5.850194    1.861494
    102          1           0        4.081252   -1.375339    0.840263
    103          1           0        3.855624    0.291532    0.307653
    104          1           0        5.363228   -0.929110   -1.804947
    105          1           0        6.036201   -0.370290    1.832728
    106          1           0        7.428245    0.470859    1.316256
    107          1           0        7.520392   -1.282208    1.624322
    108          1           0        7.952862   -1.235671   -1.819561
    109          1           0        8.797731   -0.549660   -0.459728
    110          1           0        8.896955    1.375593   -1.154719
    111          1           0        7.237983    1.643300   -1.256967
    112          1           0        7.501654    1.929470   -3.632231
    113          1           0        8.002013    0.208989   -3.669731
    114          1           0        9.733703    2.481300   -2.924683
    115          1           0        8.671426    2.389270   -5.420158
    116          1           0       10.356233    1.703138   -5.624677
    117          1           0       10.016199    3.276417   -4.937283
    118          1           0       10.959867    0.144342   -4.225962
    119          1           0       10.193312   -0.321638   -2.806300
    120          1           0       11.398256    1.926244   -1.866102
    121          1           0       12.410622    1.784028   -3.266208
    122          1           0       13.375874    0.084082   -2.713755
    123          1           0       12.034130   -0.710970   -1.836657
    124          1           0       13.334680    1.544941   -0.518056
    125          1           0       14.574453   -0.851811    0.636041
    126          1           0       15.389880    0.497273   -0.014801
    127          1           0       14.861242   -0.800152   -1.095986
    128          1           0       12.152673   -1.018123    0.800807
    129          1           0       11.158280    0.263624    0.223706
    130          1           0       11.590552    1.520335    1.996454
    131          1           0       13.282748    1.540833    1.664072
    132          1           0       13.696118    0.398926    3.463733
    133          1           0       12.705165   -1.018516    2.993218
    134          1           0       10.698778    0.617709    3.600598
    135          1           0       10.941758    2.273541    5.130641
    136          1           0       12.296892    2.459045    3.930575
    137          1           0       12.535764    1.918298    5.637619
    138          1           0       11.079739   -0.100510    6.055010
    139          1           0       12.226272   -1.246012    5.244258
    140          1           0       10.541674   -1.311403    4.835515
 ---------------------------------------------------------------------

 SCF Done:  E(RPBE1PBE) =  -3005.33260865     A.U. after   15 cycles

 Excitation energies and oscillator strengths:

 Excited State   1:      Singlet-A      1.7950 eV  690.72 nm  f=0.3732  <S**2>=0.000
     245 -> 248        0.16914
     246 -> 247        0.69421
     246 <- 247       -0.11182
 This state for optimization and/or second-order correction.
 Total Energy, E(TD-HF/TD-DFT) =  -3005.26664330
 Copying the excited state density for this state as the 1-particle RhoCI density.

 Excited State   2:      Singlet-A      2.1620 eV  573.47 nm  f=0.1152  <S**2>=0.000
     245 -> 247        0.65712
     246 -> 248       -0.24358

 Excited State   3:      Singlet-A      2.9035 eV  427.02 nm  f=0.0015  <S**2>=0.000
     241 -> 247       -0.15041
     242 -> 247        0.51749
     242 -> 249        0.11919
     244 -> 247        0.39279

 Excited State   4:      Singlet-A      3.0609 eV  405.06 nm  f=0.0007  <S**2>=0.000
     240 -> 247       -0.11327
     241 -> 247       -0.15124
     242 -> 247       -0.43145
     244 -> 247        0.51411

 Excited State   5:      Singlet-A      3.1177 eV  397.67 nm  f=0.0022  <S**2>=0.000
     240 -> 247        0.58015
     240 -> 249       -0.16529
     240 -> 250       -0.10337
     241 -> 247       -0.32828

 The electronic state is 1-A.
 Alpha  occ. eigenvalues --  -46.92266 -19.26481 -19.26076 -19.21610 -19.21165
 Alpha  occ. eigenvalues --  -19.19028 -19.18303 -14.41966 -14.41148 -14.39554
 Alpha  occ. eigenvalues --  -14.38335 -10.37721 -10.36804 -10.32117 -10.31575
 Alpha  occ. eigenvalues --  -10.29795 -10.29190 -10.29061 -10.28983 -10.28535
 Alpha  occ. eigenvalues --  -10.28454 -10.27709 -10.27609 -10.27589 -10.26459
 Alpha  occ. eigenvalues --  -10.26401 -10.26197 -10.26188 -10.26129 -10.26085
 Alpha  occ. eigenvalues --  -10.26007 -10.25899 -10.25885 -10.25654 -10.25350
 Alpha  occ. eigenvalues --  -10.25132 -10.24954 -10.24717 -10.24408 -10.24123
 Alpha  occ. eigenvalues --  -10.23982 -10.23762 -10.23733 -10.23418 -10.23369
 Alpha  occ. eigenvalues --  -10.23348 -10.23263 -10.23135 -10.22937 -10.22830
 Alpha  occ. eigenvalues --  -10.22801 -10.22782 -10.22736 -10.22618 -10.22516
 Alpha  occ. eigenvalues --  -10.22387 -10.22144 -10.22066 -10.22054 -10.21905
 Alpha  occ. eigenvalues --  -10.21859 -10.21843 -10.21746 -10.21707 -10.21422
 Alpha  occ. eigenvalues --  -10.21253  -3.14367  -1.87204  -1.86735  -1.86599
 Alpha  occ. eigenvalues --   -1.12762  -1.12483  -1.04500  -1.04076  -1.04000
 Alpha  occ. eigenvalues --   -1.02734  -0.99224  -0.98209  -0.97931  -0.96767
 Alpha  occ. eigenvalues --   -0.88017  -0.85294  -0.84558  -0.83697  -0.83494
 Alpha  occ. eigenvalues --   -0.82940  -0.82076  -0.81976  -0.81911  -0.81225
 Alpha  occ. eigenvalues --   -0.80468  -0.79696  -0.78769  -0.77835  -0.77124
 Alpha  occ. eigenvalues --   -0.76683  -0.76050  -0.75153  -0.74752  -0.74282
 Alpha  occ. eigenvalues --   -0.74038  -0.72434  -0.71763  -0.71558  -0.70535
 Alpha  occ. eigenvalues --   -0.70016  -0.69761  -0.69608  -0.69207  -0.68798
 Alpha  occ. eigenvalues --   -0.68079  -0.66977  -0.65967  -0.64820  -0.63711
 Alpha  occ. eigenvalues --   -0.63254  -0.62634  -0.61708  -0.61195  -0.60216
 Alpha  occ. eigenvalues --   -0.59867  -0.59499  -0.59141  -0.58696  -0.58574
 Alpha  occ. eigenvalues --   -0.58337  -0.57065  -0.56830  -0.56609  -0.54583
 Alpha  occ. eigenvalues --   -0.54507  -0.54064  -0.53813  -0.53432  -0.52848
 Alpha  occ. eigenvalues --   -0.52031  -0.51502  -0.50936  -0.50634  -0.50202
 Alpha  occ. eigenvalues --   -0.49708  -0.49584  -0.49517  -0.49338  -0.48432
 Alpha  occ. eigenvalues --   -0.48289  -0.48167  -0.47673  -0.47598  -0.47383
 Alpha  occ. eigenvalues --   -0.47213  -0.47087  -0.46863  -0.46557  -0.46308
 Alpha  occ. eigenvalues --   -0.46127  -0.45937  -0.45851  -0.45753  -0.45558
 Alpha  occ. eigenvalues --   -0.44979  -0.44874  -0.44534  -0.44394  -0.44346
 Alpha  occ. eigenvalues --   -0.44211  -0.44109  -0.43896  -0.43796  -0.43614
 Alpha  occ. eigenvalues --   -0.43362  -0.43297  -0.42949  -0.42769  -0.42644
 Alpha  occ. eigenvalues --   -0.42418  -0.41855  -0.41687  -0.41643  -0.41406
 Alpha  occ. eigenvalues --   -0.41212  -0.41078  -0.40855  -0.40683  -0.40588
 Alpha  occ. eigenvalues --   -0.40368  -0.40195  -0.39847  -0.39821  -0.39660
 Alpha  occ. eigenvalues --   -0.39438  -0.39256  -0.39021  -0.38975  -0.38654
 Alpha  occ. eigenvalues --   -0.38442  -0.38270  -0.38060  -0.37941  -0.37574
 Alpha  occ. eigenvalues --   -0.37564  -0.37398  -0.37219  -0.37109  -0.36935
 Alpha  occ. eigenvalues --   -0.36742  -0.36552  -0.36357  -0.36211  -0.36182
 Alpha  occ. eigenvalues --   -0.35708  -0.35382  -0.35291  -0.35252  -0.35017
 Alpha  occ. eigenvalues --   -0.34375  -0.34177  -0.34098  -0.33830  -0.33779
 Alpha  occ. eigenvalues --   -0.33174  -0.33101  -0.32825  -0.32738  -0.32467
 Alpha  occ. eigenvalues --   -0.32232  -0.32213  -0.32037  -0.31617  -0.31462
 Alpha  occ. eigenvalues --   -0.31308  -0.31276  -0.30354  -0.30156  -0.29546
 Alpha  occ. eigenvalues --   -0.29447  -0.29049  -0.28074  -0.26546  -0.25873
 Alpha  occ. eigenvalues --   -0.25443  -0.25172  -0.25133  -0.25120  -0.20625
 Alpha  occ. eigenvalues --   -0.18468
 Alpha virt. eigenvalues --   -0.11098  -0.05054  -0.04129  -0.02561  -0.01021
 Alpha virt. eigenvalues --   -0.00659   0.00487   0.00969   0.02141   0.02827
 Alpha virt. eigenvalues --    0.03687   0.03944   0.04653   0.05359   0.06130

 Mulliken charges:
               1
     1  Mg   0.982941
     2  C   -0.089357
     3  C   -0.094336
     4  C   -0.048921
     5  C   -0.076490
     6  N   -0.391736
     7  C    0.026535
     8  C   -0.094729
     9  C   -0.128885
    10  C    0.070483
    11  C    0.043110
    12  C    0.004009
    13  C   -0.055937
    14  C    0.246213
    15  O   -0.239612
    16  O   -0.372717
    17  N   -0.516629
    18  C    0.158389
    19  C   -0.158849
    20  C   -0.094663
    21  C    0.153258
    22  C    0.060338
    23  C    0.040937
    24  O   -0.267476
    25  C   -0.023343
    26  N   -0.379763
    27  C    0.082341
    28  C   -0.127801
    29  C   -0.123905
    30  C    0.074904
    31  C    0.031380
    32  C   -0.000741
    33  C   -0.086958
    34  N   -0.412367
    35  C    0.115762
    36  C   -0.215276
    37  C   -0.011341
    38  C    0.132961
    39  C    0.073754
    40  C    0.125379
    41  O   -0.216113
    42  C   -0.045367
    43  C    0.257946
    44  O   -0.194614
    45  O   -0.359768
    46  C    0.110104
    47  C    0.227663
    48  C   -0.136737
    49  C   -0.211308
    50  C    0.012096
    51  C    0.011262
    52  C   -0.041544
    53  C    0.025493
    54  C   -0.255437
    55  C    0.031500
    56  C   -0.020056
    57  C   -0.051470
    58  C    0.011389
    59  C   -0.217142
    60  C   -0.006253
    61  C    0.014027
    62  C   -0.066878
    63  C    0.002296
    64  C   -0.279687
    65  C   -0.024447
    66  C    0.003129
    67  H    0.008558
    68  H    0.023644
    69  H   -0.007521
    70  H    0.090088
    71  H    0.042925
    72  H    0.053920
    73  H    0.039930
    74  H    0.064846
    75  H    0.047687
    76  H    0.054025
    77  H    0.055770
    78  H    0.090380
    79  H    0.062758
    80  H    0.075444
    81  H    0.036909
    82  H    0.057598
    83  H    0.046542
    84  H    0.054680
    85  H    0.045199
    86  H    0.032537
    87  H    0.047004
    88  H    0.060240
    89  H    0.055253
    90  H    0.047588
    91  H    0.049941
    92  H    0.060761
    93  H    0.043359
    94  H    0.050160
    95  H    0.057979
    96  H    0.055648
    97  H    0.037884
    98  H    0.080761
    99  H    0.060976
   100  H    0.032719
   101  H    0.060489
   102  H    0.062555
   103  H    0.056171
   104  H    0.020490
   105  H    0.026714
   106  H    0.034361
   107  H    0.054646
   108  H    0.045497
   109  H    0.028300
   110  H    0.024936
   111  H    0.034984
   112  H    0.019942
   113  H    0.027674
   114  H    0.031176
   115  H    0.021927
   116  H    0.034685
   117  H    0.025236
   118  H    0.019069
   119  H    0.028017
   120  H    0.018792
   121  H    0.028097
   122  H    0.021190
   123  H    0.019604
   124  H    0.032813
   125  H    0.028679
   126  H    0.033455
   127  H    0.034738
   128  H    0.029056
   129  H    0.028952
   130  H    0.032471
   131  H    0.032064
   132  H    0.030118
   133  H    0.031394
   134  H    0.033094
   135  H    0.036056
   136  H    0.036068
   137  H    0.036662
   138  H    0.026946
   139  H    0.030203
   140  H    0.035544
 Sum of Mulliken charges =  -0.00000

 Dipole moment (field-independent basis, Debye):
    X=              2.8255    Y=              3.7180    Z=             -2.7497  Tot=              5.4192
 Quadrupole moment (field-independent basis, Debye-Ang):
   XX=           -379.8054   YY=           -421.1993   ZZ=           -404.1752
   XY=             17.5930   XZ=             12.2757   YZ=             -5.2569

 Normal termination of Gaussian 16 at Thu May  5 08:12:20 2022.
