 Gaussian 16, Revision A.03,
 Gaussian 16:  ES64L-G16RevA.03 25-Dec-2016

 --------------------------------
 #p wB97XD/Def2SVP td=(nstates=5)
 --------------------------------

 ----------------------------------------------------
 step_751_chromophore_19 TDDFT with wB97XD functional
 ----------------------------------------------------
 Symbolic Z-matrix:
 Charge =  0 Multiplicity = 1

                         Standard orientation:
 ---------------------------------------------------------------------
 Center     Atomic      Atomic             Coordinates (Angstroms)
 Number     Number       Type             X           Y           Z
 ---------------------------------------------------------------------
      1         12           0       -5.910513    0.404205   -0.193151
      2          6           0       -3.371837   -2.200560   -0.326655
      3          6           0       -3.512094    2.645125    0.094040
      4          6           0       -8.331543    2.544048    0.759639
      5          6           0       -8.245872   -2.174259    0.122838
      6          7           0       -3.734167    0.219863   -0.080664
      7          6           0       -2.869445   -0.863595   -0.203969
      8          6           0       -1.391504   -0.384454   -0.151743
      9          6           0       -1.536139    1.155493    0.121368
     10          6           0       -2.980932    1.349633    0.037769
     11          6           0       -0.868972    1.677361    1.437968
     12          6           0       -0.582563   -0.731416   -1.525630
     13          6           0        0.558834   -1.704712   -1.273995
     14          6           0        1.758214   -1.228373   -0.378164
     15          8           0        1.659123   -0.929194    0.779204
     16          8           0        3.017233   -1.098737   -1.019044
     17          7           0       -5.934804    2.419956    0.079337
     18          6           0       -4.796576    3.226714    0.177825
     19          6           0       -5.181866    4.663638    0.254524
     20          6           0       -6.644909    4.606289    0.339058
     21          6           0       -7.026690    3.114811    0.455176
     22          6           0       -4.270181    5.800756    0.041123
     23          6           0       -7.586599    5.757673    0.360382
     24          8           0       -8.825015    5.679526    0.500270
     25          6           0       -7.050051    7.135857    0.098798
     26          7           0       -7.974257    0.198434    0.348798
     27          6           0       -8.840525    1.218522    0.585032
     28          6           0      -10.302768    0.756257    0.793543
     29          6           0      -10.252474   -0.641055   -0.007583
     30          6           0       -8.757295   -0.913687    0.231892
     31          6           0      -10.875650    0.815295    2.272054
     32          6           0      -10.658951   -0.544829   -1.538828
     33          6           0      -11.979877   -1.379634   -1.951661
     34          7           0       -5.892230   -1.747087   -0.174017
     35          6           0       -6.899074   -2.638233   -0.016401
     36          6           0       -6.397210   -3.958339   -0.232349
     37          6           0       -5.017462   -3.842868   -0.264597
     38          6           0       -4.769957   -2.474192   -0.279425
     39          6           0       -7.251787   -5.188788   -0.311701
     40          6           0       -3.768599   -4.557561   -0.350593
     41          8           0       -3.630457   -5.777374   -0.441315
     42          6           0       -2.659114   -3.511606   -0.403578
     43          6           0       -1.659359   -3.727094    0.672946
     44          8           0       -1.665245   -3.239328    1.751927
     45          8           0       -0.674058   -4.627237    0.252329
     46          6           0        0.202094   -4.940470    1.335042
     47          6           0        4.001688   -0.732547   -0.036231
     48          6           0        5.436461   -0.820042   -0.722945
     49          6           0        6.658989   -0.654484   -0.252370
     50          6           0        6.914098   -0.482896    1.196438
     51          6           0        7.897307   -0.449730   -1.066020
     52          6           0        8.011323    0.984145   -1.653428
     53          6           0        8.159600    1.178113   -3.196503
     54          6           0        9.557154    1.649754   -3.607025
     55          6           0        9.661232    2.247081   -4.985115
     56          6           0       10.615582    0.563751   -3.280382
     57          6           0       11.784847    1.205970   -2.586420
     58          6           0       12.648508    0.186083   -1.907573
     59          6           0       13.174658    0.467166   -0.503187
     60          6           0       14.576957   -0.195807   -0.233493
     61          6           0       12.171911    0.043563    0.558120
     62          6           0       12.442730    0.864240    1.820475
     63          6           0       12.724018    0.065910    3.103122
     64          6           0       11.640451    0.472309    4.131412
     65          6           0       11.888819    1.881938    4.760544
     66          6           0       11.335863   -0.627114    5.135329
     67          1           0       -2.763110    3.388847   -0.186057
     68          1           0       -9.056277    3.312129    1.038279
     69          1           0       -8.977159   -2.975218   -0.010722
     70          1           0       -1.013044   -0.944973    0.702981
     71          1           0       -1.158058    1.720059   -0.731864
     72          1           0       -1.604168    2.258584    1.995083
     73          1           0       -0.016867    2.265303    1.095402
     74          1           0       -0.510294    0.794376    1.966226
     75          1           0       -0.132227    0.145944   -1.991118
     76          1           0       -1.310281   -1.187661   -2.196096
     77          1           0        1.027370   -1.698658   -2.258922
     78          1           0        0.113099   -2.675411   -1.054537
     79          1           0       -4.316405    6.369825    0.968714
     80          1           0       -4.538402    6.317514   -0.879951
     81          1           0       -3.215250    5.532935   -0.012449
     82          1           0       -6.601734    7.212591   -0.891374
     83          1           0       -6.284037    7.381691    0.834051
     84          1           0       -7.864606    7.854349    0.182402
     85          1           0      -10.935405    1.452876    0.244048
     86          1           0      -10.805073   -1.392096    0.557417
     87          1           0      -10.031721    0.826711    2.962300
     88          1           0      -11.558572   -0.019686    2.428613
     89          1           0      -11.244809    1.834793    2.385385
     90          1           0       -9.884911   -1.011023   -2.148025
     91          1           0      -10.688360    0.513473   -1.798601
     92          1           0      -12.392628   -0.924313   -2.851789
     93          1           0      -12.534676   -1.314020   -1.016364
     94          1           0      -11.870187   -2.455667   -2.088586
     95          1           0       -7.997724   -5.364551    0.462261
     96          1           0       -6.661655   -6.073296   -0.554053
     97          1           0       -7.804477   -4.987973   -1.229974
     98          1           0       -2.158689   -3.459541   -1.369954
     99          1           0        0.457882   -4.125613    2.012858
    100          1           0        1.249034   -5.148532    1.111252
    101          1           0       -0.086079   -5.850194    1.861494
    102          1           0        4.081252   -1.375339    0.840263
    103          1           0        3.855624    0.291532    0.307653
    104          1           0        5.363228   -0.929110   -1.804947
    105          1           0        6.036201   -0.370290    1.832728
    106          1           0        7.428245    0.470859    1.316256
    107          1           0        7.520392   -1.282208    1.624322
    108          1           0        7.952862   -1.235671   -1.819561
    109          1           0        8.797731   -0.549660   -0.459728
    110          1           0        8.896955    1.375593   -1.154719
    111          1           0        7.237983    1.643300   -1.256967
    112          1           0        7.501654    1.929470   -3.632231
    113          1           0        8.002013    0.208989   -3.669731
    114          1           0        9.733703    2.481300   -2.924683
    115          1           0        8.671426    2.389270   -5.420158
    116          1           0       10.356233    1.703138   -5.624677
    117          1           0       10.016199    3.276417   -4.937283
    118          1           0       10.959867    0.144342   -4.225962
    119          1           0       10.193312   -0.321638   -2.806300
    120          1           0       11.398256    1.926244   -1.866102
    121          1           0       12.410622    1.784028   -3.266208
    122          1           0       13.375874    0.084082   -2.713755
    123          1           0       12.034130   -0.710970   -1.836657
    124          1           0       13.334680    1.544941   -0.518056
    125          1           0       14.574453   -0.851811    0.636041
    126          1           0       15.389880    0.497273   -0.014801
    127          1           0       14.861242   -0.800152   -1.095986
    128          1           0       12.152673   -1.018123    0.800807
    129          1           0       11.158280    0.263624    0.223706
    130          1           0       11.590552    1.520335    1.996454
    131          1           0       13.282748    1.540833    1.664072
    132          1           0       13.696118    0.398926    3.463733
    133          1           0       12.705165   -1.018516    2.993218
    134          1           0       10.698778    0.617709    3.600598
    135          1           0       10.941758    2.273541    5.130641
    136          1           0       12.296892    2.459045    3.930575
    137          1           0       12.535764    1.918298    5.637619
    138          1           0       11.079739   -0.100510    6.055010
    139          1           0       12.226272   -1.246012    5.244258
    140          1           0       10.541674   -1.311403    4.835515
 ---------------------------------------------------------------------

 SCF Done:  E(RwB97XD) =  -3007.84245005     A.U. after   18 cycles

 Excitation energies and oscillator strengths:

 Excited State   1:      Singlet-A      1.6018 eV  774.01 nm  f=0.3827  <S**2>=0.000
     245 -> 248        0.18136
     246 -> 247        0.68412
     245 <- 248        0.11569
 This state for optimization and/or second-order correction.
 Total Energy, E(TD-HF/TD-DFT) =  -3007.78358327
 Copying the excited state density for this state as the 1-particle RhoCI density.

 Excited State   2:      Singlet-A      2.1161 eV  585.92 nm  f=0.1164  <S**2>=0.000
     245 -> 247        0.64364
     246 -> 248       -0.27532

 Excited State   3:      Singlet-A      3.3985 eV  364.82 nm  f=0.1128  <S**2>=0.000
     242 -> 247        0.53978
     244 -> 247       -0.18255
     245 -> 247        0.10996
     246 -> 248        0.35822

 Excited State   4:      Singlet-A      3.4186 eV  362.67 nm  f=0.0521  <S**2>=0.000
     239 -> 247        0.16983
     239 -> 249        0.13532
     240 -> 247       -0.17430
     240 -> 249       -0.11759
     241 -> 247        0.46649
     241 -> 248       -0.10541
     241 -> 249        0.27088
     241 -> 250       -0.14563
     246 -> 248       -0.17666

 Excited State   5:      Singlet-A      3.4811 eV  356.16 nm  f=0.1344  <S**2>=0.000
     244 -> 247        0.56705
     245 -> 247        0.13079
     246 -> 248        0.36106

 The electronic state is 1-A.
 Alpha  occ. eigenvalues --  -46.95181 -19.31018 -19.30595 -19.26254 -19.25826
 Alpha  occ. eigenvalues --  -19.23635 -19.23407 -14.47154 -14.46145 -14.44620
 Alpha  occ. eigenvalues --  -14.43091 -10.44458 -10.43590 -10.38801 -10.38719
 Alpha  occ. eigenvalues --  -10.36256 -10.35859 -10.35473 -10.35242 -10.35094
 Alpha  occ. eigenvalues --  -10.34991 -10.34568 -10.34150 -10.33606 -10.32799
 Alpha  occ. eigenvalues --  -10.32614 -10.32500 -10.32490 -10.32341 -10.32310
 Alpha  occ. eigenvalues --  -10.32290 -10.32204 -10.32187 -10.31944 -10.31646
 Alpha  occ. eigenvalues --  -10.31624 -10.31158 -10.31047 -10.30716 -10.30501
 Alpha  occ. eigenvalues --  -10.30362 -10.30076 -10.30068 -10.29749 -10.29710
 Alpha  occ. eigenvalues --  -10.29630 -10.29610 -10.29589 -10.29493 -10.29205
 Alpha  occ. eigenvalues --  -10.29201 -10.29180 -10.28973 -10.28970 -10.28781
 Alpha  occ. eigenvalues --  -10.28750 -10.28501 -10.28497 -10.28420 -10.28275
 Alpha  occ. eigenvalues --  -10.28264 -10.28137 -10.28133 -10.27849 -10.27849
 Alpha  occ. eigenvalues --  -10.27621  -3.21146  -1.94733  -1.94263  -1.94123
 Alpha  occ. eigenvalues --   -1.20097  -1.19821  -1.11802  -1.11371  -1.11313
 Alpha  occ. eigenvalues --   -1.10516  -1.06388  -1.05548  -1.05321  -1.04316
 Alpha  occ. eigenvalues --   -0.95497  -0.92953  -0.92214  -0.91337  -0.91143
 Alpha  occ. eigenvalues --   -0.90796  -0.89854  -0.89630  -0.89480  -0.88777
 Alpha  occ. eigenvalues --   -0.87804  -0.87393  -0.86421  -0.85383  -0.84809
 Alpha  occ. eigenvalues --   -0.84346  -0.83833  -0.82847  -0.82392  -0.81912
 Alpha  occ. eigenvalues --   -0.81635  -0.80398  -0.79325  -0.79101  -0.78074
 Alpha  occ. eigenvalues --   -0.77684  -0.77462  -0.77194  -0.76895  -0.76445
 Alpha  occ. eigenvalues --   -0.75683  -0.74403  -0.73509  -0.72432  -0.71165
 Alpha  occ. eigenvalues --   -0.70863  -0.70264  -0.69323  -0.68816  -0.67681
 Alpha  occ. eigenvalues --   -0.67379  -0.67149  -0.66578  -0.66260  -0.66094
 Alpha  occ. eigenvalues --   -0.65773  -0.64713  -0.64239  -0.64148  -0.62113
 Alpha  occ. eigenvalues --   -0.62027  -0.61531  -0.61297  -0.60769  -0.60234
 Alpha  occ. eigenvalues --   -0.59379  -0.58972  -0.58334  -0.58065  -0.57679
 Alpha  occ. eigenvalues --   -0.57132  -0.57043  -0.56870  -0.56681  -0.55782
 Alpha  occ. eigenvalues --   -0.55657  -0.55596  -0.55379  -0.54991  -0.54772
 Alpha  occ. eigenvalues --   -0.54534  -0.54467  -0.54128  -0.54028  -0.53682
 Alpha  occ. eigenvalues --   -0.53359  -0.53259  -0.53186  -0.53050  -0.52915
 Alpha  occ. eigenvalues --   -0.52322  -0.52171  -0.52068  -0.51697  -0.51658
 Alpha  occ. eigenvalues --   -0.51597  -0.51439  -0.51213  -0.51134  -0.50898
 Alpha  occ. eigenvalues --   -0.50653  -0.50578  -0.50396  -0.49991  -0.49943
 Alpha  occ. eigenvalues --   -0.49672  -0.49200  -0.49113  -0.48931  -0.48645
 Alpha  occ. eigenvalues --   -0.48429  -0.48271  -0.48069  -0.47825  -0.47745
 Alpha  occ. eigenvalues --   -0.47622  -0.47309  -0.47041  -0.46889  -0.46861
 Alpha  occ. eigenvalues --   -0.46540  -0.46274  -0.46234  -0.46044  -0.45804
 Alpha  occ. eigenvalues --   -0.45546  -0.45362  -0.45218  -0.44944  -0.44861
 Alpha  occ. eigenvalues --   -0.44716  -0.44399  -0.44332  -0.44173  -0.43910
 Alpha  occ. eigenvalues --   -0.43861  -0.43652  -0.43459  -0.43317  -0.43249
 Alpha  occ. eigenvalues --   -0.43016  -0.42546  -0.42363  -0.42173  -0.41932
 Alpha  occ. eigenvalues --   -0.41395  -0.41141  -0.41019  -0.40865  -0.40765
 Alpha  occ. eigenvalues --   -0.40234  -0.40100  -0.39896  -0.39733  -0.39500
 Alpha  occ. eigenvalues --   -0.39289  -0.39175  -0.38932  -0.38635  -0.38497
 Alpha  occ. eigenvalues --   -0.38320  -0.38278  -0.37440  -0.36886  -0.36525
 Alpha  occ. eigenvalues --   -0.36323  -0.35977  -0.34715  -0.33214  -0.32810
 Alpha  occ. eigenvalues --   -0.32565  -0.32174  -0.31900  -0.31407  -0.25644
 Alpha  occ. eigenvalues --   -0.22640
 Alpha virt. eigenvalues --   -0.06981   0.00433   0.02031   0.03926   0.05278
 Alpha virt. eigenvalues --    0.05890   0.07335   0.07661   0.08868   0.09317
 Alpha virt. eigenvalues --    0.10268   0.10853   0.10941   0.12012   0.12794

 Mulliken charges:
               1
     1  Mg   0.972549
     2  C   -0.090766
     3  C   -0.108570
     4  C   -0.066137
     5  C   -0.088164
     6  N   -0.357348
     7  C   -0.010892
     8  C   -0.071695
     9  C   -0.104336
    10  C    0.061571
    11  C    0.053985
    12  C    0.014470
    13  C   -0.026715
    14  C    0.234261
    15  O   -0.237728
    16  O   -0.372524
    17  N   -0.490737
    18  C    0.155501
    19  C   -0.146707
    20  C   -0.091472
    21  C    0.150097
    22  C    0.073139
    23  C    0.038367
    24  O   -0.259032
    25  C   -0.009604
    26  N   -0.352216
    27  C    0.070923
    28  C   -0.104994
    29  C   -0.095668
    30  C    0.061811
    31  C    0.041817
    32  C    0.006522
    33  C   -0.067408
    34  N   -0.372485
    35  C    0.099996
    36  C   -0.210327
    37  C   -0.008394
    38  C    0.115752
    39  C    0.081426
    40  C    0.104768
    41  O   -0.206794
    42  C   -0.006611
    43  C    0.238203
    44  O   -0.188707
    45  O   -0.358179
    46  C    0.125312
    47  C    0.244104
    48  C   -0.153204
    49  C   -0.188811
    50  C    0.024693
    51  C    0.034861
    52  C   -0.023568
    53  C    0.042571
    54  C   -0.219036
    55  C    0.040118
    56  C   -0.004672
    57  C   -0.033836
    58  C    0.029340
    59  C   -0.183154
    60  C    0.002530
    61  C    0.037304
    62  C   -0.049685
    63  C    0.013362
    64  C   -0.243945
    65  C   -0.013921
    66  C    0.014773
    67  H   -0.000202
    68  H    0.018469
    69  H   -0.014367
    70  H    0.072584
    71  H    0.031432
    72  H    0.046915
    73  H    0.035213
    74  H    0.061471
    75  H    0.040224
    76  H    0.046133
    77  H    0.050084
    78  H    0.074949
    79  H    0.058460
    80  H    0.071602
    81  H    0.035063
    82  H    0.052433
    83  H    0.039800
    84  H    0.054807
    85  H    0.034764
    86  H    0.022405
    87  H    0.040932
    88  H    0.056133
    89  H    0.049638
    90  H    0.038717
    91  H    0.041705
    92  H    0.055633
    93  H    0.034387
    94  H    0.044624
    95  H    0.052826
    96  H    0.051811
    97  H    0.029544
    98  H    0.073274
    99  H    0.056822
   100  H    0.027915
   101  H    0.056602
   102  H    0.055306
   103  H    0.050057
   104  H    0.016669
   105  H    0.021504
   106  H    0.026794
   107  H    0.049613
   108  H    0.038328
   109  H    0.015013
   110  H    0.010830
   111  H    0.027083
   112  H    0.012287
   113  H    0.016758
   114  H    0.015280
   115  H    0.016208
   116  H    0.028984
   117  H    0.019920
   118  H    0.009572
   119  H    0.013362
   120  H    0.005114
   121  H    0.020994
   122  H    0.013273
   123  H    0.007080
   124  H    0.019869
   125  H    0.021281
   126  H    0.028604
   127  H    0.029142
   128  H    0.020481
   129  H    0.009242
   130  H    0.021978
   131  H    0.022233
   132  H    0.021706
   133  H    0.022533
   134  H    0.018751
   135  H    0.030491
   136  H    0.028586
   137  H    0.031008
   138  H    0.021080
   139  H    0.023421
   140  H    0.030679
 Sum of Mulliken charges =  -0.00000

 Dipole moment (field-independent basis, Debye):
    X=              2.9057    Y=              4.5792    Z=             -2.7137  Tot=              6.0644
 Quadrupole moment (field-independent basis, Debye-Ang):
   XX=           -381.6642   YY=           -418.5012   ZZ=           -403.7283
   XY=             12.0177   XZ=             12.2455   YZ=             -5.2554

 Normal termination of Gaussian 16 at Thu May  5 09:00:16 2022.
