 Gaussian 16, Revision A.03,
 Gaussian 16:  ES64L-G16RevA.03 25-Dec-2016

 --------------------
 #p ZINDO=(nstates=5)
 --------------------

 -----------------------------
 step_751_chromophore_19 ZINDO
 -----------------------------
 Symbolic Z-matrix:
 Charge =  0 Multiplicity = 1

                         Standard orientation:
 ---------------------------------------------------------------------
 Center     Atomic      Atomic             Coordinates (Angstroms)
 Number     Number       Type             X           Y           Z
 ---------------------------------------------------------------------
      1         12           0       -5.910513    0.404205   -0.193151
      2          6           0       -3.371837   -2.200560   -0.326655
      3          6           0       -3.512094    2.645125    0.094040
      4          6           0       -8.331543    2.544048    0.759639
      5          6           0       -8.245872   -2.174259    0.122838
      6          7           0       -3.734167    0.219863   -0.080664
      7          6           0       -2.869445   -0.863595   -0.203969
      8          6           0       -1.391504   -0.384454   -0.151743
      9          6           0       -1.536139    1.155493    0.121368
     10          6           0       -2.980932    1.349633    0.037769
     11          6           0       -0.868972    1.677361    1.437968
     12          6           0       -0.582563   -0.731416   -1.525630
     13          6           0        0.558834   -1.704712   -1.273995
     14          6           0        1.758214   -1.228373   -0.378164
     15          8           0        1.659123   -0.929194    0.779204
     16          8           0        3.017233   -1.098737   -1.019044
     17          7           0       -5.934804    2.419956    0.079337
     18          6           0       -4.796576    3.226714    0.177825
     19          6           0       -5.181866    4.663638    0.254524
     20          6           0       -6.644909    4.606289    0.339058
     21          6           0       -7.026690    3.114811    0.455176
     22          6           0       -4.270181    5.800756    0.041123
     23          6           0       -7.586599    5.757673    0.360382
     24          8           0       -8.825015    5.679526    0.500270
     25          6           0       -7.050051    7.135857    0.098798
     26          7           0       -7.974257    0.198434    0.348798
     27          6           0       -8.840525    1.218522    0.585032
     28          6           0      -10.302768    0.756257    0.793543
     29          6           0      -10.252474   -0.641055   -0.007583
     30          6           0       -8.757295   -0.913687    0.231892
     31          6           0      -10.875650    0.815295    2.272054
     32          6           0      -10.658951   -0.544829   -1.538828
     33          6           0      -11.979877   -1.379634   -1.951661
     34          7           0       -5.892230   -1.747087   -0.174017
     35          6           0       -6.899074   -2.638233   -0.016401
     36          6           0       -6.397210   -3.958339   -0.232349
     37          6           0       -5.017462   -3.842868   -0.264597
     38          6           0       -4.769957   -2.474192   -0.279425
     39          6           0       -7.251787   -5.188788   -0.311701
     40          6           0       -3.768599   -4.557561   -0.350593
     41          8           0       -3.630457   -5.777374   -0.441315
     42          6           0       -2.659114   -3.511606   -0.403578
     43          6           0       -1.659359   -3.727094    0.672946
     44          8           0       -1.665245   -3.239328    1.751927
     45          8           0       -0.674058   -4.627237    0.252329
     46          6           0        0.202094   -4.940470    1.335042
     47          6           0        4.001688   -0.732547   -0.036231
     48          6           0        5.436461   -0.820042   -0.722945
     49          6           0        6.658989   -0.654484   -0.252370
     50          6           0        6.914098   -0.482896    1.196438
     51          6           0        7.897307   -0.449730   -1.066020
     52          6           0        8.011323    0.984145   -1.653428
     53          6           0        8.159600    1.178113   -3.196503
     54          6           0        9.557154    1.649754   -3.607025
     55          6           0        9.661232    2.247081   -4.985115
     56          6           0       10.615582    0.563751   -3.280382
     57          6           0       11.784847    1.205970   -2.586420
     58          6           0       12.648508    0.186083   -1.907573
     59          6           0       13.174658    0.467166   -0.503187
     60          6           0       14.576957   -0.195807   -0.233493
     61          6           0       12.171911    0.043563    0.558120
     62          6           0       12.442730    0.864240    1.820475
     63          6           0       12.724018    0.065910    3.103122
     64          6           0       11.640451    0.472309    4.131412
     65          6           0       11.888819    1.881938    4.760544
     66          6           0       11.335863   -0.627114    5.135329
     67          1           0       -2.763110    3.388847   -0.186057
     68          1           0       -9.056277    3.312129    1.038279
     69          1           0       -8.977159   -2.975218   -0.010722
     70          1           0       -1.013044   -0.944973    0.702981
     71          1           0       -1.158058    1.720059   -0.731864
     72          1           0       -1.604168    2.258584    1.995083
     73          1           0       -0.016867    2.265303    1.095402
     74          1           0       -0.510294    0.794376    1.966226
     75          1           0       -0.132227    0.145944   -1.991118
     76          1           0       -1.310281   -1.187661   -2.196096
     77          1           0        1.027370   -1.698658   -2.258922
     78          1           0        0.113099   -2.675411   -1.054537
     79          1           0       -4.316405    6.369825    0.968714
     80          1           0       -4.538402    6.317514   -0.879951
     81          1           0       -3.215250    5.532935   -0.012449
     82          1           0       -6.601734    7.212591   -0.891374
     83          1           0       -6.284037    7.381691    0.834051
     84          1           0       -7.864606    7.854349    0.182402
     85          1           0      -10.935405    1.452876    0.244048
     86          1           0      -10.805073   -1.392096    0.557417
     87          1           0      -10.031721    0.826711    2.962300
     88          1           0      -11.558572   -0.019686    2.428613
     89          1           0      -11.244809    1.834793    2.385385
     90          1           0       -9.884911   -1.011023   -2.148025
     91          1           0      -10.688360    0.513473   -1.798601
     92          1           0      -12.392628   -0.924313   -2.851789
     93          1           0      -12.534676   -1.314020   -1.016364
     94          1           0      -11.870187   -2.455667   -2.088586
     95          1           0       -7.997724   -5.364551    0.462261
     96          1           0       -6.661655   -6.073296   -0.554053
     97          1           0       -7.804477   -4.987973   -1.229974
     98          1           0       -2.158689   -3.459541   -1.369954
     99          1           0        0.457882   -4.125613    2.012858
    100          1           0        1.249034   -5.148532    1.111252
    101          1           0       -0.086079   -5.850194    1.861494
    102          1           0        4.081252   -1.375339    0.840263
    103          1           0        3.855624    0.291532    0.307653
    104          1           0        5.363228   -0.929110   -1.804947
    105          1           0        6.036201   -0.370290    1.832728
    106          1           0        7.428245    0.470859    1.316256
    107          1           0        7.520392   -1.282208    1.624322
    108          1           0        7.952862   -1.235671   -1.819561
    109          1           0        8.797731   -0.549660   -0.459728
    110          1           0        8.896955    1.375593   -1.154719
    111          1           0        7.237983    1.643300   -1.256967
    112          1           0        7.501654    1.929470   -3.632231
    113          1           0        8.002013    0.208989   -3.669731
    114          1           0        9.733703    2.481300   -2.924683
    115          1           0        8.671426    2.389270   -5.420158
    116          1           0       10.356233    1.703138   -5.624677
    117          1           0       10.016199    3.276417   -4.937283
    118          1           0       10.959867    0.144342   -4.225962
    119          1           0       10.193312   -0.321638   -2.806300
    120          1           0       11.398256    1.926244   -1.866102
    121          1           0       12.410622    1.784028   -3.266208
    122          1           0       13.375874    0.084082   -2.713755
    123          1           0       12.034130   -0.710970   -1.836657
    124          1           0       13.334680    1.544941   -0.518056
    125          1           0       14.574453   -0.851811    0.636041
    126          1           0       15.389880    0.497273   -0.014801
    127          1           0       14.861242   -0.800152   -1.095986
    128          1           0       12.152673   -1.018123    0.800807
    129          1           0       11.158280    0.263624    0.223706
    130          1           0       11.590552    1.520335    1.996454
    131          1           0       13.282748    1.540833    1.664072
    132          1           0       13.696118    0.398926    3.463733
    133          1           0       12.705165   -1.018516    2.993218
    134          1           0       10.698778    0.617709    3.600598
    135          1           0       10.941758    2.273541    5.130641
    136          1           0       12.296892    2.459045    3.930575
    137          1           0       12.535764    1.918298    5.637619
    138          1           0       11.079739   -0.100510    6.055010
    139          1           0       12.226272   -1.246012    5.244258
    140          1           0       10.541674   -1.311403    4.835515
 ---------------------------------------------------------------------

 SCF Done:  E(RZINDO/S) =  -474.390102172     A.U. after   19 cycles

 Excitation energies and oscillator strengths:

 Excited State   1:      Singlet-A      1.2121 eV 1022.91 nm  f=0.5821  <S**2>=0.000
     175 ->178         0.17169
     176 ->177         0.66790
 This state for optimization and/or second-order correction.
 Total Energy, E(CIS/TDA) =  -474.345559082
 Copying the excited state density for this state as the 1-particle RhoCI density.

 Excited State   2:      Singlet-A      1.8830 eV  658.44 nm  f=0.0479  <S**2>=0.000
     175 ->177         0.54951
     176 ->178        -0.41311

 Excited State   3:      Singlet-A      2.8787 eV  430.70 nm  f=0.0524  <S**2>=0.000
     168 ->177         0.33864
     168 ->179        -0.41553
     168 ->180         0.18366
     168 ->185        -0.21758
     168 ->187         0.11036
     171 ->177         0.11025
     176 ->178        -0.11670
     176 ->179         0.12330

 Excited State   4:      Singlet-A      2.8947 eV  428.31 nm  f=0.3866  <S**2>=0.000
     168 ->179         0.11920
     175 ->177        -0.24156
     176 ->178        -0.36573
     176 ->179         0.40967
     176 ->180         0.23515

 Excited State   5:      Singlet-A      2.9350 eV  422.43 nm  f=0.4653  <S**2>=0.000
     171 ->177         0.18405
     175 ->177         0.26868
     176 ->178         0.36025
     176 ->179         0.46386

 The electronic state is 1-A.
 Alpha  occ. eigenvalues --   -1.85119  -1.79991  -1.79253  -1.74670  -1.73815
 Alpha  occ. eigenvalues --   -1.70243  -1.68577  -1.63144  -1.59319  -1.57760
 Alpha  occ. eigenvalues --   -1.56625  -1.52981  -1.49767  -1.48914  -1.44139
 Alpha  occ. eigenvalues --   -1.43671  -1.42676  -1.40225  -1.40074  -1.38893
 Alpha  occ. eigenvalues --   -1.36335  -1.32904  -1.32490  -1.31635  -1.28583
 Alpha  occ. eigenvalues --   -1.28026  -1.23552  -1.21585  -1.19549  -1.17435
 Alpha  occ. eigenvalues --   -1.16724  -1.16468  -1.14477  -1.14073  -1.13689
 Alpha  occ. eigenvalues --   -1.12388  -1.11499  -1.10877  -1.05028  -1.03960
 Alpha  occ. eigenvalues --   -1.02624  -1.00727  -0.99027  -0.97725  -0.96871
 Alpha  occ. eigenvalues --   -0.96008  -0.94527  -0.94275  -0.92853  -0.92062
 Alpha  occ. eigenvalues --   -0.90618  -0.89918  -0.89303  -0.88367  -0.85888
 Alpha  occ. eigenvalues --   -0.85587  -0.85001  -0.83137  -0.81725  -0.80141
 Alpha  occ. eigenvalues --   -0.79994  -0.78892  -0.78354  -0.76936  -0.76045
 Alpha  occ. eigenvalues --   -0.75271  -0.74810  -0.74610  -0.73837  -0.73044
 Alpha  occ. eigenvalues --   -0.72788  -0.72033  -0.71367  -0.71032  -0.69875
 Alpha  occ. eigenvalues --   -0.69708  -0.69019  -0.68769  -0.68165  -0.68089
 Alpha  occ. eigenvalues --   -0.67424  -0.67050  -0.66748  -0.66410  -0.65882
 Alpha  occ. eigenvalues --   -0.65508  -0.65138  -0.64932  -0.64415  -0.63888
 Alpha  occ. eigenvalues --   -0.63397  -0.63045  -0.62695  -0.62044  -0.61825
 Alpha  occ. eigenvalues --   -0.61593  -0.61183  -0.61054  -0.60782  -0.59999
 Alpha  occ. eigenvalues --   -0.59413  -0.59245  -0.58796  -0.58492  -0.58349
 Alpha  occ. eigenvalues --   -0.57653  -0.57605  -0.57338  -0.56448  -0.56024
 Alpha  occ. eigenvalues --   -0.55702  -0.55357  -0.54940  -0.54419  -0.54261
 Alpha  occ. eigenvalues --   -0.53832  -0.53777  -0.53423  -0.53031  -0.52973
 Alpha  occ. eigenvalues --   -0.52663  -0.52494  -0.52225  -0.52112  -0.52092
 Alpha  occ. eigenvalues --   -0.51437  -0.51092  -0.50936  -0.50614  -0.50242
 Alpha  occ. eigenvalues --   -0.49620  -0.49152  -0.49037  -0.49004  -0.48650
 Alpha  occ. eigenvalues --   -0.48411  -0.48030  -0.47938  -0.47654  -0.47424
 Alpha  occ. eigenvalues --   -0.47246  -0.47128  -0.46441  -0.46382  -0.46217
 Alpha  occ. eigenvalues --   -0.46038  -0.45709  -0.45351  -0.45128  -0.44977
 Alpha  occ. eigenvalues --   -0.44924  -0.44561  -0.44311  -0.44108  -0.44047
 Alpha  occ. eigenvalues --   -0.43770  -0.43673  -0.43422  -0.42290  -0.41928
 Alpha  occ. eigenvalues --   -0.41556  -0.41495  -0.40972  -0.38834  -0.38370
 Alpha  occ. eigenvalues --   -0.37635  -0.37331  -0.35582  -0.34432  -0.33901
 Alpha  occ. eigenvalues --   -0.32819  -0.32211  -0.31930  -0.31454  -0.26380
 Alpha  occ. eigenvalues --   -0.21362
 Alpha virt. eigenvalues --   -0.08378  -0.01740  -0.00805   0.01152   0.01613
 Alpha virt. eigenvalues --    0.02061   0.03034   0.03414   0.04779   0.05383
 Alpha virt. eigenvalues --    0.05912   0.06537   0.07526   0.07710   0.07719

 Mulliken charges:
               1
     1  Mg   0.428023
     2  C   -0.037544
     3  C   -0.087560
     4  C   -0.095964
     5  C   -0.071966
     6  N   -0.273923
     7  C    0.075090
     8  C   -0.007893
     9  C    0.008755
    10  C    0.178667
    11  C   -0.048049
    12  C   -0.023006
    13  C    0.003436
    14  C    0.458067
    15  O   -0.493490
    16  O   -0.266075
    17  N   -0.320342
    18  C    0.113086
    19  C    0.036493
    20  C   -0.055766
    21  C    0.165511
    22  C   -0.030067
    23  C    0.326106
    24  O   -0.535097
    25  C   -0.029826
    26  N   -0.280084
    27  C    0.174724
    28  C   -0.001281
    29  C   -0.001692
    30  C    0.105271
    31  C   -0.049280
    32  C   -0.030946
    33  C   -0.066777
    34  N   -0.313146
    35  C    0.076961
    36  C    0.017867
    37  C   -0.059180
    38  C    0.089019
    39  C   -0.045780
    40  C    0.338724
    41  O   -0.533461
    42  C    0.067979
    43  C    0.491484
    44  O   -0.497676
    45  O   -0.266414
    46  C    0.069366
    47  C    0.111123
    48  C   -0.105699
    49  C    0.007907
    50  C   -0.044093
    51  C   -0.011639
    52  C   -0.032761
    53  C   -0.031107
    54  C   -0.014765
    55  C   -0.054957
    56  C   -0.031383
    57  C   -0.028207
    58  C   -0.043980
    59  C   -0.001063
    60  C   -0.062155
    61  C   -0.024568
    62  C   -0.039895
    63  C   -0.032540
    64  C   -0.015936
    65  C   -0.058840
    66  C   -0.059502
    67  H    0.011632
    68  H    0.037361
    69  H    0.011818
    70  H    0.056903
    71  H    0.029193
    72  H    0.031239
    73  H    0.022851
    74  H    0.040195
    75  H    0.027963
    76  H    0.027794
    77  H    0.019457
    78  H    0.060938
    79  H    0.037955
    80  H    0.044346
    81  H    0.022682
    82  H    0.036128
    83  H    0.030760
    84  H    0.037122
    85  H    0.022768
    86  H    0.029898
    87  H    0.024499
    88  H    0.037232
    89  H    0.029508
    90  H    0.020851
    91  H    0.031645
    92  H    0.029842
    93  H    0.020679
    94  H    0.026904
    95  H    0.034636
    96  H    0.030545
    97  H    0.018397
    98  H    0.056013
    99  H    0.046243
   100  H    0.018176
   101  H    0.043290
   102  H    0.053953
   103  H    0.049360
   104  H    0.016699
   105  H    0.014442
   106  H    0.020090
   107  H    0.029330
   108  H    0.024140
   109  H    0.016831
   110  H    0.012226
   111  H    0.019403
   112  H    0.019565
   113  H    0.018287
   114  H    0.011953
   115  H    0.017414
   116  H    0.023713
   117  H    0.011033
   118  H    0.009225
   119  H    0.025967
   120  H    0.011898
   121  H    0.017916
   122  H    0.017478
   123  H    0.013376
   124  H    0.020970
   125  H    0.016264
   126  H    0.018572
   127  H    0.017791
   128  H    0.025596
   129  H    0.009920
   130  H    0.017201
   131  H    0.015032
   132  H    0.019203
   133  H    0.024626
   134  H    0.012091
   135  H    0.015739
   136  H    0.021243
   137  H    0.021626
   138  H    0.018508
   139  H    0.016258
   140  H    0.019311
 Sum of Mulliken charges =  -0.00000

 Dipole moment (field-independent basis, Debye):
    X=              4.7440    Y=              8.3286    Z=             -4.2151  Tot=             10.4708
 N-N= 4.285034956611D+03 E-N= 0.000000000000D+00  KE=-9.244830343638D+03
 Leave Link  601 at Thu May  5 09:21:14 2022, MaxMem=  6710886400 cpu:               1.6 elap:               0.1
 (Enter /sw/apps/gaussian-16.0/g16/l9999.exe)
 1\1\GINC-BP1-COMPUTE130\SP\RZINDO CIS\STO-3G\C55H74Mg1N4O6\OF15641\05-
 May-2022\0\\#p ZINDO=(nstates=5)\\step_751_chromophore_19 ZINDO\\0,1\M
 g,0,25.984,50.409,26.611\C,0,23.718,51.228,29.339\C,0,28.238,49.498,28
 .835\C,0,28.201,50.518,24.077\C,0,23.697,52.003,24.506\N,0,25.977,50.4
 19,28.798\C,0,24.995,50.714,29.739\C,0,25.521,50.435,31.175\C,0,27.014
 ,50.018,30.922\C,0,27.079,49.972,29.464\C,0,28.096,50.917,31.609\C,0,2
 4.644,49.292,31.941\C,0,23.94,49.853,33.167\C,0,24.822,50.353,34.367\O

 Normal termination of Gaussian 16 at Thu May  5 09:21:14 2022.
