 Gaussian 16, Revision A.03,
 Gaussian 16:  ES64L-G16RevA.03 25-Dec-2016

 ------------------------------
 #p blyp/Def2SVP td=(nstates=5)
 ------------------------------

 --------------------------------------------------
 step_801_chromophore_11 TDDFT with blyp functional
 --------------------------------------------------
 Symbolic Z-matrix:
 Charge =  0 Multiplicity = 1

                         Standard orientation:
 ---------------------------------------------------------------------
 Center     Atomic      Atomic             Coordinates (Angstroms)
 Number     Number       Type             X           Y           Z
 ---------------------------------------------------------------------
      1         12           0       -4.589471    1.468502    0.579954
      2          6           0       -5.154043   -2.127416    0.317489
      3          6           0       -2.555452    0.830827    3.324489
      4          6           0       -3.206385    4.708365    0.365752
      5          6           0       -6.472901    1.948708   -2.272985
      6          7           0       -3.752572   -0.420734    1.565172
      7          6           0       -4.314358   -1.696247    1.404921
      8          6           0       -3.879442   -2.591202    2.552200
      9          6           0       -3.171120   -1.638134    3.582444
     10          6           0       -3.147981   -0.287436    2.842375
     11          6           0       -3.742527   -1.686033    5.009775
     12          6           0       -2.923276   -3.816445    2.297968
     13          6           0       -1.912872   -3.664317    1.110995
     14          6           0       -0.541501   -4.449338    1.259973
     15          8           0        0.206428   -4.461755    2.220592
     16          8           0       -0.198133   -4.877774    0.003595
     17          7           0       -3.032561    2.623163    1.646031
     18          6           0       -2.388923    2.164614    2.784005
     19          6           0       -1.451228    3.192526    3.210408
     20          6           0       -1.481390    4.247279    2.248167
     21          6           0       -2.627755    3.935842    1.401437
     22          6           0       -0.597124    3.089226    4.421294
     23          6           0       -0.565234    5.439315    2.168432
     24          8           0        0.286752    5.620856    3.024468
     25          6           0       -0.617006    6.448933    1.005072
     26          7           0       -4.812835    3.040179   -0.727737
     27          6           0       -4.249103    4.300658   -0.585239
     28          6           0       -4.647050    5.215670   -1.743875
     29          6           0       -5.803114    4.375161   -2.425978
     30          6           0       -5.728921    3.034509   -1.786042
     31          6           0       -5.079048    6.676502   -1.385898
     32          6           0       -5.586115    4.182575   -3.918081
     33          6           0       -4.610432    3.184784   -4.546994
     34          7           0       -5.728928    0.231478   -0.660204
     35          6           0       -6.435587    0.623012   -1.783031
     36          6           0       -7.175260   -0.535984   -2.234833
     37          6           0       -6.760066   -1.567133   -1.393063
     38          6           0       -5.749882   -1.105202   -0.519217
     39          6           0       -8.149485   -0.532369   -3.351873
     40          6           0       -7.071643   -2.924023   -1.102613
     41          8           0       -7.895269   -3.687017   -1.558198
     42          6           0       -5.869245   -3.353218   -0.072969
     43          6           0       -5.028124   -4.276064   -0.839977
     44          8           0       -4.378446   -3.972176   -1.820817
     45          8           0       -5.060057   -5.493220   -0.297895
     46          6           0       -4.034710   -6.403278   -0.871010
     47          6           0        1.228661   -5.054342   -0.193911
     48          6           0        1.710158   -4.025255   -1.197646
     49          6           0        2.627051   -3.064547   -0.904632
     50          6           0        3.178706   -2.789659    0.473469
     51          6           0        3.109155   -2.073693   -2.047779
     52          6           0        4.599957   -1.889112   -2.279098
     53          6           0        5.160549   -0.450763   -2.168164
     54          6           0        5.895595   -0.182218   -0.841257
     55          6           0        5.296934    0.938428    0.001899
     56          6           0        7.353207    0.088087   -1.119914
     57          6           0        8.143228   -0.012177    0.189922
     58          6           0        9.367953    0.949105    0.215336
     59          6           0       10.437785    0.261719    0.911680
     60          6           0       10.174170    0.220619    2.399430
     61          6           0       11.769922    1.018088    0.662820
     62          6           0       12.440268    0.683889   -0.694705
     63          6           0       13.783343    0.041599   -0.540206
     64          6           0       14.628803    0.119004   -1.801278
     65          6           0       15.906244   -0.768117   -1.494901
     66          6           0       14.972059    1.561787   -2.264135
     67          1           0       -2.006893    0.617197    4.243611
     68          1           0       -3.053248    5.788520    0.303173
     69          1           0       -7.161785    2.180791   -3.087474
     70          1           0       -4.757530   -3.016345    3.039864
     71          1           0       -2.114168   -1.897951    3.633631
     72          1           0       -4.539793   -0.988244    5.267010
     73          1           0       -2.953576   -1.545278    5.748060
     74          1           0       -4.116882   -2.702600    5.127137
     75          1           0       -3.682279   -4.441190    1.827411
     76          1           0       -2.428033   -4.183639    3.197098
     77          1           0       -1.658769   -2.604864    1.156662
     78          1           0       -2.343536   -3.870203    0.131305
     79          1           0       -0.712622    4.049596    4.924269
     80          1           0        0.399554    2.745991    4.146841
     81          1           0       -1.064214    2.512990    5.220979
     82          1           0       -0.525209    5.902877    0.065538
     83          1           0        0.111866    7.222520    1.245335
     84          1           0       -1.614810    6.884423    1.063606
     85          1           0       -3.791258    5.399514   -2.393118
     86          1           0       -6.754885    4.851428   -2.188293
     87          1           0       -6.165360    6.667796   -1.304597
     88          1           0       -4.822318    7.405395   -2.154233
     89          1           0       -4.653651    6.986042   -0.430748
     90          1           0       -5.423515    5.213668   -4.232671
     91          1           0       -6.605516    4.067089   -4.285741
     92          1           0       -5.132079    2.782898   -5.414490
     93          1           0       -4.203265    2.349317   -3.976315
     94          1           0       -3.740307    3.735592   -4.903461
     95          1           0       -8.253042    0.459131   -3.793403
     96          1           0       -9.128904   -0.924729   -3.080681
     97          1           0       -7.819802   -1.182555   -4.162166
     98          1           0       -6.337452   -3.919869    0.731994
     99          1           0       -3.083023   -6.470927   -0.343849
    100          1           0       -3.704837   -6.326724   -1.906845
    101          1           0       -4.361403   -7.439790   -0.791073
    102          1           0        1.460434   -6.041908   -0.593685
    103          1           0        1.987830   -5.006530    0.587321
    104          1           0        1.258537   -4.122154   -2.184004
    105          1           0        2.380263   -2.919344    1.203222
    106          1           0        3.780312   -1.884003    0.553576
    107          1           0        3.918493   -3.579867    0.600600
    108          1           0        2.659669   -1.136651   -1.717738
    109          1           0        2.608601   -2.244144   -3.000530
    110          1           0        4.940632   -2.182375   -3.271889
    111          1           0        5.227171   -2.501921   -1.631389
    112          1           0        4.298377    0.169355   -2.413013
    113          1           0        5.736637   -0.206784   -3.060707
    114          1           0        5.820112   -1.037444   -0.169805
    115          1           0        4.311400    1.295892   -0.296016
    116          1           0        5.960786    1.802445    0.027770
    117          1           0        5.291563    0.562982    1.024842
    118          1           0        7.540621    1.096128   -1.489883
    119          1           0        7.706994   -0.732415   -1.743277
    120          1           0        8.413754   -1.061715    0.300266
    121          1           0        7.590935    0.128396    1.118889
    122          1           0        9.103909    1.840849    0.783638
    123          1           0        9.745420    1.192449   -0.777804
    124          1           0       10.621772   -0.713601    0.461543
    125          1           0       10.952144    0.792035    2.907204
    126          1           0       10.172151   -0.800269    2.781220
    127          1           0        9.208849    0.617930    2.711904
    128          1           0       12.482755    0.733751    1.437272
    129          1           0       11.491208    2.065725    0.772081
    130          1           0       12.555183    1.555639   -1.338934
    131          1           0       11.813314   -0.044037   -1.207947
    132          1           0       13.563937   -1.017959   -0.409898
    133          1           0       14.296962    0.516641    0.296168
    134          1           0       14.002536   -0.290230   -2.594030
    135          1           0       16.801667   -0.148376   -1.434828
    136          1           0       15.938332   -1.668559   -2.107901
    137          1           0       15.867361   -1.128281   -0.466268
    138          1           0       15.857084    1.551595   -2.900356
    139          1           0       14.972788    2.244300   -1.414535
    140          1           0       14.201098    1.920019   -2.946383
 ---------------------------------------------------------------------

 SCF Done:  E(RB-LYP) =  -3007.35282705     A.U. after   22 cycles

 Excitation energies and oscillator strengths:

 Excited State   1:      Singlet-A      1.6626 eV  745.71 nm  f=0.0180  <S**2>=0.000
     244 -> 247        0.67960
     245 -> 247       -0.11428
     246 -> 247        0.15355
 This state for optimization and/or second-order correction.
 Total Energy, E(TD-HF/TD-DFT) =  -3007.29172640
 Copying the excited state density for this state as the 1-particle RhoCI density.

 Excited State   2:      Singlet-A      1.7217 eV  720.14 nm  f=0.2792  <S**2>=0.000
     244 -> 247       -0.15501
     245 -> 248       -0.17954
     246 -> 247        0.68033
     246 <- 247       -0.16256

 Excited State   3:      Singlet-A      1.8826 eV  658.59 nm  f=0.0201  <S**2>=0.000
     240 -> 247        0.10449
     243 -> 247        0.56202
     245 -> 247        0.39337
     246 -> 248        0.10429

 Excited State   4:      Singlet-A      1.9945 eV  621.64 nm  f=0.0446  <S**2>=0.000
     243 -> 247       -0.41862
     245 -> 247        0.50065
     246 -> 248        0.23110

 Excited State   5:      Singlet-A      2.1358 eV  580.49 nm  f=0.0000  <S**2>=0.000
     242 -> 247        0.70641

 The electronic state is 1-A.
 Alpha  occ. eigenvalues --  -46.27771 -18.83328 -18.82472 -18.77347 -18.76299
 Alpha  occ. eigenvalues --  -18.75968 -18.75155 -14.03994 -14.03657 -14.01236
 Alpha  occ. eigenvalues --  -14.01084 -10.04458 -10.03368  -9.99613  -9.99584
 Alpha  occ. eigenvalues --   -9.97843  -9.97659  -9.97484  -9.97094  -9.96778
 Alpha  occ. eigenvalues --   -9.96586  -9.96263  -9.96054  -9.95844  -9.95009
 Alpha  occ. eigenvalues --   -9.94747  -9.94431  -9.93939  -9.93929  -9.93869
 Alpha  occ. eigenvalues --   -9.93830  -9.93679  -9.93593  -9.93529  -9.93482
 Alpha  occ. eigenvalues --   -9.93433  -9.93380  -9.93168  -9.93119  -9.93067
 Alpha  occ. eigenvalues --   -9.93025  -9.92730  -9.92574  -9.92397  -9.92380
 Alpha  occ. eigenvalues --   -9.92077  -9.92045  -9.91950  -9.91770  -9.91575
 Alpha  occ. eigenvalues --   -9.91324  -9.91204  -9.91039  -9.90829  -9.90693
 Alpha  occ. eigenvalues --   -9.90627  -9.90594  -9.90552  -9.90402  -9.90393
 Alpha  occ. eigenvalues --   -9.90341  -9.90306  -9.90221  -9.90215  -9.90197
 Alpha  occ. eigenvalues --   -9.90187  -2.92262  -1.72679  -1.72131  -1.71989
 Alpha  occ. eigenvalues --   -0.99183  -0.98214  -0.92106  -0.91349  -0.90392
 Alpha  occ. eigenvalues --   -0.89932  -0.86403  -0.85258  -0.84491  -0.83708
 Alpha  occ. eigenvalues --   -0.75681  -0.74320  -0.73203  -0.73149  -0.72374
 Alpha  occ. eigenvalues --   -0.72085  -0.71707  -0.71488  -0.71019  -0.70196
 Alpha  occ. eigenvalues --   -0.69496  -0.68858  -0.68243  -0.67870  -0.67161
 Alpha  occ. eigenvalues --   -0.66230  -0.66000  -0.65132  -0.65041  -0.64380
 Alpha  occ. eigenvalues --   -0.63819  -0.62692  -0.62284  -0.61801  -0.61024
 Alpha  occ. eigenvalues --   -0.60456  -0.60257  -0.59935  -0.59551  -0.58752
 Alpha  occ. eigenvalues --   -0.58238  -0.57688  -0.57208  -0.55878  -0.55489
 Alpha  occ. eigenvalues --   -0.54223  -0.53670  -0.52722  -0.51994  -0.51556
 Alpha  occ. eigenvalues --   -0.51048  -0.50919  -0.50737  -0.50507  -0.49815
 Alpha  occ. eigenvalues --   -0.49574  -0.48960  -0.48867  -0.48435  -0.46378
 Alpha  occ. eigenvalues --   -0.45915  -0.45769  -0.45479  -0.44901  -0.44719
 Alpha  occ. eigenvalues --   -0.43885  -0.43563  -0.43491  -0.42811  -0.42476
 Alpha  occ. eigenvalues --   -0.42069  -0.41960  -0.41892  -0.41728  -0.41286
 Alpha  occ. eigenvalues --   -0.41221  -0.40712  -0.40444  -0.40404  -0.40104
 Alpha  occ. eigenvalues --   -0.39850  -0.39588  -0.39563  -0.39393  -0.39067
 Alpha  occ. eigenvalues --   -0.38866  -0.38700  -0.38614  -0.38405  -0.38328
 Alpha  occ. eigenvalues --   -0.38097  -0.37936  -0.37674  -0.37493  -0.37333
 Alpha  occ. eigenvalues --   -0.37276  -0.36984  -0.36761  -0.36422  -0.36103
 Alpha  occ. eigenvalues --   -0.35970  -0.35929  -0.35755  -0.35624  -0.35414
 Alpha  occ. eigenvalues --   -0.35029  -0.34934  -0.34819  -0.34725  -0.34692
 Alpha  occ. eigenvalues --   -0.34401  -0.34280  -0.34272  -0.34127  -0.33945
 Alpha  occ. eigenvalues --   -0.33845  -0.33588  -0.33512  -0.33433  -0.33363
 Alpha  occ. eigenvalues --   -0.33310  -0.33092  -0.32828  -0.32826  -0.32590
 Alpha  occ. eigenvalues --   -0.32316  -0.32011  -0.31936  -0.31538  -0.31363
 Alpha  occ. eigenvalues --   -0.31237  -0.31084  -0.30897  -0.30774  -0.30661
 Alpha  occ. eigenvalues --   -0.30466  -0.30364  -0.30334  -0.30097  -0.29977
 Alpha  occ. eigenvalues --   -0.29896  -0.29213  -0.29141  -0.29031  -0.28867
 Alpha  occ. eigenvalues --   -0.28710  -0.28664  -0.27787  -0.27443  -0.27297
 Alpha  occ. eigenvalues --   -0.27189  -0.27106  -0.26931  -0.26687  -0.26652
 Alpha  occ. eigenvalues --   -0.25917  -0.25858  -0.25607  -0.25497  -0.25272
 Alpha  occ. eigenvalues --   -0.25189  -0.24778  -0.24582  -0.23937  -0.23395
 Alpha  occ. eigenvalues --   -0.22768  -0.22504  -0.22377  -0.21466  -0.20470
 Alpha  occ. eigenvalues --   -0.20128  -0.20040  -0.19056  -0.18240  -0.17734
 Alpha  occ. eigenvalues --   -0.16078
 Alpha virt. eigenvalues --   -0.12191  -0.07444  -0.06227  -0.04703  -0.03735
 Alpha virt. eigenvalues --   -0.03208  -0.02262  -0.01864  -0.01294  -0.00416
 Alpha virt. eigenvalues --    0.00905   0.01526   0.02166   0.02814   0.02853

 Mulliken charges:
               1
     1  Mg   0.679143
     2  C    0.070928
     3  C   -0.041801
     4  C   -0.068826
     5  C   -0.073690
     6  N   -0.243079
     7  C   -0.046071
     8  C   -0.003658
     9  C    0.015273
    10  C    0.014928
    11  C    0.134937
    12  C    0.098806
    13  C    0.059722
    14  C    0.103330
    15  O   -0.183484
    16  O   -0.243544
    17  N   -0.268823
    18  C    0.139773
    19  C   -0.166705
    20  C    0.050575
    21  C    0.136572
    22  C    0.210624
    23  C   -0.115466
    24  O   -0.165014
    25  C    0.142093
    26  N   -0.274368
    27  C    0.023531
    28  C   -0.018128
    29  C    0.081525
    30  C    0.022105
    31  C    0.110145
    32  C    0.050255
    33  C    0.113855
    34  N   -0.281825
    35  C    0.136243
    36  C   -0.138387
    37  C    0.089962
    38  C    0.066805
    39  C    0.177401
    40  C   -0.056818
    41  O   -0.113339
    42  C    0.018729
    43  C    0.096760
    44  O   -0.182172
    45  O   -0.227489
    46  C    0.209351
    47  C    0.307115
    48  C   -0.126593
    49  C   -0.153302
    50  C    0.148657
    51  C    0.161632
    52  C    0.055813
    53  C    0.115892
    54  C   -0.089502
    55  C    0.113367
    56  C    0.159722
    57  C    0.028462
    58  C    0.144325
    59  C   -0.138103
    60  C    0.138465
    61  C    0.133098
    62  C    0.082720
    63  C    0.078795
    64  C   -0.107811
    65  C    0.130338
    66  C    0.108174
    67  H   -0.063899
    68  H   -0.063392
    69  H   -0.060954
    70  H   -0.027463
    71  H   -0.011770
    72  H   -0.005188
    73  H   -0.007751
    74  H   -0.009030
    75  H   -0.018132
    76  H    0.005780
    77  H    0.014109
    78  H    0.016593
    79  H   -0.002748
    80  H    0.023746
    81  H   -0.031196
    82  H    0.014700
    83  H   -0.005531
    84  H    0.007985
    85  H   -0.008539
    86  H   -0.024303
    87  H   -0.022363
    88  H   -0.004609
    89  H   -0.003790
    90  H   -0.040746
    91  H   -0.033682
    92  H   -0.007630
    93  H    0.023415
    94  H   -0.010597
    95  H   -0.028311
    96  H    0.008424
    97  H    0.005165
    98  H   -0.023835
    99  H    0.008197
   100  H    0.025571
   101  H   -0.000047
   102  H   -0.017226
   103  H   -0.016457
   104  H   -0.036935
   105  H    0.028470
   106  H   -0.008487
   107  H    0.002500
   108  H   -0.017802
   109  H   -0.036108
   110  H   -0.036229
   111  H   -0.035879
   112  H   -0.055971
   113  H   -0.048316
   114  H   -0.031774
   115  H   -0.012500
   116  H   -0.025180
   117  H   -0.015421
   118  H   -0.022029
   119  H   -0.035727
   120  H   -0.046111
   121  H   -0.041770
   122  H   -0.033330
   123  H   -0.035339
   124  H   -0.044909
   125  H   -0.021873
   126  H   -0.022720
   127  H   -0.022268
   128  H   -0.043574
   129  H   -0.046604
   130  H   -0.044489
   131  H   -0.039959
   132  H   -0.032934
   133  H   -0.024316
   134  H   -0.044212
   135  H   -0.022450
   136  H   -0.006058
   137  H   -0.033295
   138  H   -0.014494
   139  H   -0.010269
   140  H   -0.018078
 Sum of Mulliken charges =  -0.00000

 Dipole moment (field-independent basis, Debye):
    X=             -0.8944    Y=              2.7052    Z=             -1.0727  Tot=              3.0445
 Quadrupole moment (field-independent basis, Debye-Ang):
   XX=           -408.3013   YY=           -401.2933   ZZ=           -400.7416
   XY=            -44.9721   XZ=            -13.0218   YZ=            -24.6556

 Normal termination of Gaussian 16 at Thu May  5 09:44:55 2022.
