 Gaussian 16, Revision A.03,
 Gaussian 16:  ES64L-G16RevA.03 25-Dec-2016

 -----------------------------------
 #p cam-b3lyp/Def2SVP td=(nstates=5)
 -----------------------------------

 -------------------------------------------------------
 step_801_chromophore_11 TDDFT with cam-b3lyp functional
 -------------------------------------------------------
 Symbolic Z-matrix:
 Charge =  0 Multiplicity = 1

                         Standard orientation:
 ---------------------------------------------------------------------
 Center     Atomic      Atomic             Coordinates (Angstroms)
 Number     Number       Type             X           Y           Z
 ---------------------------------------------------------------------
      1         12           0       -4.589471    1.468502    0.579954
      2          6           0       -5.154043   -2.127416    0.317489
      3          6           0       -2.555452    0.830827    3.324489
      4          6           0       -3.206385    4.708365    0.365752
      5          6           0       -6.472901    1.948708   -2.272985
      6          7           0       -3.752572   -0.420734    1.565172
      7          6           0       -4.314358   -1.696247    1.404921
      8          6           0       -3.879442   -2.591202    2.552200
      9          6           0       -3.171120   -1.638134    3.582444
     10          6           0       -3.147981   -0.287436    2.842375
     11          6           0       -3.742527   -1.686033    5.009775
     12          6           0       -2.923276   -3.816445    2.297968
     13          6           0       -1.912872   -3.664317    1.110995
     14          6           0       -0.541501   -4.449338    1.259973
     15          8           0        0.206428   -4.461755    2.220592
     16          8           0       -0.198133   -4.877774    0.003595
     17          7           0       -3.032561    2.623163    1.646031
     18          6           0       -2.388923    2.164614    2.784005
     19          6           0       -1.451228    3.192526    3.210408
     20          6           0       -1.481390    4.247279    2.248167
     21          6           0       -2.627755    3.935842    1.401437
     22          6           0       -0.597124    3.089226    4.421294
     23          6           0       -0.565234    5.439315    2.168432
     24          8           0        0.286752    5.620856    3.024468
     25          6           0       -0.617006    6.448933    1.005072
     26          7           0       -4.812835    3.040179   -0.727737
     27          6           0       -4.249103    4.300658   -0.585239
     28          6           0       -4.647050    5.215670   -1.743875
     29          6           0       -5.803114    4.375161   -2.425978
     30          6           0       -5.728921    3.034509   -1.786042
     31          6           0       -5.079048    6.676502   -1.385898
     32          6           0       -5.586115    4.182575   -3.918081
     33          6           0       -4.610432    3.184784   -4.546994
     34          7           0       -5.728928    0.231478   -0.660204
     35          6           0       -6.435587    0.623012   -1.783031
     36          6           0       -7.175260   -0.535984   -2.234833
     37          6           0       -6.760066   -1.567133   -1.393063
     38          6           0       -5.749882   -1.105202   -0.519217
     39          6           0       -8.149485   -0.532369   -3.351873
     40          6           0       -7.071643   -2.924023   -1.102613
     41          8           0       -7.895269   -3.687017   -1.558198
     42          6           0       -5.869245   -3.353218   -0.072969
     43          6           0       -5.028124   -4.276064   -0.839977
     44          8           0       -4.378446   -3.972176   -1.820817
     45          8           0       -5.060057   -5.493220   -0.297895
     46          6           0       -4.034710   -6.403278   -0.871010
     47          6           0        1.228661   -5.054342   -0.193911
     48          6           0        1.710158   -4.025255   -1.197646
     49          6           0        2.627051   -3.064547   -0.904632
     50          6           0        3.178706   -2.789659    0.473469
     51          6           0        3.109155   -2.073693   -2.047779
     52          6           0        4.599957   -1.889112   -2.279098
     53          6           0        5.160549   -0.450763   -2.168164
     54          6           0        5.895595   -0.182218   -0.841257
     55          6           0        5.296934    0.938428    0.001899
     56          6           0        7.353207    0.088087   -1.119914
     57          6           0        8.143228   -0.012177    0.189922
     58          6           0        9.367953    0.949105    0.215336
     59          6           0       10.437785    0.261719    0.911680
     60          6           0       10.174170    0.220619    2.399430
     61          6           0       11.769922    1.018088    0.662820
     62          6           0       12.440268    0.683889   -0.694705
     63          6           0       13.783343    0.041599   -0.540206
     64          6           0       14.628803    0.119004   -1.801278
     65          6           0       15.906244   -0.768117   -1.494901
     66          6           0       14.972059    1.561787   -2.264135
     67          1           0       -2.006893    0.617197    4.243611
     68          1           0       -3.053248    5.788520    0.303173
     69          1           0       -7.161785    2.180791   -3.087474
     70          1           0       -4.757530   -3.016345    3.039864
     71          1           0       -2.114168   -1.897951    3.633631
     72          1           0       -4.539793   -0.988244    5.267010
     73          1           0       -2.953576   -1.545278    5.748060
     74          1           0       -4.116882   -2.702600    5.127137
     75          1           0       -3.682279   -4.441190    1.827411
     76          1           0       -2.428033   -4.183639    3.197098
     77          1           0       -1.658769   -2.604864    1.156662
     78          1           0       -2.343536   -3.870203    0.131305
     79          1           0       -0.712622    4.049596    4.924269
     80          1           0        0.399554    2.745991    4.146841
     81          1           0       -1.064214    2.512990    5.220979
     82          1           0       -0.525209    5.902877    0.065538
     83          1           0        0.111866    7.222520    1.245335
     84          1           0       -1.614810    6.884423    1.063606
     85          1           0       -3.791258    5.399514   -2.393118
     86          1           0       -6.754885    4.851428   -2.188293
     87          1           0       -6.165360    6.667796   -1.304597
     88          1           0       -4.822318    7.405395   -2.154233
     89          1           0       -4.653651    6.986042   -0.430748
     90          1           0       -5.423515    5.213668   -4.232671
     91          1           0       -6.605516    4.067089   -4.285741
     92          1           0       -5.132079    2.782898   -5.414490
     93          1           0       -4.203265    2.349317   -3.976315
     94          1           0       -3.740307    3.735592   -4.903461
     95          1           0       -8.253042    0.459131   -3.793403
     96          1           0       -9.128904   -0.924729   -3.080681
     97          1           0       -7.819802   -1.182555   -4.162166
     98          1           0       -6.337452   -3.919869    0.731994
     99          1           0       -3.083023   -6.470927   -0.343849
    100          1           0       -3.704837   -6.326724   -1.906845
    101          1           0       -4.361403   -7.439790   -0.791073
    102          1           0        1.460434   -6.041908   -0.593685
    103          1           0        1.987830   -5.006530    0.587321
    104          1           0        1.258537   -4.122154   -2.184004
    105          1           0        2.380263   -2.919344    1.203222
    106          1           0        3.780312   -1.884003    0.553576
    107          1           0        3.918493   -3.579867    0.600600
    108          1           0        2.659669   -1.136651   -1.717738
    109          1           0        2.608601   -2.244144   -3.000530
    110          1           0        4.940632   -2.182375   -3.271889
    111          1           0        5.227171   -2.501921   -1.631389
    112          1           0        4.298377    0.169355   -2.413013
    113          1           0        5.736637   -0.206784   -3.060707
    114          1           0        5.820112   -1.037444   -0.169805
    115          1           0        4.311400    1.295892   -0.296016
    116          1           0        5.960786    1.802445    0.027770
    117          1           0        5.291563    0.562982    1.024842
    118          1           0        7.540621    1.096128   -1.489883
    119          1           0        7.706994   -0.732415   -1.743277
    120          1           0        8.413754   -1.061715    0.300266
    121          1           0        7.590935    0.128396    1.118889
    122          1           0        9.103909    1.840849    0.783638
    123          1           0        9.745420    1.192449   -0.777804
    124          1           0       10.621772   -0.713601    0.461543
    125          1           0       10.952144    0.792035    2.907204
    126          1           0       10.172151   -0.800269    2.781220
    127          1           0        9.208849    0.617930    2.711904
    128          1           0       12.482755    0.733751    1.437272
    129          1           0       11.491208    2.065725    0.772081
    130          1           0       12.555183    1.555639   -1.338934
    131          1           0       11.813314   -0.044037   -1.207947
    132          1           0       13.563937   -1.017959   -0.409898
    133          1           0       14.296962    0.516641    0.296168
    134          1           0       14.002536   -0.290230   -2.594030
    135          1           0       16.801667   -0.148376   -1.434828
    136          1           0       15.938332   -1.668559   -2.107901
    137          1           0       15.867361   -1.128281   -0.466268
    138          1           0       15.857084    1.551595   -2.900356
    139          1           0       14.972788    2.244300   -1.414535
    140          1           0       14.201098    1.920019   -2.946383
 ---------------------------------------------------------------------

 SCF Done:  E(RCAM-B3LYP) =  -3007.14608862     A.U. after   17 cycles

 Excitation energies and oscillator strengths:

 Excited State   1:      Singlet-A      1.5838 eV  782.83 nm  f=0.3694  <S**2>=0.000
     245 -> 248        0.16542
     246 -> 247        0.69004
     245 <- 248        0.10914
 This state for optimization and/or second-order correction.
 Total Energy, E(TD-HF/TD-DFT) =  -3007.08788557
 Copying the excited state density for this state as the 1-particle RhoCI density.

 Excited State   2:      Singlet-A      2.1625 eV  573.34 nm  f=0.0935  <S**2>=0.000
     245 -> 247        0.63490
     246 -> 248       -0.29416

 Excited State   3:      Singlet-A      3.0899 eV  401.25 nm  f=0.0029  <S**2>=0.000
     243 -> 247       -0.31161
     244 -> 247        0.61083

 Excited State   4:      Singlet-A      3.1929 eV  388.31 nm  f=0.0043  <S**2>=0.000
     242 -> 247       -0.13100
     243 -> 247        0.57699
     244 -> 247        0.31756
     246 -> 248        0.12852

 Excited State   5:      Singlet-A      3.4055 eV  364.07 nm  f=0.2775  <S**2>=0.000
     239 -> 247        0.12215
     239 -> 249        0.10603
     240 -> 247       -0.10460
     241 -> 247        0.42034
     241 -> 249        0.15141
     245 -> 247        0.19837
     246 -> 248        0.44249

 The electronic state is 1-A.
 Alpha  occ. eigenvalues --  -46.89427 -19.26321 -19.25280 -19.20332 -19.19296
 Alpha  occ. eigenvalues --  -19.19000 -19.18477 -14.43085 -14.42460 -14.39855
 Alpha  occ. eigenvalues --  -14.39411 -10.39811 -10.38639 -10.34890 -10.34868
 Alpha  occ. eigenvalues --  -10.32485 -10.32379 -10.31525 -10.31148 -10.31144
 Alpha  occ. eigenvalues --  -10.31075 -10.30860 -10.30617 -10.29950 -10.29337
 Alpha  occ. eigenvalues --  -10.28914 -10.28460 -10.28360 -10.28279 -10.27969
 Alpha  occ. eigenvalues --  -10.27877 -10.27853 -10.27843 -10.27819 -10.27742
 Alpha  occ. eigenvalues --  -10.27496 -10.27473 -10.27141 -10.27060 -10.27045
 Alpha  occ. eigenvalues --  -10.26947 -10.26766 -10.26452 -10.26260 -10.26036
 Alpha  occ. eigenvalues --  -10.25928 -10.25615 -10.25612 -10.25482 -10.25396
 Alpha  occ. eigenvalues --  -10.24982 -10.24844 -10.24800 -10.24467 -10.24414
 Alpha  occ. eigenvalues --  -10.24300 -10.24233 -10.24184 -10.24060 -10.24023
 Alpha  occ. eigenvalues --  -10.23953 -10.23879 -10.23865 -10.23836 -10.23819
 Alpha  occ. eigenvalues --  -10.23793  -3.17812  -1.92707  -1.92256  -1.92114
 Alpha  occ. eigenvalues --   -1.17750  -1.16645  -1.10387  -1.09858  -1.08256
 Alpha  occ. eigenvalues --   -1.07878  -1.04008  -1.02939  -1.02157  -1.01239
 Alpha  occ. eigenvalues --   -0.92766  -0.91244  -0.89949  -0.89920  -0.89112
 Alpha  occ. eigenvalues --   -0.88790  -0.88425  -0.88119  -0.87617  -0.86694
 Alpha  occ. eigenvalues --   -0.86162  -0.85232  -0.84533  -0.84043  -0.83352
 Alpha  occ. eigenvalues --   -0.82279  -0.81995  -0.81084  -0.80935  -0.80245
 Alpha  occ. eigenvalues --   -0.79575  -0.78275  -0.77922  -0.77457  -0.76440
 Alpha  occ. eigenvalues --   -0.75791  -0.75627  -0.75239  -0.74848  -0.73986
 Alpha  occ. eigenvalues --   -0.73286  -0.72670  -0.72150  -0.70570  -0.70303
 Alpha  occ. eigenvalues --   -0.68853  -0.68220  -0.67214  -0.66303  -0.65689
 Alpha  occ. eigenvalues --   -0.65178  -0.64941  -0.64729  -0.64585  -0.63822
 Alpha  occ. eigenvalues --   -0.63354  -0.62808  -0.62656  -0.62339  -0.59946
 Alpha  occ. eigenvalues --   -0.59453  -0.59148  -0.59052  -0.58495  -0.58134
 Alpha  occ. eigenvalues --   -0.57216  -0.56876  -0.56683  -0.56192  -0.55584
 Alpha  occ. eigenvalues --   -0.55333  -0.55054  -0.54793  -0.54585  -0.54471
 Alpha  occ. eigenvalues --   -0.54170  -0.53487  -0.53328  -0.53279  -0.53057
 Alpha  occ. eigenvalues --   -0.52659  -0.52463  -0.52137  -0.51995  -0.51662
 Alpha  occ. eigenvalues --   -0.51578  -0.51245  -0.51075  -0.50755  -0.50706
 Alpha  occ. eigenvalues --   -0.50681  -0.50276  -0.50001  -0.49843  -0.49658
 Alpha  occ. eigenvalues --   -0.49562  -0.49310  -0.48915  -0.48750  -0.48509
 Alpha  occ. eigenvalues --   -0.48392  -0.48215  -0.47894  -0.47684  -0.47560
 Alpha  occ. eigenvalues --   -0.47134  -0.46910  -0.46731  -0.46679  -0.46612
 Alpha  occ. eigenvalues --   -0.46336  -0.46145  -0.46073  -0.45930  -0.45702
 Alpha  occ. eigenvalues --   -0.45595  -0.45481  -0.45320  -0.45218  -0.45065
 Alpha  occ. eigenvalues --   -0.44989  -0.44856  -0.44464  -0.44442  -0.44372
 Alpha  occ. eigenvalues --   -0.44046  -0.43904  -0.43711  -0.43292  -0.42883
 Alpha  occ. eigenvalues --   -0.42820  -0.42528  -0.42448  -0.42310  -0.42111
 Alpha  occ. eigenvalues --   -0.42034  -0.41774  -0.41592  -0.41418  -0.41227
 Alpha  occ. eigenvalues --   -0.41185  -0.40397  -0.40269  -0.40248  -0.39931
 Alpha  occ. eigenvalues --   -0.39866  -0.39822  -0.38738  -0.38368  -0.38120
 Alpha  occ. eigenvalues --   -0.38098  -0.38040  -0.37713  -0.37547  -0.37457
 Alpha  occ. eigenvalues --   -0.37039  -0.36946  -0.36618  -0.36333  -0.36219
 Alpha  occ. eigenvalues --   -0.35868  -0.35502  -0.35309  -0.34516  -0.34279
 Alpha  occ. eigenvalues --   -0.34207  -0.33310  -0.33107  -0.31462  -0.30679
 Alpha  occ. eigenvalues --   -0.30621  -0.29593  -0.29559  -0.29404  -0.24614
 Alpha  occ. eigenvalues --   -0.21316
 Alpha virt. eigenvalues --   -0.09493  -0.02345   0.00289   0.01621   0.02360
 Alpha virt. eigenvalues --    0.04044   0.04766   0.05901   0.06497   0.06590
 Alpha virt. eigenvalues --    0.08100   0.08211   0.08441   0.09011   0.09116

 Mulliken charges:
               1
     1  Mg   0.807676
     2  C    0.044302
     3  C   -0.061602
     4  C   -0.080630
     5  C   -0.079572
     6  N   -0.309980
     7  C   -0.003637
     8  C   -0.048969
     9  C   -0.043785
    10  C    0.039665
    11  C    0.076890
    12  C    0.046525
    13  C   -0.003472
    14  C    0.186667
    15  O   -0.225320
    16  O   -0.308669
    17  N   -0.350146
    18  C    0.150517
    19  C   -0.171328
    20  C   -0.017671
    21  C    0.161129
    22  C    0.149874
    23  C   -0.038528
    24  O   -0.204027
    25  C    0.062804
    26  N   -0.344892
    27  C    0.049985
    28  C   -0.076010
    29  C    0.022859
    30  C    0.037344
    31  C    0.056028
    32  C   -0.009584
    33  C    0.049032
    34  N   -0.370971
    35  C    0.138795
    36  C   -0.137238
    37  C    0.014411
    38  C    0.102384
    39  C    0.128450
    40  C    0.038452
    41  O   -0.154513
    42  C   -0.065511
    43  C    0.189076
    44  O   -0.219499
    45  O   -0.290459
    46  C    0.169982
    47  C    0.265646
    48  C   -0.142753
    49  C   -0.170810
    50  C    0.082257
    51  C    0.104003
    52  C   -0.005769
    53  C    0.061856
    54  C   -0.147714
    55  C    0.055191
    56  C    0.104647
    57  C   -0.020302
    58  C    0.085947
    59  C   -0.190805
    60  C    0.072571
    61  C    0.077508
    62  C    0.026483
    63  C    0.022937
    64  C   -0.163427
    65  C    0.065409
    66  C    0.044674
    67  H   -0.028845
    68  H   -0.032757
    69  H   -0.024080
    70  H    0.008919
    71  H    0.023035
    72  H    0.020870
    73  H    0.016552
    74  H    0.014187
    75  H    0.008231
    76  H    0.037460
    77  H    0.043226
    78  H    0.046619
    79  H    0.026436
    80  H    0.051156
    81  H   -0.002811
    82  H    0.043328
    83  H    0.030762
    84  H    0.032333
    85  H    0.024844
    86  H    0.012025
    87  H    0.002534
    88  H    0.020546
    89  H    0.019026
    90  H   -0.011038
    91  H   -0.004277
    92  H    0.016833
    93  H    0.047315
    94  H    0.012962
    95  H   -0.004422
    96  H    0.035014
    97  H    0.032196
    98  H    0.022340
    99  H    0.027674
   100  H    0.053103
   101  H    0.024765
   102  H    0.011227
   103  H    0.017559
   104  H   -0.002495
   105  H    0.052188
   106  H    0.014350
   107  H    0.026055
   108  H    0.010538
   109  H   -0.004029
   110  H   -0.004617
   111  H   -0.007780
   112  H   -0.024969
   113  H   -0.015762
   114  H   -0.003579
   115  H    0.012553
   116  H   -0.000852
   117  H    0.006687
   118  H    0.005928
   119  H   -0.006192
   120  H   -0.015865
   121  H   -0.014349
   122  H   -0.004252
   123  H   -0.006218
   124  H   -0.012823
   125  H    0.004667
   126  H    0.003278
   127  H    0.002537
   128  H   -0.012821
   129  H   -0.016191
   130  H   -0.014460
   131  H   -0.012142
   132  H   -0.003995
   133  H    0.002169
   134  H   -0.011712
   135  H    0.002989
   136  H    0.018383
   137  H   -0.006406
   138  H    0.011380
   139  H    0.013065
   140  H    0.005509
 Sum of Mulliken charges =  -0.00000

 Dipole moment (field-independent basis, Debye):
    X=             -0.8244    Y=              3.2137    Z=             -0.8643  Tot=              3.4284
 Quadrupole moment (field-independent basis, Debye-Ang):
   XX=           -409.6758   YY=           -396.4145   ZZ=           -399.3784
   XY=            -46.7835   XZ=            -13.3555   YZ=            -25.5908

 Normal termination of Gaussian 16 at Thu May  5 08:46:40 2022.
