 Gaussian 16, Revision A.03,
 Gaussian 16:  ES64L-G16RevA.03 25-Dec-2016

 ---------------------------------
 #p PBE1PBE/Def2SVP td=(nstates=5)
 ---------------------------------

 -----------------------------------------------------
 step_801_chromophore_11 TDDFT with PBE1PBE functional
 -----------------------------------------------------
 Symbolic Z-matrix:
 Charge =  0 Multiplicity = 1

                         Standard orientation:
 ---------------------------------------------------------------------
 Center     Atomic      Atomic             Coordinates (Angstroms)
 Number     Number       Type             X           Y           Z
 ---------------------------------------------------------------------
      1         12           0       -4.589471    1.468502    0.579954
      2          6           0       -5.154043   -2.127416    0.317489
      3          6           0       -2.555452    0.830827    3.324489
      4          6           0       -3.206385    4.708365    0.365752
      5          6           0       -6.472901    1.948708   -2.272985
      6          7           0       -3.752572   -0.420734    1.565172
      7          6           0       -4.314358   -1.696247    1.404921
      8          6           0       -3.879442   -2.591202    2.552200
      9          6           0       -3.171120   -1.638134    3.582444
     10          6           0       -3.147981   -0.287436    2.842375
     11          6           0       -3.742527   -1.686033    5.009775
     12          6           0       -2.923276   -3.816445    2.297968
     13          6           0       -1.912872   -3.664317    1.110995
     14          6           0       -0.541501   -4.449338    1.259973
     15          8           0        0.206428   -4.461755    2.220592
     16          8           0       -0.198133   -4.877774    0.003595
     17          7           0       -3.032561    2.623163    1.646031
     18          6           0       -2.388923    2.164614    2.784005
     19          6           0       -1.451228    3.192526    3.210408
     20          6           0       -1.481390    4.247279    2.248167
     21          6           0       -2.627755    3.935842    1.401437
     22          6           0       -0.597124    3.089226    4.421294
     23          6           0       -0.565234    5.439315    2.168432
     24          8           0        0.286752    5.620856    3.024468
     25          6           0       -0.617006    6.448933    1.005072
     26          7           0       -4.812835    3.040179   -0.727737
     27          6           0       -4.249103    4.300658   -0.585239
     28          6           0       -4.647050    5.215670   -1.743875
     29          6           0       -5.803114    4.375161   -2.425978
     30          6           0       -5.728921    3.034509   -1.786042
     31          6           0       -5.079048    6.676502   -1.385898
     32          6           0       -5.586115    4.182575   -3.918081
     33          6           0       -4.610432    3.184784   -4.546994
     34          7           0       -5.728928    0.231478   -0.660204
     35          6           0       -6.435587    0.623012   -1.783031
     36          6           0       -7.175260   -0.535984   -2.234833
     37          6           0       -6.760066   -1.567133   -1.393063
     38          6           0       -5.749882   -1.105202   -0.519217
     39          6           0       -8.149485   -0.532369   -3.351873
     40          6           0       -7.071643   -2.924023   -1.102613
     41          8           0       -7.895269   -3.687017   -1.558198
     42          6           0       -5.869245   -3.353218   -0.072969
     43          6           0       -5.028124   -4.276064   -0.839977
     44          8           0       -4.378446   -3.972176   -1.820817
     45          8           0       -5.060057   -5.493220   -0.297895
     46          6           0       -4.034710   -6.403278   -0.871010
     47          6           0        1.228661   -5.054342   -0.193911
     48          6           0        1.710158   -4.025255   -1.197646
     49          6           0        2.627051   -3.064547   -0.904632
     50          6           0        3.178706   -2.789659    0.473469
     51          6           0        3.109155   -2.073693   -2.047779
     52          6           0        4.599957   -1.889112   -2.279098
     53          6           0        5.160549   -0.450763   -2.168164
     54          6           0        5.895595   -0.182218   -0.841257
     55          6           0        5.296934    0.938428    0.001899
     56          6           0        7.353207    0.088087   -1.119914
     57          6           0        8.143228   -0.012177    0.189922
     58          6           0        9.367953    0.949105    0.215336
     59          6           0       10.437785    0.261719    0.911680
     60          6           0       10.174170    0.220619    2.399430
     61          6           0       11.769922    1.018088    0.662820
     62          6           0       12.440268    0.683889   -0.694705
     63          6           0       13.783343    0.041599   -0.540206
     64          6           0       14.628803    0.119004   -1.801278
     65          6           0       15.906244   -0.768117   -1.494901
     66          6           0       14.972059    1.561787   -2.264135
     67          1           0       -2.006893    0.617197    4.243611
     68          1           0       -3.053248    5.788520    0.303173
     69          1           0       -7.161785    2.180791   -3.087474
     70          1           0       -4.757530   -3.016345    3.039864
     71          1           0       -2.114168   -1.897951    3.633631
     72          1           0       -4.539793   -0.988244    5.267010
     73          1           0       -2.953576   -1.545278    5.748060
     74          1           0       -4.116882   -2.702600    5.127137
     75          1           0       -3.682279   -4.441190    1.827411
     76          1           0       -2.428033   -4.183639    3.197098
     77          1           0       -1.658769   -2.604864    1.156662
     78          1           0       -2.343536   -3.870203    0.131305
     79          1           0       -0.712622    4.049596    4.924269
     80          1           0        0.399554    2.745991    4.146841
     81          1           0       -1.064214    2.512990    5.220979
     82          1           0       -0.525209    5.902877    0.065538
     83          1           0        0.111866    7.222520    1.245335
     84          1           0       -1.614810    6.884423    1.063606
     85          1           0       -3.791258    5.399514   -2.393118
     86          1           0       -6.754885    4.851428   -2.188293
     87          1           0       -6.165360    6.667796   -1.304597
     88          1           0       -4.822318    7.405395   -2.154233
     89          1           0       -4.653651    6.986042   -0.430748
     90          1           0       -5.423515    5.213668   -4.232671
     91          1           0       -6.605516    4.067089   -4.285741
     92          1           0       -5.132079    2.782898   -5.414490
     93          1           0       -4.203265    2.349317   -3.976315
     94          1           0       -3.740307    3.735592   -4.903461
     95          1           0       -8.253042    0.459131   -3.793403
     96          1           0       -9.128904   -0.924729   -3.080681
     97          1           0       -7.819802   -1.182555   -4.162166
     98          1           0       -6.337452   -3.919869    0.731994
     99          1           0       -3.083023   -6.470927   -0.343849
    100          1           0       -3.704837   -6.326724   -1.906845
    101          1           0       -4.361403   -7.439790   -0.791073
    102          1           0        1.460434   -6.041908   -0.593685
    103          1           0        1.987830   -5.006530    0.587321
    104          1           0        1.258537   -4.122154   -2.184004
    105          1           0        2.380263   -2.919344    1.203222
    106          1           0        3.780312   -1.884003    0.553576
    107          1           0        3.918493   -3.579867    0.600600
    108          1           0        2.659669   -1.136651   -1.717738
    109          1           0        2.608601   -2.244144   -3.000530
    110          1           0        4.940632   -2.182375   -3.271889
    111          1           0        5.227171   -2.501921   -1.631389
    112          1           0        4.298377    0.169355   -2.413013
    113          1           0        5.736637   -0.206784   -3.060707
    114          1           0        5.820112   -1.037444   -0.169805
    115          1           0        4.311400    1.295892   -0.296016
    116          1           0        5.960786    1.802445    0.027770
    117          1           0        5.291563    0.562982    1.024842
    118          1           0        7.540621    1.096128   -1.489883
    119          1           0        7.706994   -0.732415   -1.743277
    120          1           0        8.413754   -1.061715    0.300266
    121          1           0        7.590935    0.128396    1.118889
    122          1           0        9.103909    1.840849    0.783638
    123          1           0        9.745420    1.192449   -0.777804
    124          1           0       10.621772   -0.713601    0.461543
    125          1           0       10.952144    0.792035    2.907204
    126          1           0       10.172151   -0.800269    2.781220
    127          1           0        9.208849    0.617930    2.711904
    128          1           0       12.482755    0.733751    1.437272
    129          1           0       11.491208    2.065725    0.772081
    130          1           0       12.555183    1.555639   -1.338934
    131          1           0       11.813314   -0.044037   -1.207947
    132          1           0       13.563937   -1.017959   -0.409898
    133          1           0       14.296962    0.516641    0.296168
    134          1           0       14.002536   -0.290230   -2.594030
    135          1           0       16.801667   -0.148376   -1.434828
    136          1           0       15.938332   -1.668559   -2.107901
    137          1           0       15.867361   -1.128281   -0.466268
    138          1           0       15.857084    1.551595   -2.900356
    139          1           0       14.972788    2.244300   -1.414535
    140          1           0       14.201098    1.920019   -2.946383
 ---------------------------------------------------------------------

 SCF Done:  E(RPBE1PBE) =  -3005.33733487     A.U. after   15 cycles

 Excitation energies and oscillator strengths:

 Excited State   1:      Singlet-A      1.7483 eV  709.15 nm  f=0.3559  <S**2>=0.000
     245 -> 248        0.15976
     246 -> 247        0.69840
     246 <- 247       -0.12225
 This state for optimization and/or second-order correction.
 Total Energy, E(TD-HF/TD-DFT) =  -3005.27308441
 Copying the excited state density for this state as the 1-particle RhoCI density.

 Excited State   2:      Singlet-A      2.1765 eV  569.65 nm  f=0.0902  <S**2>=0.000
     245 -> 247        0.64573
     246 -> 248       -0.26873

 Excited State   3:      Singlet-A      2.7436 eV  451.91 nm  f=0.0021  <S**2>=0.000
     243 -> 247        0.67761
     244 -> 247        0.14453

 Excited State   4:      Singlet-A      2.7820 eV  445.66 nm  f=0.0083  <S**2>=0.000
     240 -> 247       -0.11786
     242 -> 247        0.67614

 Excited State   5:      Singlet-A      2.8802 eV  430.46 nm  f=0.0018  <S**2>=0.000
     241 -> 247        0.68032

 The electronic state is 1-A.
 Alpha  occ. eigenvalues --  -46.92788 -19.26939 -19.25972 -19.20576 -19.19613
 Alpha  occ. eigenvalues --  -19.19233 -19.18600 -14.42535 -14.42087 -14.39439
 Alpha  occ. eigenvalues --  -14.39118 -10.36828 -10.35642 -10.32091 -10.31946
 Alpha  occ. eigenvalues --  -10.30239 -10.30079 -10.28970 -10.28803 -10.28766
 Alpha  occ. eigenvalues --  -10.28483 -10.28449 -10.28191 -10.27778 -10.27070
 Alpha  occ. eigenvalues --  -10.26833 -10.26267 -10.25939 -10.25845 -10.25792
 Alpha  occ. eigenvalues --  -10.25670 -10.25611 -10.25556 -10.25544 -10.25343
 Alpha  occ. eigenvalues --  -10.25193 -10.24952 -10.24774 -10.24713 -10.24660
 Alpha  occ. eigenvalues --  -10.24435 -10.24432 -10.23910 -10.23505 -10.23490
 Alpha  occ. eigenvalues --  -10.23353 -10.23159 -10.23151 -10.23006 -10.22763
 Alpha  occ. eigenvalues --  -10.22659 -10.22419 -10.22339 -10.22279 -10.21842
 Alpha  occ. eigenvalues --  -10.21809 -10.21750 -10.21681 -10.21642 -10.21621
 Alpha  occ. eigenvalues --  -10.21485 -10.21458 -10.21361 -10.21349 -10.21241
 Alpha  occ. eigenvalues --  -10.21181  -3.14758  -1.87591  -1.87120  -1.86980
 Alpha  occ. eigenvalues --   -1.12527  -1.11448  -1.05214  -1.04516  -1.03108
 Alpha  occ. eigenvalues --   -1.02685  -0.98708  -0.97505  -0.96707  -0.95819
 Alpha  occ. eigenvalues --   -0.87157  -0.85343  -0.84212  -0.84049  -0.83309
 Alpha  occ. eigenvalues --   -0.82945  -0.82704  -0.82253  -0.81933  -0.81039
 Alpha  occ. eigenvalues --   -0.80407  -0.79430  -0.78720  -0.78331  -0.77564
 Alpha  occ. eigenvalues --   -0.76438  -0.76210  -0.75285  -0.75206  -0.74528
 Alpha  occ. eigenvalues --   -0.73732  -0.72591  -0.72184  -0.71697  -0.70747
 Alpha  occ. eigenvalues --   -0.69929  -0.69704  -0.69592  -0.68974  -0.68152
 Alpha  occ. eigenvalues --   -0.67694  -0.67018  -0.66549  -0.64930  -0.64608
 Alpha  occ. eigenvalues --   -0.63322  -0.62491  -0.61660  -0.60569  -0.60211
 Alpha  occ. eigenvalues --   -0.59544  -0.59357  -0.59226  -0.58973  -0.57935
 Alpha  occ. eigenvalues --   -0.57832  -0.57243  -0.56930  -0.56513  -0.54489
 Alpha  occ. eigenvalues --   -0.53993  -0.53677  -0.53612  -0.52922  -0.52654
 Alpha  occ. eigenvalues --   -0.51790  -0.51243  -0.51203  -0.50585  -0.50198
 Alpha  occ. eigenvalues --   -0.49930  -0.49581  -0.49151  -0.49090  -0.48921
 Alpha  occ. eigenvalues --   -0.48647  -0.48091  -0.47964  -0.47715  -0.47530
 Alpha  occ. eigenvalues --   -0.47199  -0.46921  -0.46633  -0.46533  -0.46241
 Alpha  occ. eigenvalues --   -0.46149  -0.45793  -0.45603  -0.45316  -0.45201
 Alpha  occ. eigenvalues --   -0.45162  -0.44783  -0.44631  -0.44448  -0.44231
 Alpha  occ. eigenvalues --   -0.44142  -0.43854  -0.43553  -0.43364  -0.43149
 Alpha  occ. eigenvalues --   -0.42995  -0.42836  -0.42458  -0.42389  -0.42228
 Alpha  occ. eigenvalues --   -0.41791  -0.41635  -0.41411  -0.41283  -0.41214
 Alpha  occ. eigenvalues --   -0.41018  -0.40849  -0.40701  -0.40589  -0.40420
 Alpha  occ. eigenvalues --   -0.40268  -0.40148  -0.40067  -0.39925  -0.39707
 Alpha  occ. eigenvalues --   -0.39693  -0.39530  -0.39228  -0.39113  -0.39103
 Alpha  occ. eigenvalues --   -0.38790  -0.38608  -0.38501  -0.38049  -0.37674
 Alpha  occ. eigenvalues --   -0.37573  -0.37406  -0.37276  -0.37220  -0.36915
 Alpha  occ. eigenvalues --   -0.36752  -0.36624  -0.36345  -0.36319  -0.36050
 Alpha  occ. eigenvalues --   -0.35908  -0.35215  -0.35135  -0.34990  -0.34757
 Alpha  occ. eigenvalues --   -0.34670  -0.34551  -0.33518  -0.33241  -0.33072
 Alpha  occ. eigenvalues --   -0.32902  -0.32784  -0.32489  -0.32459  -0.32197
 Alpha  occ. eigenvalues --   -0.32043  -0.31934  -0.31663  -0.31324  -0.31052
 Alpha  occ. eigenvalues --   -0.30765  -0.30444  -0.30197  -0.29507  -0.29319
 Alpha  occ. eigenvalues --   -0.29079  -0.28845  -0.28089  -0.26971  -0.25933
 Alpha  occ. eigenvalues --   -0.25457  -0.25017  -0.24914  -0.24889  -0.21506
 Alpha  occ. eigenvalues --   -0.18982
 Alpha virt. eigenvalues --   -0.11876  -0.05816  -0.03930  -0.02123  -0.01140
 Alpha virt. eigenvalues --   -0.00377   0.00488   0.01249   0.01956   0.02549
 Alpha virt. eigenvalues --    0.04077   0.04398   0.04823   0.05654   0.05859

 Mulliken charges:
               1
     1  Mg   0.948827
     2  C    0.050920
     3  C   -0.058593
     4  C   -0.080106
     5  C   -0.072322
     6  N   -0.400399
     7  C    0.055050
     8  C   -0.106786
     9  C   -0.121634
    10  C    0.075076
    11  C    0.017474
    12  C   -0.016314
    13  C   -0.083874
    14  C    0.258617
    15  O   -0.259694
    16  O   -0.338464
    17  N   -0.455942
    18  C    0.177880
    19  C   -0.204629
    20  C   -0.061993
    21  C    0.187316
    22  C    0.091890
    23  C    0.014910
    24  O   -0.238795
    25  C   -0.015899
    26  N   -0.453302
    27  C    0.094843
    28  C   -0.150425
    29  C   -0.059381
    30  C    0.078502
    31  C   -0.000349
    32  C   -0.074017
    33  C   -0.021933
    34  N   -0.496043
    35  C    0.164185
    36  C   -0.158486
    37  C   -0.031260
    38  C    0.152756
    39  C    0.079684
    40  C    0.122042
    41  O   -0.200025
    42  C   -0.185254
    43  C    0.290186
    44  O   -0.254416
    45  O   -0.324664
    46  C    0.111823
    47  C    0.214593
    48  C   -0.149952
    49  C   -0.208567
    50  C    0.007429
    51  C    0.042716
    52  C   -0.071328
    53  C    0.013720
    54  C   -0.241899
    55  C    0.000104
    56  C    0.042034
    57  C   -0.069754
    58  C    0.025900
    59  C   -0.283041
    60  C    0.016170
    61  C    0.022132
    62  C   -0.034213
    63  C   -0.039937
    64  C   -0.251704
    65  C    0.003546
    66  C   -0.018592
    67  H    0.003604
    68  H   -0.000834
    69  H    0.007367
    70  H    0.046484
    71  H    0.060357
    72  H    0.048295
    73  H    0.043539
    74  H    0.042241
    75  H    0.049312
    76  H    0.066982
    77  H    0.078748
    78  H    0.081548
    79  H    0.054067
    80  H    0.077897
    81  H    0.023907
    82  H    0.070669
    83  H    0.058244
    84  H    0.059278
    85  H    0.061734
    86  H    0.048530
    87  H    0.030150
    88  H    0.047402
    89  H    0.046307
    90  H    0.024544
    91  H    0.028588
    92  H    0.044642
    93  H    0.074450
    94  H    0.040741
    95  H    0.023378
    96  H    0.062052
    97  H    0.059976
    98  H    0.059213
    99  H    0.050481
   100  H    0.074304
   101  H    0.047260
   102  H    0.039769
   103  H    0.045013
   104  H    0.027276
   105  H    0.081100
   106  H    0.048076
   107  H    0.054541
   108  H    0.044538
   109  H    0.026980
   110  H    0.028738
   111  H    0.025914
   112  H    0.007415
   113  H    0.015987
   114  H    0.033731
   115  H    0.040028
   116  H    0.027701
   117  H    0.032718
   118  H    0.038658
   119  H    0.028731
   120  H    0.016682
   121  H    0.017252
   122  H    0.029392
   123  H    0.028137
   124  H    0.025741
   125  H    0.031981
   126  H    0.031420
   127  H    0.029342
   128  H    0.020280
   129  H    0.017574
   130  H    0.019561
   131  H    0.020414
   132  H    0.031326
   133  H    0.034596
   134  H    0.026560
   135  H    0.030385
   136  H    0.045712
   137  H    0.021277
   138  H    0.039832
   139  H    0.040907
   140  H    0.032918
 Sum of Mulliken charges =  -0.00000

 Dipole moment (field-independent basis, Debye):
    X=             -0.8977    Y=              3.1447    Z=             -0.9857  Tot=              3.4156
 Quadrupole moment (field-independent basis, Debye-Ang):
   XX=           -405.4802   YY=           -393.5361   ZZ=           -395.2441
   XY=            -47.1194   XZ=            -12.1946   YZ=            -26.7356

 Normal termination of Gaussian 16 at Thu May  5 09:03:42 2022.
