 Gaussian 16, Revision A.03,
 Gaussian 16:  ES64L-G16RevA.03 25-Dec-2016

 --------------------------------
 #p wB97XD/Def2SVP td=(nstates=5)
 --------------------------------

 ----------------------------------------------------
 step_801_chromophore_11 TDDFT with wB97XD functional
 ----------------------------------------------------
 Symbolic Z-matrix:
 Charge =  0 Multiplicity = 1

                         Standard orientation:
 ---------------------------------------------------------------------
 Center     Atomic      Atomic             Coordinates (Angstroms)
 Number     Number       Type             X           Y           Z
 ---------------------------------------------------------------------
      1         12           0       -4.589471    1.468502    0.579954
      2          6           0       -5.154043   -2.127416    0.317489
      3          6           0       -2.555452    0.830827    3.324489
      4          6           0       -3.206385    4.708365    0.365752
      5          6           0       -6.472901    1.948708   -2.272985
      6          7           0       -3.752572   -0.420734    1.565172
      7          6           0       -4.314358   -1.696247    1.404921
      8          6           0       -3.879442   -2.591202    2.552200
      9          6           0       -3.171120   -1.638134    3.582444
     10          6           0       -3.147981   -0.287436    2.842375
     11          6           0       -3.742527   -1.686033    5.009775
     12          6           0       -2.923276   -3.816445    2.297968
     13          6           0       -1.912872   -3.664317    1.110995
     14          6           0       -0.541501   -4.449338    1.259973
     15          8           0        0.206428   -4.461755    2.220592
     16          8           0       -0.198133   -4.877774    0.003595
     17          7           0       -3.032561    2.623163    1.646031
     18          6           0       -2.388923    2.164614    2.784005
     19          6           0       -1.451228    3.192526    3.210408
     20          6           0       -1.481390    4.247279    2.248167
     21          6           0       -2.627755    3.935842    1.401437
     22          6           0       -0.597124    3.089226    4.421294
     23          6           0       -0.565234    5.439315    2.168432
     24          8           0        0.286752    5.620856    3.024468
     25          6           0       -0.617006    6.448933    1.005072
     26          7           0       -4.812835    3.040179   -0.727737
     27          6           0       -4.249103    4.300658   -0.585239
     28          6           0       -4.647050    5.215670   -1.743875
     29          6           0       -5.803114    4.375161   -2.425978
     30          6           0       -5.728921    3.034509   -1.786042
     31          6           0       -5.079048    6.676502   -1.385898
     32          6           0       -5.586115    4.182575   -3.918081
     33          6           0       -4.610432    3.184784   -4.546994
     34          7           0       -5.728928    0.231478   -0.660204
     35          6           0       -6.435587    0.623012   -1.783031
     36          6           0       -7.175260   -0.535984   -2.234833
     37          6           0       -6.760066   -1.567133   -1.393063
     38          6           0       -5.749882   -1.105202   -0.519217
     39          6           0       -8.149485   -0.532369   -3.351873
     40          6           0       -7.071643   -2.924023   -1.102613
     41          8           0       -7.895269   -3.687017   -1.558198
     42          6           0       -5.869245   -3.353218   -0.072969
     43          6           0       -5.028124   -4.276064   -0.839977
     44          8           0       -4.378446   -3.972176   -1.820817
     45          8           0       -5.060057   -5.493220   -0.297895
     46          6           0       -4.034710   -6.403278   -0.871010
     47          6           0        1.228661   -5.054342   -0.193911
     48          6           0        1.710158   -4.025255   -1.197646
     49          6           0        2.627051   -3.064547   -0.904632
     50          6           0        3.178706   -2.789659    0.473469
     51          6           0        3.109155   -2.073693   -2.047779
     52          6           0        4.599957   -1.889112   -2.279098
     53          6           0        5.160549   -0.450763   -2.168164
     54          6           0        5.895595   -0.182218   -0.841257
     55          6           0        5.296934    0.938428    0.001899
     56          6           0        7.353207    0.088087   -1.119914
     57          6           0        8.143228   -0.012177    0.189922
     58          6           0        9.367953    0.949105    0.215336
     59          6           0       10.437785    0.261719    0.911680
     60          6           0       10.174170    0.220619    2.399430
     61          6           0       11.769922    1.018088    0.662820
     62          6           0       12.440268    0.683889   -0.694705
     63          6           0       13.783343    0.041599   -0.540206
     64          6           0       14.628803    0.119004   -1.801278
     65          6           0       15.906244   -0.768117   -1.494901
     66          6           0       14.972059    1.561787   -2.264135
     67          1           0       -2.006893    0.617197    4.243611
     68          1           0       -3.053248    5.788520    0.303173
     69          1           0       -7.161785    2.180791   -3.087474
     70          1           0       -4.757530   -3.016345    3.039864
     71          1           0       -2.114168   -1.897951    3.633631
     72          1           0       -4.539793   -0.988244    5.267010
     73          1           0       -2.953576   -1.545278    5.748060
     74          1           0       -4.116882   -2.702600    5.127137
     75          1           0       -3.682279   -4.441190    1.827411
     76          1           0       -2.428033   -4.183639    3.197098
     77          1           0       -1.658769   -2.604864    1.156662
     78          1           0       -2.343536   -3.870203    0.131305
     79          1           0       -0.712622    4.049596    4.924269
     80          1           0        0.399554    2.745991    4.146841
     81          1           0       -1.064214    2.512990    5.220979
     82          1           0       -0.525209    5.902877    0.065538
     83          1           0        0.111866    7.222520    1.245335
     84          1           0       -1.614810    6.884423    1.063606
     85          1           0       -3.791258    5.399514   -2.393118
     86          1           0       -6.754885    4.851428   -2.188293
     87          1           0       -6.165360    6.667796   -1.304597
     88          1           0       -4.822318    7.405395   -2.154233
     89          1           0       -4.653651    6.986042   -0.430748
     90          1           0       -5.423515    5.213668   -4.232671
     91          1           0       -6.605516    4.067089   -4.285741
     92          1           0       -5.132079    2.782898   -5.414490
     93          1           0       -4.203265    2.349317   -3.976315
     94          1           0       -3.740307    3.735592   -4.903461
     95          1           0       -8.253042    0.459131   -3.793403
     96          1           0       -9.128904   -0.924729   -3.080681
     97          1           0       -7.819802   -1.182555   -4.162166
     98          1           0       -6.337452   -3.919869    0.731994
     99          1           0       -3.083023   -6.470927   -0.343849
    100          1           0       -3.704837   -6.326724   -1.906845
    101          1           0       -4.361403   -7.439790   -0.791073
    102          1           0        1.460434   -6.041908   -0.593685
    103          1           0        1.987830   -5.006530    0.587321
    104          1           0        1.258537   -4.122154   -2.184004
    105          1           0        2.380263   -2.919344    1.203222
    106          1           0        3.780312   -1.884003    0.553576
    107          1           0        3.918493   -3.579867    0.600600
    108          1           0        2.659669   -1.136651   -1.717738
    109          1           0        2.608601   -2.244144   -3.000530
    110          1           0        4.940632   -2.182375   -3.271889
    111          1           0        5.227171   -2.501921   -1.631389
    112          1           0        4.298377    0.169355   -2.413013
    113          1           0        5.736637   -0.206784   -3.060707
    114          1           0        5.820112   -1.037444   -0.169805
    115          1           0        4.311400    1.295892   -0.296016
    116          1           0        5.960786    1.802445    0.027770
    117          1           0        5.291563    0.562982    1.024842
    118          1           0        7.540621    1.096128   -1.489883
    119          1           0        7.706994   -0.732415   -1.743277
    120          1           0        8.413754   -1.061715    0.300266
    121          1           0        7.590935    0.128396    1.118889
    122          1           0        9.103909    1.840849    0.783638
    123          1           0        9.745420    1.192449   -0.777804
    124          1           0       10.621772   -0.713601    0.461543
    125          1           0       10.952144    0.792035    2.907204
    126          1           0       10.172151   -0.800269    2.781220
    127          1           0        9.208849    0.617930    2.711904
    128          1           0       12.482755    0.733751    1.437272
    129          1           0       11.491208    2.065725    0.772081
    130          1           0       12.555183    1.555639   -1.338934
    131          1           0       11.813314   -0.044037   -1.207947
    132          1           0       13.563937   -1.017959   -0.409898
    133          1           0       14.296962    0.516641    0.296168
    134          1           0       14.002536   -0.290230   -2.594030
    135          1           0       16.801667   -0.148376   -1.434828
    136          1           0       15.938332   -1.668559   -2.107901
    137          1           0       15.867361   -1.128281   -0.466268
    138          1           0       15.857084    1.551595   -2.900356
    139          1           0       14.972788    2.244300   -1.414535
    140          1           0       14.201098    1.920019   -2.946383
 ---------------------------------------------------------------------

 SCF Done:  E(RwB97XD) =  -3007.84740478     A.U. after   20 cycles

 Excitation energies and oscillator strengths:

 Excited State   1:      Singlet-A      1.5211 eV  815.11 nm  f=0.3688  <S**2>=0.000
     245 -> 248       -0.17129
     246 -> 247        0.68768
     245 <- 248       -0.11909
 This state for optimization and/or second-order correction.
 Total Energy, E(TD-HF/TD-DFT) =  -3007.79150669
 Copying the excited state density for this state as the 1-particle RhoCI density.

 Excited State   2:      Singlet-A      2.1045 eV  589.13 nm  f=0.0908  <S**2>=0.000
     245 -> 247        0.63279
     246 -> 248        0.29674

 Excited State   3:      Singlet-A      3.1128 eV  398.31 nm  f=0.0026  <S**2>=0.000
     242 -> 247       -0.40895
     244 -> 247        0.54574

 Excited State   4:      Singlet-A      3.2204 eV  384.99 nm  f=0.0055  <S**2>=0.000
     242 -> 247        0.51533
     244 -> 247        0.39714
     246 -> 248       -0.17228

 Excited State   5:      Singlet-A      3.4394 eV  360.48 nm  f=0.3727  <S**2>=0.000
     240 -> 247       -0.36273
     240 -> 249        0.16155
     241 -> 247        0.10797
     242 -> 247        0.10873
     245 -> 247       -0.22900
     246 -> 248        0.47572

 The electronic state is 1-A.
 Alpha  occ. eigenvalues --  -46.95763 -19.31506 -19.30504 -19.25261 -19.24329
 Alpha  occ. eigenvalues --  -19.23916 -19.23501 -14.47717 -14.47061 -14.44491
 Alpha  occ. eigenvalues --  -14.43982 -10.43626 -10.42441 -10.38891 -10.38845
 Alpha  occ. eigenvalues --  -10.36520 -10.36438 -10.35280 -10.35204 -10.35132
 Alpha  occ. eigenvalues --  -10.34956 -10.34936 -10.34700 -10.33933 -10.33324
 Alpha  occ. eigenvalues --  -10.33036 -10.32523 -10.32505 -10.32400 -10.32019
 Alpha  occ. eigenvalues --  -10.31949 -10.31895 -10.31865 -10.31865 -10.31795
 Alpha  occ. eigenvalues --  -10.31507 -10.31394 -10.31164 -10.31126 -10.31101
 Alpha  occ. eigenvalues --  -10.30834 -10.30707 -10.30320 -10.30148 -10.29890
 Alpha  occ. eigenvalues --  -10.29743 -10.29532 -10.29450 -10.29429 -10.29323
 Alpha  occ. eigenvalues --  -10.28956 -10.28768 -10.28699 -10.28472 -10.28238
 Alpha  occ. eigenvalues --  -10.28227 -10.28103 -10.28054 -10.27998 -10.27967
 Alpha  occ. eigenvalues --  -10.27861 -10.27816 -10.27751 -10.27734 -10.27686
 Alpha  occ. eigenvalues --  -10.27617  -3.21614  -1.95193  -1.94722  -1.94576
 Alpha  occ. eigenvalues --   -1.19903  -1.18818  -1.12610  -1.12081  -1.10449
 Alpha  occ. eigenvalues --   -1.10037  -1.06006  -1.04944  -1.04188  -1.03249
 Alpha  occ. eigenvalues --   -0.94722  -0.92998  -0.91783  -0.91713  -0.90943
 Alpha  occ. eigenvalues --   -0.90595  -0.90354  -0.89903  -0.89542  -0.88626
 Alpha  occ. eigenvalues --   -0.88144  -0.87109  -0.86384  -0.85936  -0.85236
 Alpha  occ. eigenvalues --   -0.84095  -0.83890  -0.83012  -0.82846  -0.82159
 Alpha  occ. eigenvalues --   -0.81394  -0.80196  -0.79834  -0.79382  -0.78354
 Alpha  occ. eigenvalues --   -0.77605  -0.77407  -0.77193  -0.76658  -0.75819
 Alpha  occ. eigenvalues --   -0.75242  -0.74603  -0.74116  -0.72482  -0.72222
 Alpha  occ. eigenvalues --   -0.70841  -0.70103  -0.69232  -0.68174  -0.67697
 Alpha  occ. eigenvalues --   -0.67091  -0.66867  -0.66692  -0.66528  -0.65617
 Alpha  occ. eigenvalues --   -0.65301  -0.64627  -0.64610  -0.64163  -0.61930
 Alpha  occ. eigenvalues --   -0.61391  -0.61145  -0.61026  -0.60425  -0.60092
 Alpha  occ. eigenvalues --   -0.59202  -0.58769  -0.58619  -0.58100  -0.57550
 Alpha  occ. eigenvalues --   -0.57295  -0.56991  -0.56638  -0.56486  -0.56393
 Alpha  occ. eigenvalues --   -0.56084  -0.55428  -0.55263  -0.55145  -0.54938
 Alpha  occ. eigenvalues --   -0.54595  -0.54414  -0.54029  -0.53939  -0.53586
 Alpha  occ. eigenvalues --   -0.53503  -0.53153  -0.52959  -0.52683  -0.52608
 Alpha  occ. eigenvalues --   -0.52566  -0.52146  -0.51927  -0.51777  -0.51550
 Alpha  occ. eigenvalues --   -0.51457  -0.51185  -0.50838  -0.50677  -0.50413
 Alpha  occ. eigenvalues --   -0.50287  -0.50132  -0.49754  -0.49613  -0.49466
 Alpha  occ. eigenvalues --   -0.49076  -0.48831  -0.48658  -0.48550  -0.48475
 Alpha  occ. eigenvalues --   -0.48233  -0.48067  -0.47941  -0.47804  -0.47621
 Alpha  occ. eigenvalues --   -0.47483  -0.47377  -0.47252  -0.47133  -0.46928
 Alpha  occ. eigenvalues --   -0.46872  -0.46728  -0.46377  -0.46310  -0.46261
 Alpha  occ. eigenvalues --   -0.45941  -0.45836  -0.45638  -0.45215  -0.44811
 Alpha  occ. eigenvalues --   -0.44736  -0.44429  -0.44351  -0.44259  -0.44076
 Alpha  occ. eigenvalues --   -0.43916  -0.43753  -0.43433  -0.43410  -0.43114
 Alpha  occ. eigenvalues --   -0.43029  -0.42262  -0.42173  -0.42091  -0.41771
 Alpha  occ. eigenvalues --   -0.41753  -0.41671  -0.40588  -0.40267  -0.40002
 Alpha  occ. eigenvalues --   -0.39953  -0.39887  -0.39547  -0.39530  -0.39278
 Alpha  occ. eigenvalues --   -0.38963  -0.38914  -0.38673  -0.38277  -0.38073
 Alpha  occ. eigenvalues --   -0.37719  -0.37380  -0.37149  -0.36436  -0.36267
 Alpha  occ. eigenvalues --   -0.36122  -0.35567  -0.34930  -0.33616  -0.32691
 Alpha  occ. eigenvalues --   -0.32632  -0.31729  -0.31620  -0.31539  -0.26524
 Alpha  occ. eigenvalues --   -0.23092
 Alpha virt. eigenvalues --   -0.07852  -0.00426   0.02371   0.04387   0.04817
 Alpha virt. eigenvalues --    0.06339   0.07176   0.08047   0.08764   0.09177
 Alpha virt. eigenvalues --    0.10856   0.11089   0.11359   0.12361   0.12570

 Mulliken charges:
               1
     1  Mg   0.940649
     2  C    0.034444
     3  C   -0.074850
     4  C   -0.085932
     5  C   -0.086350
     6  N   -0.374467
     7  C    0.033399
     8  C   -0.086558
     9  C   -0.095461
    10  C    0.063376
    11  C    0.027781
    12  C    0.005567
    13  C   -0.058110
    14  C    0.243822
    15  O   -0.255807
    16  O   -0.337997
    17  N   -0.426002
    18  C    0.169675
    19  C   -0.191553
    20  C   -0.057650
    21  C    0.182961
    22  C    0.101334
    23  C    0.008428
    24  O   -0.233877
    25  C    0.000066
    26  N   -0.419444
    27  C    0.078021
    28  C   -0.128034
    29  C   -0.034960
    30  C    0.065161
    31  C    0.010612
    32  C   -0.054102
    33  C   -0.008059
    34  N   -0.458585
    35  C    0.152857
    36  C   -0.153683
    37  C   -0.028791
    38  C    0.136298
    39  C    0.089094
    40  C    0.108770
    41  O   -0.191677
    42  C   -0.139732
    43  C    0.259154
    44  O   -0.248273
    45  O   -0.321808
    46  C    0.128106
    47  C    0.235605
    48  C   -0.163429
    49  C   -0.195830
    50  C    0.027471
    51  C    0.059735
    52  C   -0.054050
    53  C    0.024458
    54  C   -0.203194
    55  C    0.009294
    56  C    0.060734
    57  C   -0.057122
    58  C    0.043503
    59  C   -0.244841
    60  C    0.023242
    61  C    0.040370
    62  C   -0.018930
    63  C   -0.019514
    64  C   -0.223810
    65  C    0.015369
    66  C   -0.008719
    67  H   -0.003463
    68  H   -0.016209
    69  H   -0.001160
    70  H    0.035983
    71  H    0.049313
    72  H    0.043410
    73  H    0.038599
    74  H    0.035295
    75  H    0.030499
    76  H    0.061713
    77  H    0.067858
    78  H    0.070299
    79  H    0.049578
    80  H    0.075680
    81  H    0.019351
    82  H    0.065562
    83  H    0.057641
    84  H    0.053480
    85  H    0.051489
    86  H    0.038786
    87  H    0.023609
    88  H    0.042910
    89  H    0.040280
    90  H    0.014648
    91  H    0.019860
    92  H    0.039587
    93  H    0.067526
    94  H    0.035276
    95  H    0.017366
    96  H    0.058042
    97  H    0.055183
    98  H    0.054034
    99  H    0.045707
   100  H    0.070841
   101  H    0.043744
   102  H    0.035416
   103  H    0.037233
   104  H    0.025398
   105  H    0.074578
   106  H    0.036993
   107  H    0.047769
   108  H    0.033465
   109  H    0.022177
   110  H    0.022493
   111  H    0.014496
   112  H   -0.002168
   113  H    0.009045
   114  H    0.015199
   115  H    0.034868
   116  H    0.019977
   117  H    0.026945
   118  H    0.028504
   119  H    0.019728
   120  H    0.007415
   121  H    0.005107
   122  H    0.019318
   123  H    0.016668
   124  H    0.010650
   125  H    0.026201
   126  H    0.026566
   127  H    0.023032
   128  H    0.008795
   129  H    0.008061
   130  H    0.009524
   131  H    0.009662
   132  H    0.021022
   133  H    0.023411
   134  H    0.015849
   135  H    0.024847
   136  H    0.041194
   137  H    0.014215
   138  H    0.034541
   139  H    0.034702
   140  H    0.026632
 Sum of Mulliken charges =  -0.00000

 Dipole moment (field-independent basis, Debye):
    X=             -0.7848    Y=              3.3339    Z=             -0.8397  Tot=              3.5265
 Quadrupole moment (field-independent basis, Debye-Ang):
   XX=           -406.1552   YY=           -392.1243   ZZ=           -395.2002
   XY=            -47.1005   XZ=            -12.9104   YZ=            -26.0218

 Normal termination of Gaussian 16 at Thu May  5 09:31:06 2022.
