 Gaussian 16, Revision A.03,
 Gaussian 16:  ES64L-G16RevA.03 25-Dec-2016

 --------------------
 #p ZINDO=(nstates=5)
 --------------------

 -----------------------------
 step_801_chromophore_11 ZINDO
 -----------------------------
 Symbolic Z-matrix:
 Charge =  0 Multiplicity = 1

                         Standard orientation:
 ---------------------------------------------------------------------
 Center     Atomic      Atomic             Coordinates (Angstroms)
 Number     Number       Type             X           Y           Z
 ---------------------------------------------------------------------
      1         12           0       -4.589471    1.468502    0.579954
      2          6           0       -5.154043   -2.127416    0.317489
      3          6           0       -2.555452    0.830827    3.324489
      4          6           0       -3.206385    4.708365    0.365752
      5          6           0       -6.472901    1.948708   -2.272985
      6          7           0       -3.752572   -0.420734    1.565172
      7          6           0       -4.314358   -1.696247    1.404921
      8          6           0       -3.879442   -2.591202    2.552200
      9          6           0       -3.171120   -1.638134    3.582444
     10          6           0       -3.147981   -0.287436    2.842375
     11          6           0       -3.742527   -1.686033    5.009775
     12          6           0       -2.923276   -3.816445    2.297968
     13          6           0       -1.912872   -3.664317    1.110995
     14          6           0       -0.541501   -4.449338    1.259973
     15          8           0        0.206428   -4.461755    2.220592
     16          8           0       -0.198133   -4.877774    0.003595
     17          7           0       -3.032561    2.623163    1.646031
     18          6           0       -2.388923    2.164614    2.784005
     19          6           0       -1.451228    3.192526    3.210408
     20          6           0       -1.481390    4.247279    2.248167
     21          6           0       -2.627755    3.935842    1.401437
     22          6           0       -0.597124    3.089226    4.421294
     23          6           0       -0.565234    5.439315    2.168432
     24          8           0        0.286752    5.620856    3.024468
     25          6           0       -0.617006    6.448933    1.005072
     26          7           0       -4.812835    3.040179   -0.727737
     27          6           0       -4.249103    4.300658   -0.585239
     28          6           0       -4.647050    5.215670   -1.743875
     29          6           0       -5.803114    4.375161   -2.425978
     30          6           0       -5.728921    3.034509   -1.786042
     31          6           0       -5.079048    6.676502   -1.385898
     32          6           0       -5.586115    4.182575   -3.918081
     33          6           0       -4.610432    3.184784   -4.546994
     34          7           0       -5.728928    0.231478   -0.660204
     35          6           0       -6.435587    0.623012   -1.783031
     36          6           0       -7.175260   -0.535984   -2.234833
     37          6           0       -6.760066   -1.567133   -1.393063
     38          6           0       -5.749882   -1.105202   -0.519217
     39          6           0       -8.149485   -0.532369   -3.351873
     40          6           0       -7.071643   -2.924023   -1.102613
     41          8           0       -7.895269   -3.687017   -1.558198
     42          6           0       -5.869245   -3.353218   -0.072969
     43          6           0       -5.028124   -4.276064   -0.839977
     44          8           0       -4.378446   -3.972176   -1.820817
     45          8           0       -5.060057   -5.493220   -0.297895
     46          6           0       -4.034710   -6.403278   -0.871010
     47          6           0        1.228661   -5.054342   -0.193911
     48          6           0        1.710158   -4.025255   -1.197646
     49          6           0        2.627051   -3.064547   -0.904632
     50          6           0        3.178706   -2.789659    0.473469
     51          6           0        3.109155   -2.073693   -2.047779
     52          6           0        4.599957   -1.889112   -2.279098
     53          6           0        5.160549   -0.450763   -2.168164
     54          6           0        5.895595   -0.182218   -0.841257
     55          6           0        5.296934    0.938428    0.001899
     56          6           0        7.353207    0.088087   -1.119914
     57          6           0        8.143228   -0.012177    0.189922
     58          6           0        9.367953    0.949105    0.215336
     59          6           0       10.437785    0.261719    0.911680
     60          6           0       10.174170    0.220619    2.399430
     61          6           0       11.769922    1.018088    0.662820
     62          6           0       12.440268    0.683889   -0.694705
     63          6           0       13.783343    0.041599   -0.540206
     64          6           0       14.628803    0.119004   -1.801278
     65          6           0       15.906244   -0.768117   -1.494901
     66          6           0       14.972059    1.561787   -2.264135
     67          1           0       -2.006893    0.617197    4.243611
     68          1           0       -3.053248    5.788520    0.303173
     69          1           0       -7.161785    2.180791   -3.087474
     70          1           0       -4.757530   -3.016345    3.039864
     71          1           0       -2.114168   -1.897951    3.633631
     72          1           0       -4.539793   -0.988244    5.267010
     73          1           0       -2.953576   -1.545278    5.748060
     74          1           0       -4.116882   -2.702600    5.127137
     75          1           0       -3.682279   -4.441190    1.827411
     76          1           0       -2.428033   -4.183639    3.197098
     77          1           0       -1.658769   -2.604864    1.156662
     78          1           0       -2.343536   -3.870203    0.131305
     79          1           0       -0.712622    4.049596    4.924269
     80          1           0        0.399554    2.745991    4.146841
     81          1           0       -1.064214    2.512990    5.220979
     82          1           0       -0.525209    5.902877    0.065538
     83          1           0        0.111866    7.222520    1.245335
     84          1           0       -1.614810    6.884423    1.063606
     85          1           0       -3.791258    5.399514   -2.393118
     86          1           0       -6.754885    4.851428   -2.188293
     87          1           0       -6.165360    6.667796   -1.304597
     88          1           0       -4.822318    7.405395   -2.154233
     89          1           0       -4.653651    6.986042   -0.430748
     90          1           0       -5.423515    5.213668   -4.232671
     91          1           0       -6.605516    4.067089   -4.285741
     92          1           0       -5.132079    2.782898   -5.414490
     93          1           0       -4.203265    2.349317   -3.976315
     94          1           0       -3.740307    3.735592   -4.903461
     95          1           0       -8.253042    0.459131   -3.793403
     96          1           0       -9.128904   -0.924729   -3.080681
     97          1           0       -7.819802   -1.182555   -4.162166
     98          1           0       -6.337452   -3.919869    0.731994
     99          1           0       -3.083023   -6.470927   -0.343849
    100          1           0       -3.704837   -6.326724   -1.906845
    101          1           0       -4.361403   -7.439790   -0.791073
    102          1           0        1.460434   -6.041908   -0.593685
    103          1           0        1.987830   -5.006530    0.587321
    104          1           0        1.258537   -4.122154   -2.184004
    105          1           0        2.380263   -2.919344    1.203222
    106          1           0        3.780312   -1.884003    0.553576
    107          1           0        3.918493   -3.579867    0.600600
    108          1           0        2.659669   -1.136651   -1.717738
    109          1           0        2.608601   -2.244144   -3.000530
    110          1           0        4.940632   -2.182375   -3.271889
    111          1           0        5.227171   -2.501921   -1.631389
    112          1           0        4.298377    0.169355   -2.413013
    113          1           0        5.736637   -0.206784   -3.060707
    114          1           0        5.820112   -1.037444   -0.169805
    115          1           0        4.311400    1.295892   -0.296016
    116          1           0        5.960786    1.802445    0.027770
    117          1           0        5.291563    0.562982    1.024842
    118          1           0        7.540621    1.096128   -1.489883
    119          1           0        7.706994   -0.732415   -1.743277
    120          1           0        8.413754   -1.061715    0.300266
    121          1           0        7.590935    0.128396    1.118889
    122          1           0        9.103909    1.840849    0.783638
    123          1           0        9.745420    1.192449   -0.777804
    124          1           0       10.621772   -0.713601    0.461543
    125          1           0       10.952144    0.792035    2.907204
    126          1           0       10.172151   -0.800269    2.781220
    127          1           0        9.208849    0.617930    2.711904
    128          1           0       12.482755    0.733751    1.437272
    129          1           0       11.491208    2.065725    0.772081
    130          1           0       12.555183    1.555639   -1.338934
    131          1           0       11.813314   -0.044037   -1.207947
    132          1           0       13.563937   -1.017959   -0.409898
    133          1           0       14.296962    0.516641    0.296168
    134          1           0       14.002536   -0.290230   -2.594030
    135          1           0       16.801667   -0.148376   -1.434828
    136          1           0       15.938332   -1.668559   -2.107901
    137          1           0       15.867361   -1.128281   -0.466268
    138          1           0       15.857084    1.551595   -2.900356
    139          1           0       14.972788    2.244300   -1.414535
    140          1           0       14.201098    1.920019   -2.946383
 ---------------------------------------------------------------------

 SCF Done:  E(RZINDO/S) =  -474.325418827     A.U. after   19 cycles

 Excitation energies and oscillator strengths:

 Excited State   1:      Singlet-A      1.1655 eV 1063.75 nm  f=0.6087  <S**2>=0.000
     175 ->178         0.17927
     176 ->177         0.66480
 This state for optimization and/or second-order correction.
 Total Energy, E(CIS/TDA) =  -474.282585989
 Copying the excited state density for this state as the 1-particle RhoCI density.

 Excited State   2:      Singlet-A      1.8794 eV  659.69 nm  f=0.0330  <S**2>=0.000
     175 ->177         0.53936
     176 ->178        -0.43115

 Excited State   3:      Singlet-A      2.9154 eV  425.27 nm  f=0.1817  <S**2>=0.000
     168 ->177        -0.14480
     168 ->178         0.10961
     168 ->179         0.17199
     168 ->180        -0.13157
     168 ->181         0.13376
     168 ->185         0.13340
     170 ->179         0.12397
     171 ->177        -0.20794
     173 ->177         0.29612
     175 ->177         0.15503
     176 ->178         0.21327
     176 ->179         0.23461

 Excited State   4:      Singlet-A      2.9312 eV  422.98 nm  f=0.7733  <S**2>=0.000
     172 ->177        -0.18497
     173 ->177        -0.30947
     175 ->177         0.33239
     176 ->178         0.45403

 Excited State   5:      Singlet-A      2.9653 eV  418.12 nm  f=0.0908  <S**2>=0.000
     168 ->177         0.22415
     168 ->178        -0.14274
     168 ->179        -0.17148
     168 ->180         0.19606
     168 ->181        -0.19626
     168 ->185        -0.13584
     169 ->179         0.15921
     170 ->177         0.17101
     170 ->179         0.19127
     170 ->180         0.10033
     171 ->177         0.10702
     173 ->177         0.19032
     175 ->177         0.10185
     176 ->178         0.11635

 The electronic state is 1-A.
 Alpha  occ. eigenvalues --   -1.84243  -1.79529  -1.77709  -1.74412  -1.72816
 Alpha  occ. eigenvalues --   -1.70085  -1.69793  -1.63101  -1.59255  -1.58698
 Alpha  occ. eigenvalues --   -1.57303  -1.51077  -1.48960  -1.47966  -1.46900
 Alpha  occ. eigenvalues --   -1.43783  -1.43276  -1.40618  -1.38886  -1.38072
 Alpha  occ. eigenvalues --   -1.35967  -1.33844  -1.33501  -1.30891  -1.27510
 Alpha  occ. eigenvalues --   -1.27097  -1.25849  -1.22764  -1.20404  -1.18176
 Alpha  occ. eigenvalues --   -1.17659  -1.17134  -1.15494  -1.14506  -1.13999
 Alpha  occ. eigenvalues --   -1.13371  -1.10891  -1.09989  -1.05636  -1.04245
 Alpha  occ. eigenvalues --   -1.02569  -1.01333  -1.00329  -0.97874  -0.97602
 Alpha  occ. eigenvalues --   -0.95148  -0.93505  -0.93235  -0.92851  -0.91148
 Alpha  occ. eigenvalues --   -0.90582  -0.90166  -0.89633  -0.88034  -0.86273
 Alpha  occ. eigenvalues --   -0.85433  -0.84874  -0.83588  -0.81112  -0.80594
 Alpha  occ. eigenvalues --   -0.79735  -0.78104  -0.77553  -0.77027  -0.76869
 Alpha  occ. eigenvalues --   -0.76312  -0.75970  -0.75314  -0.74730  -0.74018
 Alpha  occ. eigenvalues --   -0.73365  -0.73268  -0.72012  -0.71678  -0.71483
 Alpha  occ. eigenvalues --   -0.71000  -0.69489  -0.68799  -0.68723  -0.68307
 Alpha  occ. eigenvalues --   -0.66680  -0.66546  -0.66182  -0.65953  -0.65501
 Alpha  occ. eigenvalues --   -0.65247  -0.64471  -0.64281  -0.64218  -0.63705
 Alpha  occ. eigenvalues --   -0.63407  -0.62824  -0.62034  -0.61772  -0.61547
 Alpha  occ. eigenvalues --   -0.61471  -0.61249  -0.60869  -0.60272  -0.59557
 Alpha  occ. eigenvalues --   -0.59184  -0.58950  -0.58761  -0.58311  -0.58172
 Alpha  occ. eigenvalues --   -0.57426  -0.57222  -0.56859  -0.56415  -0.55893
 Alpha  occ. eigenvalues --   -0.55842  -0.55565  -0.55371  -0.55025  -0.54705
 Alpha  occ. eigenvalues --   -0.54180  -0.53922  -0.53348  -0.52989  -0.52866
 Alpha  occ. eigenvalues --   -0.52765  -0.52182  -0.51861  -0.51612  -0.51418
 Alpha  occ. eigenvalues --   -0.51082  -0.50795  -0.50767  -0.50277  -0.50169
 Alpha  occ. eigenvalues --   -0.50005  -0.49825  -0.49586  -0.49477  -0.48769
 Alpha  occ. eigenvalues --   -0.48574  -0.48498  -0.48313  -0.47981  -0.47416
 Alpha  occ. eigenvalues --   -0.47148  -0.46652  -0.46528  -0.46441  -0.46122
 Alpha  occ. eigenvalues --   -0.45751  -0.45709  -0.45661  -0.45503  -0.45480
 Alpha  occ. eigenvalues --   -0.44963  -0.44892  -0.44512  -0.43894  -0.43557
 Alpha  occ. eigenvalues --   -0.43286  -0.43169  -0.42801  -0.42650  -0.42179
 Alpha  occ. eigenvalues --   -0.41715  -0.41192  -0.39579  -0.39073  -0.38747
 Alpha  occ. eigenvalues --   -0.38064  -0.37359  -0.35608  -0.34986  -0.34825
 Alpha  occ. eigenvalues --   -0.32938  -0.32606  -0.31965  -0.31758  -0.27185
 Alpha  occ. eigenvalues --   -0.21879
 Alpha virt. eigenvalues --   -0.09200  -0.02623  -0.00750   0.01070   0.01259
 Alpha virt. eigenvalues --    0.01608   0.02428   0.03119   0.04351   0.05329
 Alpha virt. eigenvalues --    0.05546   0.06626   0.07037   0.07473   0.08196

 Mulliken charges:
               1
     1  Mg   0.428095
     2  C   -0.051197
     3  C   -0.072654
     4  C   -0.082591
     5  C   -0.054891
     6  N   -0.320548
     7  C    0.138324
     8  C    0.000324
     9  C    0.000187
    10  C    0.139155
    11  C   -0.047119
    12  C   -0.031060
    13  C   -0.001444
    14  C    0.460159
    15  O   -0.512375
    16  O   -0.252152
    17  N   -0.337804
    18  C    0.122863
    19  C    0.047834
    20  C   -0.042889
    21  C    0.122706
    22  C   -0.040247
    23  C    0.321354
    24  O   -0.522110
    25  C   -0.031900
    26  N   -0.263521
    27  C    0.122280
    28  C   -0.003495
    29  C    0.008881
    30  C    0.112594
    31  C   -0.057234
    32  C   -0.022735
    33  C   -0.045728
    34  N   -0.319197
    35  C    0.078590
    36  C    0.042794
    37  C   -0.052070
    38  C    0.122262
    39  C   -0.035174
    40  C    0.325733
    41  O   -0.517381
    42  C    0.064640
    43  C    0.502066
    44  O   -0.536599
    45  O   -0.247560
    46  C    0.066618
    47  C    0.096594
    48  C   -0.097805
    49  C   -0.006560
    50  C   -0.042822
    51  C   -0.021151
    52  C   -0.030814
    53  C   -0.041066
    54  C   -0.002703
    55  C   -0.057831
    56  C   -0.029869
    57  C   -0.049857
    58  C   -0.026135
    59  C   -0.005483
    60  C   -0.055437
    61  C   -0.047971
    62  C   -0.043333
    63  C   -0.027535
    64  C   -0.017178
    65  C   -0.066162
    66  C   -0.057702
    67  H    0.022175
    68  H    0.036273
    69  H    0.035458
    70  H    0.024336
    71  H    0.034323
    72  H    0.027833
    73  H    0.019590
    74  H    0.016831
    75  H    0.017873
    76  H    0.050620
    77  H    0.045519
    78  H    0.051800
    79  H    0.037276
    80  H    0.053288
    81  H    0.017606
    82  H    0.043296
    83  H    0.046145
    84  H    0.033559
    85  H    0.036371
    86  H    0.037611
    87  H    0.018308
    88  H    0.022517
    89  H    0.023473
    90  H    0.005804
    91  H    0.010272
    92  H    0.019927
    93  H    0.035877
    94  H    0.015289
    95  H    0.017386
    96  H    0.037596
    97  H    0.034359
    98  H    0.043953
    99  H    0.034091
   100  H    0.056690
   101  H    0.023783
   102  H    0.029235
   103  H    0.056128
   104  H    0.034239
   105  H    0.042403
   106  H    0.028588
   107  H    0.024553
   108  H    0.020528
   109  H    0.021308
   110  H    0.012978
   111  H    0.016492
   112  H    0.012200
   113  H    0.013790
   114  H    0.023126
   115  H    0.021375
   116  H    0.014467
   117  H    0.014582
   118  H    0.028983
   119  H    0.018607
   120  H    0.011563
   121  H    0.020680
   122  H    0.022761
   123  H    0.016857
   124  H    0.020627
   125  H    0.018223
   126  H    0.012319
   127  H    0.017429
   128  H    0.013530
   129  H    0.018208
   130  H    0.018740
   131  H    0.014927
   132  H    0.016376
   133  H    0.024337
   134  H    0.019557
   135  H    0.023469
   136  H    0.026536
   137  H    0.010435
   138  H    0.020490
   139  H    0.027044
   140  H    0.010233
 Sum of Mulliken charges =  -0.00000

 Dipole moment (field-independent basis, Debye):
    X=             -2.0971    Y=              4.8491    Z=              0.5956  Tot=              5.3166
 N-N= 4.434730939762D+03 E-N= 0.000000000000D+00  KE=-9.543880895373D+03
 Leave Link  601 at Thu May  5 09:45:03 2022, MaxMem=  6710886400 cpu:               0.8 elap:               0.1
 (Enter /sw/apps/gaussian-16.0/g16/l9999.exe)
 1\1\GINC-BP1-COMPUTE123\SP\RZINDO CIS\STO-3G\C55H74Mg1N4O6\OF15641\05-
 May-2022\0\\#p ZINDO=(nstates=5)\\step_801_chromophore_11 ZINDO\\0,1\M
 g,0,52.709,23.81,43.955\C,0,49.634,25.675,43.335\C,0,50.922,20.891,43.
 353\C,0,55.712,21.997,43.567\C,0,54.411,26.789,44.337\N,0,50.601,23.33
 4,43.2\C,0,49.532,24.241,43.253\C,0,48.218,23.483,43.181\C,0,48.601,21
 .965,43.324\C,0,50.141,21.997,43.324\C,0,47.88,21.218,44.459\C,0,47.27
 7,23.623,41.926\C,0,47.99,23.913,40.562\C,0,47.262,23.359,39.265\O,0,4

 Normal termination of Gaussian 16 at Thu May  5 09:45:03 2022.
