 Gaussian 16, Revision A.03,
 Gaussian 16:  ES64L-G16RevA.03 25-Dec-2016

 ------------------------------
 #p blyp/Def2SVP td=(nstates=5)
 ------------------------------

 -----------------------------------------------
 step_1_chromophore_2 TDDFT with blyp functional
 -----------------------------------------------
 Symbolic Z-matrix:
 Charge =  0 Multiplicity = 1

                         Standard orientation:
 ---------------------------------------------------------------------
 Center     Atomic      Atomic             Coordinates (Angstroms)
 Number     Number       Type             X           Y           Z
 ---------------------------------------------------------------------
      1         12           0        4.621727    1.187734   -0.560220
      2          6           0        5.073215   -2.282883   -0.607687
      3          6           0        1.804017    0.616833   -2.482525
      4          6           0        3.909503    4.437048   -0.283279
      5          6           0        6.959380    1.434564    2.027219
      6          7           0        3.434310   -0.794825   -1.300099
      7          6           0        3.908931   -2.055149   -1.286197
      8          6           0        3.000692   -3.050236   -1.967762
      9          6           0        2.157070   -1.996262   -2.781378
     10          6           0        2.405292   -0.627807   -2.155237
     11          6           0        2.639929   -1.955972   -4.255833
     12          6           0        2.314704   -3.969440   -0.949203
     13          6           0        1.807012   -3.390144    0.387639
     14          6           0        0.379487   -3.758260    0.774353
     15          8           0       -0.486634   -4.361398    0.107660
     16          8           0        0.121874   -3.389347    2.109025
     17          7           0        3.103664    2.356472   -1.277359
     18          6           0        2.124761    1.939698   -2.140010
     19          6           0        1.553065    3.113446   -2.812768
     20          6           0        2.027814    4.277574   -2.085940
     21          6           0        3.067404    3.698354   -1.181403
     22          6           0        0.359748    3.012856   -3.838232
     23          6           0        1.548963    5.722189   -2.249831
     24          8           0        0.795041    6.019042   -3.134272
     25          6           0        2.059456    6.791942   -1.328148
     26          7           0        5.231220    2.678745    0.899559
     27          6           0        4.882455    4.033680    0.748373
     28          6           0        5.611874    4.981160    1.792173
     29          6           0        6.639818    3.958996    2.475625
     30          6           0        6.291968    2.591521    1.727331
     31          6           0        6.294100    6.355662    1.305220
     32          6           0        6.610806    3.839422    4.067430
     33          6           0        8.085132    3.547674    4.639490
     34          7           0        5.860724   -0.112831    0.507896
     35          6           0        6.819326    0.152001    1.464735
     36          6           0        7.528701   -1.080795    1.784540
     37          6           0        6.961133   -2.095351    0.971215
     38          6           0        5.880289   -1.462282    0.257675
     39          6           0        8.749437   -1.213423    2.656947
     40          6           0        6.898999   -3.547119    0.601988
     41          8           0        7.486751   -4.498270    1.066703
     42          6           0        5.719786   -3.655362   -0.455671
     43          6           0        6.335295   -4.152835   -1.734628
     44          8           0        6.662339   -5.348833   -1.938176
     45          8           0        6.340120   -3.133619   -2.675873
     46          6           0        6.682697   -3.525355   -4.002220
     47          6           0       -1.151125   -3.771013    2.669158
     48          6           0       -2.113962   -2.729680    2.265555
     49          6           0       -3.248146   -2.486375    2.959516
     50          6           0       -3.641715   -3.135012    4.312479
     51          6           0       -4.090275   -1.343998    2.467772
     52          6           0       -4.999572   -1.842837    1.321060
     53          6           0       -6.416958   -1.445744    1.713970
     54          6           0       -7.040057   -0.537923    0.557528
     55          6           0       -6.755924    0.930740    0.909297
     56          6           0       -8.566310   -0.777678    0.417020
     57          6           0       -9.143840   -0.418592   -0.924554
     58          6           0      -10.201845    0.772017   -0.876301
     59          6           0      -11.501010    0.126200   -1.362820
     60          6           0      -11.476056   -0.285490   -2.796802
     61          6           0      -12.591653    1.143889   -1.096369
     62          6           0      -14.057388    0.562696   -1.200401
     63          6           0      -14.564942   -0.000645    0.151151
     64          6           0      -15.349294    1.097291    0.938061
     65          6           0      -14.704929    1.467991    2.296446
     66          6           0      -16.816837    0.707151    1.246752
     67          1           0        0.967587    0.449329   -3.164400
     68          1           0        3.907894    5.528856   -0.253908
     69          1           0        7.819349    1.562436    2.688136
     70          1           0        3.532576   -3.633584   -2.719129
     71          1           0        1.076827   -2.129290   -2.821928
     72          1           0        2.515093   -0.922733   -4.580677
     73          1           0        2.118768   -2.705345   -4.849919
     74          1           0        3.701180   -2.083873   -4.471418
     75          1           0        3.076661   -4.685781   -0.643541
     76          1           0        1.498887   -4.485157   -1.455883
     77          1           0        1.818086   -2.302190    0.326604
     78          1           0        2.440341   -3.777486    1.185219
     79          1           0       -0.621492    2.851279   -3.391130
     80          1           0        0.560658    2.214701   -4.552933
     81          1           0        0.242944    3.853858   -4.520764
     82          1           0        1.523398    7.732629   -1.458206
     83          1           0        3.124534    6.990570   -1.449204
     84          1           0        1.744663    6.413363   -0.355322
     85          1           0        4.771698    5.195448    2.451624
     86          1           0        7.666935    4.194765    2.198654
     87          1           0        5.534808    7.133111    1.381328
     88          1           0        6.666685    6.277426    0.284242
     89          1           0        7.149717    6.561407    1.948734
     90          1           0        6.056336    2.955932    4.383630
     91          1           0        6.151170    4.718734    4.519377
     92          1           0        8.119034    2.591937    5.162638
     93          1           0        8.363366    4.334668    5.339827
     94          1           0        8.906149    3.404487    3.937819
     95          1           0        8.499704   -0.850639    3.653430
     96          1           0        9.554566   -0.598225    2.254629
     97          1           0        9.069258   -2.249289    2.768878
     98          1           0        5.109509   -4.476719   -0.080784
     99          1           0        6.560574   -2.673133   -4.670336
    100          1           0        6.146797   -4.427131   -4.298887
    101          1           0        7.748737   -3.726935   -4.106875
    102          1           0       -1.261840   -3.794065    3.753428
    103          1           0       -1.459371   -4.772556    2.367658
    104          1           0       -1.816022   -2.105242    1.423059
    105          1           0       -3.111573   -4.069959    4.494987
    106          1           0       -4.707854   -3.361127    4.304146
    107          1           0       -3.317392   -2.399192    5.047314
    108          1           0       -3.427169   -0.541270    2.144218
    109          1           0       -4.639828   -1.017230    3.349538
    110          1           0       -4.877790   -2.913493    1.156485
    111          1           0       -4.724763   -1.273884    0.433163
    112          1           0       -6.504809   -0.834831    2.613622
    113          1           0       -6.980940   -2.373480    1.811235
    114          1           0       -6.631530   -0.688917   -0.440661
    115          1           0       -7.560391    1.511259    0.456492
    116          1           0       -5.766153    1.087643    0.481953
    117          1           0       -6.824041    1.166031    1.970953
    118          1           0       -9.123591   -0.237652    1.182466
    119          1           0       -8.797014   -1.837463    0.524231
    120          1           0       -9.615652   -1.274988   -1.404926
    121          1           0       -8.321708   -0.097518   -1.562826
    122          1           0       -9.893353    1.641363   -1.455874
    123          1           0      -10.437878    1.124265    0.127818
    124          1           0      -11.590033   -0.858414   -0.904523
    125          1           0      -11.389532   -1.371471   -2.840303
    126          1           0      -10.722117    0.242511   -3.381068
    127          1           0      -12.394066   -0.030294   -3.325833
    128          1           0      -12.496759    1.909624   -1.866404
    129          1           0      -12.474662    1.645407   -0.135672
    130          1           0      -14.101399   -0.294264   -1.873621
    131          1           0      -14.759192    1.301819   -1.587128
    132          1           0      -13.708097   -0.327036    0.740007
    133          1           0      -15.158255   -0.905121    0.014785
    134          1           0      -15.379671    2.044561    0.400051
    135          1           0      -15.128529    2.456836    2.470557
    136          1           0      -13.628194    1.541465    2.142872
    137          1           0      -14.981640    0.820509    3.128778
    138          1           0      -17.026770    0.718495    2.316962
    139          1           0      -17.093319   -0.260509    0.827243
    140          1           0      -17.478709    1.430832    0.772321
 ---------------------------------------------------------------------

 SCF Done:  E(RB-LYP) =  -3007.36859581     A.U. after   20 cycles

 Excitation energies and oscillator strengths:

 Excited State   1:      Singlet-A      1.8318 eV  676.86 nm  f=0.2529  <S**2>=0.000
     244 -> 247        0.11258
     245 -> 248        0.19814
     246 -> 247        0.66517
     246 <- 247       -0.13437
 This state for optimization and/or second-order correction.
 Total Energy, E(TD-HF/TD-DFT) =  -3007.30127975
 Copying the excited state density for this state as the 1-particle RhoCI density.

 Excited State   2:      Singlet-A      1.8456 eV  671.80 nm  f=0.0088  <S**2>=0.000
     244 -> 247        0.69800
     246 -> 247       -0.10594

 Excited State   3:      Singlet-A      1.9530 eV  634.85 nm  f=0.0504  <S**2>=0.000
     242 -> 247       -0.22041
     243 -> 247        0.38786
     245 -> 247        0.51541
     246 -> 248       -0.16244

 Excited State   4:      Singlet-A      1.9790 eV  626.50 nm  f=0.0334  <S**2>=0.000
     242 -> 247        0.15752
     243 -> 247        0.58701
     245 -> 247       -0.32113
     246 -> 248        0.12193

 Excited State   5:      Singlet-A      2.1415 eV  578.95 nm  f=0.0197  <S**2>=0.000
     242 -> 247        0.64152
     245 -> 247        0.23452
     246 -> 248       -0.14335

 The electronic state is 1-A.
 Alpha  occ. eigenvalues --  -46.28815 -18.83123 -18.81368 -18.77155 -18.76918
 Alpha  occ. eigenvalues --  -18.76564 -18.75718 -14.03550 -14.02945 -14.01986
 Alpha  occ. eigenvalues --  -14.01235 -10.04620 -10.04421 -10.00623 -10.00090
 Alpha  occ. eigenvalues --   -9.98067  -9.98006  -9.97098  -9.96742  -9.96612
 Alpha  occ. eigenvalues --   -9.96438  -9.96320  -9.96079  -9.95799  -9.95688
 Alpha  occ. eigenvalues --   -9.95248  -9.94996  -9.94612  -9.94574  -9.94376
 Alpha  occ. eigenvalues --   -9.94264  -9.94242  -9.94092  -9.94035  -9.93956
 Alpha  occ. eigenvalues --   -9.93688  -9.93635  -9.93477  -9.93371  -9.93229
 Alpha  occ. eigenvalues --   -9.92759  -9.92679  -9.92648  -9.92504  -9.92440
 Alpha  occ. eigenvalues --   -9.92247  -9.92133  -9.91981  -9.91641  -9.91448
 Alpha  occ. eigenvalues --   -9.91384  -9.90912  -9.90874  -9.90823  -9.90814
 Alpha  occ. eigenvalues --   -9.90789  -9.90638  -9.90631  -9.90626  -9.90551
 Alpha  occ. eigenvalues --   -9.90463  -9.90437  -9.90304  -9.90163  -9.90109
 Alpha  occ. eigenvalues --   -9.90005  -2.93284  -1.73669  -1.73215  -1.72979
 Alpha  occ. eigenvalues --   -0.98037  -0.96571  -0.92940  -0.92430  -0.89091
 Alpha  occ. eigenvalues --   -0.88776  -0.87068  -0.86188  -0.85553  -0.84582
 Alpha  occ. eigenvalues --   -0.75537  -0.73680  -0.73312  -0.72956  -0.71649
 Alpha  occ. eigenvalues --   -0.71630  -0.71253  -0.70910  -0.70806  -0.69841
 Alpha  occ. eigenvalues --   -0.69527  -0.68912  -0.68201  -0.67510  -0.67267
 Alpha  occ. eigenvalues --   -0.66112  -0.65852  -0.65374  -0.64883  -0.64561
 Alpha  occ. eigenvalues --   -0.63700  -0.62627  -0.61977  -0.61595  -0.61103
 Alpha  occ. eigenvalues --   -0.60373  -0.60174  -0.59990  -0.59326  -0.58583
 Alpha  occ. eigenvalues --   -0.58080  -0.57651  -0.57096  -0.55495  -0.55167
 Alpha  occ. eigenvalues --   -0.54000  -0.53555  -0.52781  -0.51923  -0.51860
 Alpha  occ. eigenvalues --   -0.51370  -0.51006  -0.50770  -0.50134  -0.50040
 Alpha  occ. eigenvalues --   -0.49464  -0.49162  -0.48750  -0.48342  -0.46420
 Alpha  occ. eigenvalues --   -0.46162  -0.45900  -0.45694  -0.45050  -0.44425
 Alpha  occ. eigenvalues --   -0.44066  -0.43848  -0.43360  -0.42990  -0.42681
 Alpha  occ. eigenvalues --   -0.42396  -0.42220  -0.41569  -0.41410  -0.40887
 Alpha  occ. eigenvalues --   -0.40641  -0.40448  -0.40321  -0.40204  -0.39998
 Alpha  occ. eigenvalues --   -0.39772  -0.39458  -0.39283  -0.39096  -0.38876
 Alpha  occ. eigenvalues --   -0.38803  -0.38681  -0.38391  -0.38256  -0.38117
 Alpha  occ. eigenvalues --   -0.38060  -0.37914  -0.37604  -0.37509  -0.37450
 Alpha  occ. eigenvalues --   -0.37351  -0.36864  -0.36835  -0.36519  -0.36382
 Alpha  occ. eigenvalues --   -0.36208  -0.36140  -0.36080  -0.35768  -0.35584
 Alpha  occ. eigenvalues --   -0.35369  -0.35181  -0.35055  -0.34879  -0.34766
 Alpha  occ. eigenvalues --   -0.34601  -0.34296  -0.34281  -0.34122  -0.33763
 Alpha  occ. eigenvalues --   -0.33590  -0.33440  -0.33406  -0.33342  -0.33065
 Alpha  occ. eigenvalues --   -0.33014  -0.32759  -0.32610  -0.32453  -0.32395
 Alpha  occ. eigenvalues --   -0.32071  -0.31997  -0.31917  -0.31697  -0.31555
 Alpha  occ. eigenvalues --   -0.31407  -0.31298  -0.31113  -0.30959  -0.30846
 Alpha  occ. eigenvalues --   -0.30655  -0.30610  -0.30390  -0.30251  -0.29896
 Alpha  occ. eigenvalues --   -0.29842  -0.29559  -0.29465  -0.29019  -0.28818
 Alpha  occ. eigenvalues --   -0.28777  -0.28425  -0.28351  -0.27948  -0.27816
 Alpha  occ. eigenvalues --   -0.27598  -0.27558  -0.26989  -0.26620  -0.26556
 Alpha  occ. eigenvalues --   -0.26398  -0.26154  -0.25497  -0.25464  -0.25413
 Alpha  occ. eigenvalues --   -0.25122  -0.24887  -0.24049  -0.23908  -0.23733
 Alpha  occ. eigenvalues --   -0.22753  -0.22449  -0.21968  -0.21494  -0.21079
 Alpha  occ. eigenvalues --   -0.20755  -0.19321  -0.18853  -0.18477  -0.17358
 Alpha  occ. eigenvalues --   -0.16165
 Alpha virt. eigenvalues --   -0.11696  -0.07227  -0.06530  -0.05018  -0.04320
 Alpha virt. eigenvalues --   -0.03387  -0.03165  -0.01743  -0.01077  -0.00092
 Alpha virt. eigenvalues --    0.01028   0.01636   0.01970   0.02727   0.02972

 Mulliken charges:
               1
     1  Mg   0.692138
     2  C    0.167593
     3  C   -0.054251
     4  C   -0.055617
     5  C   -0.067517
     6  N   -0.161080
     7  C   -0.174528
     8  C    0.109406
     9  C    0.002497
    10  C   -0.033914
    11  C    0.117090
    12  C    0.131856
    13  C    0.106840
    14  C    0.090682
    15  O   -0.204194
    16  O   -0.289003
    17  N   -0.281867
    18  C    0.153307
    19  C   -0.137621
    20  C    0.009482
    21  C    0.158227
    22  C    0.148197
    23  C   -0.089753
    24  O   -0.128198
    25  C    0.138440
    26  N   -0.229058
    27  C   -0.054991
    28  C    0.042371
    29  C    0.009100
    30  C    0.023567
    31  C    0.111875
    32  C    0.091413
    33  C    0.025999
    34  N   -0.264726
    35  C    0.121952
    36  C   -0.198215
    37  C    0.095003
    38  C    0.007169
    39  C    0.172167
    40  C   -0.032867
    41  O   -0.098081
    42  C   -0.061554
    43  C    0.136626
    44  O   -0.198764
    45  O   -0.261255
    46  C    0.228252
    47  C    0.344826
    48  C   -0.110848
    49  C   -0.205490
    50  C    0.138673
    51  C    0.129895
    52  C    0.111961
    53  C    0.114998
    54  C   -0.118553
    55  C    0.110248
    56  C    0.128746
    57  C    0.080413
    58  C    0.090345
    59  C   -0.108030
    60  C    0.125156
    61  C    0.120767
    62  C    0.083222
    63  C    0.116097
    64  C   -0.097615
    65  C    0.086207
    66  C    0.101849
    67  H   -0.053947
    68  H   -0.083189
    69  H   -0.079831
    70  H   -0.033920
    71  H   -0.030155
    72  H   -0.021529
    73  H    0.003670
    74  H   -0.018486
    75  H   -0.016266
    76  H   -0.002230
    77  H    0.032289
    78  H    0.016652
    79  H    0.013130
    80  H   -0.019057
    81  H    0.000307
    82  H   -0.017718
    83  H    0.034881
    84  H    0.004125
    85  H   -0.007977
    86  H   -0.017711
    87  H    0.006640
    88  H    0.001751
    89  H    0.003909
    90  H   -0.004687
    91  H   -0.007974
    92  H   -0.005656
    93  H   -0.003748
    94  H    0.001259
    95  H   -0.007279
    96  H    0.006483
    97  H    0.007386
    98  H    0.015240
    99  H    0.008454
   100  H    0.014780
   101  H    0.002797
   102  H   -0.013794
   103  H   -0.003712
   104  H   -0.036425
   105  H   -0.011306
   106  H    0.001766
   107  H    0.017432
   108  H   -0.024421
   109  H   -0.042546
   110  H   -0.008344
   111  H   -0.026022
   112  H   -0.026174
   113  H   -0.038975
   114  H   -0.032809
   115  H   -0.016186
   116  H   -0.011284
   117  H   -0.016435
   118  H   -0.041032
   119  H   -0.051358
   120  H   -0.030867
   121  H   -0.043239
   122  H   -0.032576
   123  H   -0.031903
   124  H   -0.040079
   125  H   -0.013967
   126  H   -0.025963
   127  H   -0.023797
   128  H   -0.044904
   129  H   -0.037515
   130  H   -0.043210
   131  H   -0.031882
   132  H   -0.040691
   133  H   -0.040446
   134  H   -0.029824
   135  H   -0.020919
   136  H   -0.017290
   137  H   -0.007193
   138  H   -0.019028
   139  H   -0.020233
   140  H   -0.022302
 Sum of Mulliken charges =  -0.00000

 Dipole moment (field-independent basis, Debye):
    X=              0.8589    Y=              5.3170    Z=              1.0931  Tot=              5.4957
 Quadrupole moment (field-independent basis, Debye-Ang):
   XX=           -400.7320   YY=           -436.4596   ZZ=           -388.3494
   XY=             58.6243   XZ=             -6.2419   YZ=             20.5617

 Normal termination of Gaussian 16 at Wed May  4 17:07:20 2022.
