 Gaussian 16, Revision A.03,
 Gaussian 16:  ES64L-G16RevA.03 25-Dec-2016

 -----------------------------------
 #p cam-b3lyp/Def2SVP td=(nstates=5)
 -----------------------------------

 ----------------------------------------------------
 step_1_chromophore_2 TDDFT with cam-b3lyp functional
 ----------------------------------------------------
 Symbolic Z-matrix:
 Charge =  0 Multiplicity = 1

                         Standard orientation:
 ---------------------------------------------------------------------
 Center     Atomic      Atomic             Coordinates (Angstroms)
 Number     Number       Type             X           Y           Z
 ---------------------------------------------------------------------
      1         12           0        4.621727    1.187734   -0.560220
      2          6           0        5.073215   -2.282883   -0.607687
      3          6           0        1.804017    0.616833   -2.482525
      4          6           0        3.909503    4.437048   -0.283279
      5          6           0        6.959380    1.434564    2.027219
      6          7           0        3.434310   -0.794825   -1.300099
      7          6           0        3.908931   -2.055149   -1.286197
      8          6           0        3.000692   -3.050236   -1.967762
      9          6           0        2.157070   -1.996262   -2.781378
     10          6           0        2.405292   -0.627807   -2.155237
     11          6           0        2.639929   -1.955972   -4.255833
     12          6           0        2.314704   -3.969440   -0.949203
     13          6           0        1.807012   -3.390144    0.387639
     14          6           0        0.379487   -3.758260    0.774353
     15          8           0       -0.486634   -4.361398    0.107660
     16          8           0        0.121874   -3.389347    2.109025
     17          7           0        3.103664    2.356472   -1.277359
     18          6           0        2.124761    1.939698   -2.140010
     19          6           0        1.553065    3.113446   -2.812768
     20          6           0        2.027814    4.277574   -2.085940
     21          6           0        3.067404    3.698354   -1.181403
     22          6           0        0.359748    3.012856   -3.838232
     23          6           0        1.548963    5.722189   -2.249831
     24          8           0        0.795041    6.019042   -3.134272
     25          6           0        2.059456    6.791942   -1.328148
     26          7           0        5.231220    2.678745    0.899559
     27          6           0        4.882455    4.033680    0.748373
     28          6           0        5.611874    4.981160    1.792173
     29          6           0        6.639818    3.958996    2.475625
     30          6           0        6.291968    2.591521    1.727331
     31          6           0        6.294100    6.355662    1.305220
     32          6           0        6.610806    3.839422    4.067430
     33          6           0        8.085132    3.547674    4.639490
     34          7           0        5.860724   -0.112831    0.507896
     35          6           0        6.819326    0.152001    1.464735
     36          6           0        7.528701   -1.080795    1.784540
     37          6           0        6.961133   -2.095351    0.971215
     38          6           0        5.880289   -1.462282    0.257675
     39          6           0        8.749437   -1.213423    2.656947
     40          6           0        6.898999   -3.547119    0.601988
     41          8           0        7.486751   -4.498270    1.066703
     42          6           0        5.719786   -3.655362   -0.455671
     43          6           0        6.335295   -4.152835   -1.734628
     44          8           0        6.662339   -5.348833   -1.938176
     45          8           0        6.340120   -3.133619   -2.675873
     46          6           0        6.682697   -3.525355   -4.002220
     47          6           0       -1.151125   -3.771013    2.669158
     48          6           0       -2.113962   -2.729680    2.265555
     49          6           0       -3.248146   -2.486375    2.959516
     50          6           0       -3.641715   -3.135012    4.312479
     51          6           0       -4.090275   -1.343998    2.467772
     52          6           0       -4.999572   -1.842837    1.321060
     53          6           0       -6.416958   -1.445744    1.713970
     54          6           0       -7.040057   -0.537923    0.557528
     55          6           0       -6.755924    0.930740    0.909297
     56          6           0       -8.566310   -0.777678    0.417020
     57          6           0       -9.143840   -0.418592   -0.924554
     58          6           0      -10.201845    0.772017   -0.876301
     59          6           0      -11.501010    0.126200   -1.362820
     60          6           0      -11.476056   -0.285490   -2.796802
     61          6           0      -12.591653    1.143889   -1.096369
     62          6           0      -14.057388    0.562696   -1.200401
     63          6           0      -14.564942   -0.000645    0.151151
     64          6           0      -15.349294    1.097291    0.938061
     65          6           0      -14.704929    1.467991    2.296446
     66          6           0      -16.816837    0.707151    1.246752
     67          1           0        0.967587    0.449329   -3.164400
     68          1           0        3.907894    5.528856   -0.253908
     69          1           0        7.819349    1.562436    2.688136
     70          1           0        3.532576   -3.633584   -2.719129
     71          1           0        1.076827   -2.129290   -2.821928
     72          1           0        2.515093   -0.922733   -4.580677
     73          1           0        2.118768   -2.705345   -4.849919
     74          1           0        3.701180   -2.083873   -4.471418
     75          1           0        3.076661   -4.685781   -0.643541
     76          1           0        1.498887   -4.485157   -1.455883
     77          1           0        1.818086   -2.302190    0.326604
     78          1           0        2.440341   -3.777486    1.185219
     79          1           0       -0.621492    2.851279   -3.391130
     80          1           0        0.560658    2.214701   -4.552933
     81          1           0        0.242944    3.853858   -4.520764
     82          1           0        1.523398    7.732629   -1.458206
     83          1           0        3.124534    6.990570   -1.449204
     84          1           0        1.744663    6.413363   -0.355322
     85          1           0        4.771698    5.195448    2.451624
     86          1           0        7.666935    4.194765    2.198654
     87          1           0        5.534808    7.133111    1.381328
     88          1           0        6.666685    6.277426    0.284242
     89          1           0        7.149717    6.561407    1.948734
     90          1           0        6.056336    2.955932    4.383630
     91          1           0        6.151170    4.718734    4.519377
     92          1           0        8.119034    2.591937    5.162638
     93          1           0        8.363366    4.334668    5.339827
     94          1           0        8.906149    3.404487    3.937819
     95          1           0        8.499704   -0.850639    3.653430
     96          1           0        9.554566   -0.598225    2.254629
     97          1           0        9.069258   -2.249289    2.768878
     98          1           0        5.109509   -4.476719   -0.080784
     99          1           0        6.560574   -2.673133   -4.670336
    100          1           0        6.146797   -4.427131   -4.298887
    101          1           0        7.748737   -3.726935   -4.106875
    102          1           0       -1.261840   -3.794065    3.753428
    103          1           0       -1.459371   -4.772556    2.367658
    104          1           0       -1.816022   -2.105242    1.423059
    105          1           0       -3.111573   -4.069959    4.494987
    106          1           0       -4.707854   -3.361127    4.304146
    107          1           0       -3.317392   -2.399192    5.047314
    108          1           0       -3.427169   -0.541270    2.144218
    109          1           0       -4.639828   -1.017230    3.349538
    110          1           0       -4.877790   -2.913493    1.156485
    111          1           0       -4.724763   -1.273884    0.433163
    112          1           0       -6.504809   -0.834831    2.613622
    113          1           0       -6.980940   -2.373480    1.811235
    114          1           0       -6.631530   -0.688917   -0.440661
    115          1           0       -7.560391    1.511259    0.456492
    116          1           0       -5.766153    1.087643    0.481953
    117          1           0       -6.824041    1.166031    1.970953
    118          1           0       -9.123591   -0.237652    1.182466
    119          1           0       -8.797014   -1.837463    0.524231
    120          1           0       -9.615652   -1.274988   -1.404926
    121          1           0       -8.321708   -0.097518   -1.562826
    122          1           0       -9.893353    1.641363   -1.455874
    123          1           0      -10.437878    1.124265    0.127818
    124          1           0      -11.590033   -0.858414   -0.904523
    125          1           0      -11.389532   -1.371471   -2.840303
    126          1           0      -10.722117    0.242511   -3.381068
    127          1           0      -12.394066   -0.030294   -3.325833
    128          1           0      -12.496759    1.909624   -1.866404
    129          1           0      -12.474662    1.645407   -0.135672
    130          1           0      -14.101399   -0.294264   -1.873621
    131          1           0      -14.759192    1.301819   -1.587128
    132          1           0      -13.708097   -0.327036    0.740007
    133          1           0      -15.158255   -0.905121    0.014785
    134          1           0      -15.379671    2.044561    0.400051
    135          1           0      -15.128529    2.456836    2.470557
    136          1           0      -13.628194    1.541465    2.142872
    137          1           0      -14.981640    0.820509    3.128778
    138          1           0      -17.026770    0.718495    2.316962
    139          1           0      -17.093319   -0.260509    0.827243
    140          1           0      -17.478709    1.430832    0.772321
 ---------------------------------------------------------------------

 SCF Done:  E(RCAM-B3LYP) =  -3007.15511905     A.U. after   17 cycles

 Excitation energies and oscillator strengths:

 Excited State   1:      Singlet-A      1.7466 eV  709.87 nm  f=0.3501  <S**2>=0.000
     245 -> 248       -0.19408
     246 -> 247        0.68078
     245 <- 248       -0.10956
 This state for optimization and/or second-order correction.
 Total Energy, E(TD-HF/TD-DFT) =  -3007.09093375
 Copying the excited state density for this state as the 1-particle RhoCI density.

 Excited State   2:      Singlet-A      2.2378 eV  554.04 nm  f=0.1031  <S**2>=0.000
     245 -> 247        0.63503
     246 -> 248        0.29958

 Excited State   3:      Singlet-A      3.4655 eV  357.77 nm  f=0.1248  <S**2>=0.000
     243 -> 247        0.56410
     245 -> 247       -0.13485
     246 -> 248        0.35006

 Excited State   4:      Singlet-A      3.5447 eV  349.78 nm  f=0.3152  <S**2>=0.000
     242 -> 247        0.43208
     243 -> 247        0.27165
     245 -> 247        0.19165
     246 -> 248       -0.42787

 Excited State   5:      Singlet-A      3.6563 eV  339.09 nm  f=0.1908  <S**2>=0.000
     239 -> 247       -0.14801
     240 -> 247       -0.32100
     240 -> 249       -0.21332
     240 -> 251        0.16594
     242 -> 247        0.36332
     243 -> 247       -0.17032
     245 -> 247       -0.13707
     246 -> 248        0.21266

 The electronic state is 1-A.
 Alpha  occ. eigenvalues --  -46.90501 -19.26099 -19.24139 -19.20135 -19.20077
 Alpha  occ. eigenvalues --  -19.19638 -19.19109 -14.42360 -14.41947 -14.40620
 Alpha  occ. eigenvalues --  -14.39576 -10.40045 -10.40022 -10.35882 -10.35375
 Alpha  occ. eigenvalues --  -10.32924 -10.32009 -10.31925 -10.31239 -10.30949
 Alpha  occ. eigenvalues --  -10.30677 -10.30620 -10.30330 -10.29961 -10.29676
 Alpha  occ. eigenvalues --  -10.29633 -10.29372 -10.29031 -10.28643 -10.28623
 Alpha  occ. eigenvalues --  -10.28434 -10.28194 -10.28161 -10.28081 -10.28023
 Alpha  occ. eigenvalues --  -10.27882 -10.27851 -10.27819 -10.27812 -10.27113
 Alpha  occ. eigenvalues --  -10.26431 -10.26390 -10.26346 -10.26319 -10.26284
 Alpha  occ. eigenvalues --  -10.26272 -10.26019 -10.25982 -10.25697 -10.25168
 Alpha  occ. eigenvalues --  -10.25109 -10.24515 -10.24510 -10.24483 -10.24480
 Alpha  occ. eigenvalues --  -10.24450 -10.24333 -10.24282 -10.24225 -10.24202
 Alpha  occ. eigenvalues --  -10.24142 -10.24041 -10.23969 -10.23898 -10.23723
 Alpha  occ. eigenvalues --  -10.23620  -3.18864  -1.93727  -1.93339  -1.93154
 Alpha  occ. eigenvalues --   -1.16516  -1.14920  -1.11573  -1.10749  -1.07112
 Alpha  occ. eigenvalues --   -1.06548  -1.04922  -1.03992  -1.03060  -1.01995
 Alpha  occ. eigenvalues --   -0.92636  -0.90561  -0.90143  -0.89734  -0.88429
 Alpha  occ. eigenvalues --   -0.88324  -0.87815  -0.87469  -0.87406  -0.86251
 Alpha  occ. eigenvalues --   -0.85870  -0.85746  -0.84471  -0.83745  -0.83374
 Alpha  occ. eigenvalues --   -0.82178  -0.81959  -0.81373  -0.80667  -0.80372
 Alpha  occ. eigenvalues --   -0.79424  -0.78192  -0.77535  -0.77292  -0.76554
 Alpha  occ. eigenvalues --   -0.75716  -0.75506  -0.75345  -0.74648  -0.73826
 Alpha  occ. eigenvalues --   -0.73080  -0.72634  -0.72041  -0.70279  -0.69735
 Alpha  occ. eigenvalues --   -0.68609  -0.68123  -0.67397  -0.66243  -0.65975
 Alpha  occ. eigenvalues --   -0.65569  -0.64928  -0.64803  -0.64283  -0.63803
 Alpha  occ. eigenvalues --   -0.63488  -0.63103  -0.62366  -0.62205  -0.60125
 Alpha  occ. eigenvalues --   -0.59711  -0.59463  -0.59218  -0.58374  -0.58013
 Alpha  occ. eigenvalues --   -0.57450  -0.57154  -0.56512  -0.56298  -0.55894
 Alpha  occ. eigenvalues --   -0.55585  -0.55313  -0.54459  -0.54366  -0.53762
 Alpha  occ. eigenvalues --   -0.53675  -0.53220  -0.53135  -0.53018  -0.52819
 Alpha  occ. eigenvalues --   -0.52515  -0.52043  -0.51822  -0.51649  -0.51518
 Alpha  occ. eigenvalues --   -0.51470  -0.51167  -0.51077  -0.50734  -0.50534
 Alpha  occ. eigenvalues --   -0.50462  -0.50240  -0.50037  -0.49854  -0.49816
 Alpha  occ. eigenvalues --   -0.49655  -0.49622  -0.49066  -0.49010  -0.48759
 Alpha  occ. eigenvalues --   -0.48455  -0.48404  -0.48162  -0.47948  -0.47486
 Alpha  occ. eigenvalues --   -0.47383  -0.47283  -0.47061  -0.46889  -0.46703
 Alpha  occ. eigenvalues --   -0.46461  -0.46316  -0.46067  -0.45776  -0.45543
 Alpha  occ. eigenvalues --   -0.45467  -0.45313  -0.45300  -0.45068  -0.44843
 Alpha  occ. eigenvalues --   -0.44644  -0.44340  -0.44300  -0.44026  -0.43992
 Alpha  occ. eigenvalues --   -0.43697  -0.43525  -0.43463  -0.43392  -0.43335
 Alpha  occ. eigenvalues --   -0.43071  -0.42744  -0.42509  -0.42307  -0.42247
 Alpha  occ. eigenvalues --   -0.42127  -0.42070  -0.41844  -0.41775  -0.41310
 Alpha  occ. eigenvalues --   -0.41273  -0.40874  -0.40624  -0.40358  -0.39980
 Alpha  occ. eigenvalues --   -0.39869  -0.39517  -0.39178  -0.38859  -0.38735
 Alpha  occ. eigenvalues --   -0.38507  -0.38406  -0.38202  -0.37435  -0.37309
 Alpha  occ. eigenvalues --   -0.37216  -0.36963  -0.36878  -0.36598  -0.36304
 Alpha  occ. eigenvalues --   -0.35776  -0.35544  -0.34831  -0.34811  -0.34488
 Alpha  occ. eigenvalues --   -0.34218  -0.33254  -0.32748  -0.31466  -0.31286
 Alpha  occ. eigenvalues --   -0.30997  -0.30696  -0.29826  -0.27991  -0.24145
 Alpha  occ. eigenvalues --   -0.21497
 Alpha virt. eigenvalues --   -0.08737  -0.02182  -0.00003   0.00677   0.01915
 Alpha virt. eigenvalues --    0.04378   0.04734   0.05381   0.06397   0.06794
 Alpha virt. eigenvalues --    0.07657   0.08136   0.08422   0.08837   0.09247

 Mulliken charges:
               1
     1  Mg   0.822137
     2  C    0.139575
     3  C   -0.072850
     4  C   -0.087837
     5  C   -0.078949
     6  N   -0.220796
     7  C   -0.138092
     8  C    0.060458
     9  C   -0.055470
    10  C   -0.015957
    11  C    0.063209
    12  C    0.081552
    13  C    0.034504
    14  C    0.175836
    15  O   -0.245779
    16  O   -0.354147
    17  N   -0.372650
    18  C    0.163215
    19  C   -0.137001
    20  C   -0.058376
    21  C    0.190627
    22  C    0.093455
    23  C   -0.010211
    24  O   -0.167924
    25  C    0.051751
    26  N   -0.300503
    27  C   -0.020921
    28  C   -0.011993
    29  C   -0.040295
    30  C    0.045001
    31  C    0.054989
    32  C    0.036332
    33  C   -0.036945
    34  N   -0.352455
    35  C    0.125291
    36  C   -0.196459
    37  C    0.023283
    38  C    0.043222
    39  C    0.117904
    40  C    0.063962
    41  O   -0.136888
    42  C   -0.140496
    43  C    0.228900
    44  O   -0.236699
    45  O   -0.323116
    46  C    0.183159
    47  C    0.305492
    48  C   -0.119798
    49  C   -0.231108
    50  C    0.077660
    51  C    0.068910
    52  C    0.055915
    53  C    0.058985
    54  C   -0.172838
    55  C    0.057544
    56  C    0.075869
    57  C    0.023078
    58  C    0.040253
    59  C   -0.160193
    60  C    0.059854
    61  C    0.063481
    62  C    0.024884
    63  C    0.061915
    64  C   -0.157621
    65  C    0.031935
    66  C    0.042755
    67  H   -0.016733
    68  H   -0.048127
    69  H   -0.045391
    70  H    0.003317
    71  H    0.005853
    72  H    0.003704
    73  H    0.029413
    74  H    0.004630
    75  H    0.011061
    76  H    0.032931
    77  H    0.061813
    78  H    0.049406
    79  H    0.040304
    80  H    0.006133
    81  H    0.032142
    82  H    0.019594
    83  H    0.059959
    84  H    0.032441
    85  H    0.026192
    86  H    0.015808
    87  H    0.028368
    88  H    0.026068
    89  H    0.028514
    90  H    0.025724
    91  H    0.019124
    92  H    0.017300
    93  H    0.020830
    94  H    0.021783
    95  H    0.015926
    96  H    0.030009
    97  H    0.034386
    98  H    0.054616
    99  H    0.031404
   100  H    0.038422
   101  H    0.027578
   102  H    0.014379
   103  H    0.027655
   104  H   -0.003888
   105  H    0.011799
   106  H    0.025104
   107  H    0.041375
   108  H    0.006352
   109  H   -0.012520
   110  H    0.021788
   111  H    0.001446
   112  H    0.000460
   113  H   -0.008580
   114  H   -0.002279
   115  H    0.005245
   116  H    0.011468
   117  H    0.006899
   118  H   -0.012834
   119  H   -0.020394
   120  H   -0.002398
   121  H   -0.013753
   122  H   -0.003900
   123  H   -0.005304
   124  H   -0.009059
   125  H    0.009973
   126  H    0.000447
   127  H    0.002496
   128  H   -0.013929
   129  H   -0.011854
   130  H   -0.013369
   131  H   -0.002713
   132  H   -0.012086
   133  H   -0.010095
   134  H    0.000978
   135  H    0.003477
   136  H    0.003616
   137  H    0.015810
   138  H    0.005382
   139  H    0.003842
   140  H    0.001941
 Sum of Mulliken charges =  -0.00000

 Dipole moment (field-independent basis, Debye):
    X=              0.5637    Y=              5.9954    Z=              0.6288  Tot=              6.0546
 Quadrupole moment (field-independent basis, Debye-Ang):
   XX=           -402.5824   YY=           -433.3665   ZZ=           -386.4942
   XY=             61.4026   XZ=             -7.5821   YZ=             21.0225

 Normal termination of Gaussian 16 at Wed May  4 15:37:25 2022.
