 Gaussian 16, Revision A.03,
 Gaussian 16:  ES64L-G16RevA.03 25-Dec-2016

 ---------------------------------
 #p PBE1PBE/Def2SVP td=(nstates=5)
 ---------------------------------

 --------------------------------------------------
 step_1_chromophore_2 TDDFT with PBE1PBE functional
 --------------------------------------------------
 Symbolic Z-matrix:
 Charge =  0 Multiplicity = 1

                         Standard orientation:
 ---------------------------------------------------------------------
 Center     Atomic      Atomic             Coordinates (Angstroms)
 Number     Number       Type             X           Y           Z
 ---------------------------------------------------------------------
      1         12           0        4.621727    1.187734   -0.560220
      2          6           0        5.073215   -2.282883   -0.607687
      3          6           0        1.804017    0.616833   -2.482525
      4          6           0        3.909503    4.437048   -0.283279
      5          6           0        6.959380    1.434564    2.027219
      6          7           0        3.434310   -0.794825   -1.300099
      7          6           0        3.908931   -2.055149   -1.286197
      8          6           0        3.000692   -3.050236   -1.967762
      9          6           0        2.157070   -1.996262   -2.781378
     10          6           0        2.405292   -0.627807   -2.155237
     11          6           0        2.639929   -1.955972   -4.255833
     12          6           0        2.314704   -3.969440   -0.949203
     13          6           0        1.807012   -3.390144    0.387639
     14          6           0        0.379487   -3.758260    0.774353
     15          8           0       -0.486634   -4.361398    0.107660
     16          8           0        0.121874   -3.389347    2.109025
     17          7           0        3.103664    2.356472   -1.277359
     18          6           0        2.124761    1.939698   -2.140010
     19          6           0        1.553065    3.113446   -2.812768
     20          6           0        2.027814    4.277574   -2.085940
     21          6           0        3.067404    3.698354   -1.181403
     22          6           0        0.359748    3.012856   -3.838232
     23          6           0        1.548963    5.722189   -2.249831
     24          8           0        0.795041    6.019042   -3.134272
     25          6           0        2.059456    6.791942   -1.328148
     26          7           0        5.231220    2.678745    0.899559
     27          6           0        4.882455    4.033680    0.748373
     28          6           0        5.611874    4.981160    1.792173
     29          6           0        6.639818    3.958996    2.475625
     30          6           0        6.291968    2.591521    1.727331
     31          6           0        6.294100    6.355662    1.305220
     32          6           0        6.610806    3.839422    4.067430
     33          6           0        8.085132    3.547674    4.639490
     34          7           0        5.860724   -0.112831    0.507896
     35          6           0        6.819326    0.152001    1.464735
     36          6           0        7.528701   -1.080795    1.784540
     37          6           0        6.961133   -2.095351    0.971215
     38          6           0        5.880289   -1.462282    0.257675
     39          6           0        8.749437   -1.213423    2.656947
     40          6           0        6.898999   -3.547119    0.601988
     41          8           0        7.486751   -4.498270    1.066703
     42          6           0        5.719786   -3.655362   -0.455671
     43          6           0        6.335295   -4.152835   -1.734628
     44          8           0        6.662339   -5.348833   -1.938176
     45          8           0        6.340120   -3.133619   -2.675873
     46          6           0        6.682697   -3.525355   -4.002220
     47          6           0       -1.151125   -3.771013    2.669158
     48          6           0       -2.113962   -2.729680    2.265555
     49          6           0       -3.248146   -2.486375    2.959516
     50          6           0       -3.641715   -3.135012    4.312479
     51          6           0       -4.090275   -1.343998    2.467772
     52          6           0       -4.999572   -1.842837    1.321060
     53          6           0       -6.416958   -1.445744    1.713970
     54          6           0       -7.040057   -0.537923    0.557528
     55          6           0       -6.755924    0.930740    0.909297
     56          6           0       -8.566310   -0.777678    0.417020
     57          6           0       -9.143840   -0.418592   -0.924554
     58          6           0      -10.201845    0.772017   -0.876301
     59          6           0      -11.501010    0.126200   -1.362820
     60          6           0      -11.476056   -0.285490   -2.796802
     61          6           0      -12.591653    1.143889   -1.096369
     62          6           0      -14.057388    0.562696   -1.200401
     63          6           0      -14.564942   -0.000645    0.151151
     64          6           0      -15.349294    1.097291    0.938061
     65          6           0      -14.704929    1.467991    2.296446
     66          6           0      -16.816837    0.707151    1.246752
     67          1           0        0.967587    0.449329   -3.164400
     68          1           0        3.907894    5.528856   -0.253908
     69          1           0        7.819349    1.562436    2.688136
     70          1           0        3.532576   -3.633584   -2.719129
     71          1           0        1.076827   -2.129290   -2.821928
     72          1           0        2.515093   -0.922733   -4.580677
     73          1           0        2.118768   -2.705345   -4.849919
     74          1           0        3.701180   -2.083873   -4.471418
     75          1           0        3.076661   -4.685781   -0.643541
     76          1           0        1.498887   -4.485157   -1.455883
     77          1           0        1.818086   -2.302190    0.326604
     78          1           0        2.440341   -3.777486    1.185219
     79          1           0       -0.621492    2.851279   -3.391130
     80          1           0        0.560658    2.214701   -4.552933
     81          1           0        0.242944    3.853858   -4.520764
     82          1           0        1.523398    7.732629   -1.458206
     83          1           0        3.124534    6.990570   -1.449204
     84          1           0        1.744663    6.413363   -0.355322
     85          1           0        4.771698    5.195448    2.451624
     86          1           0        7.666935    4.194765    2.198654
     87          1           0        5.534808    7.133111    1.381328
     88          1           0        6.666685    6.277426    0.284242
     89          1           0        7.149717    6.561407    1.948734
     90          1           0        6.056336    2.955932    4.383630
     91          1           0        6.151170    4.718734    4.519377
     92          1           0        8.119034    2.591937    5.162638
     93          1           0        8.363366    4.334668    5.339827
     94          1           0        8.906149    3.404487    3.937819
     95          1           0        8.499704   -0.850639    3.653430
     96          1           0        9.554566   -0.598225    2.254629
     97          1           0        9.069258   -2.249289    2.768878
     98          1           0        5.109509   -4.476719   -0.080784
     99          1           0        6.560574   -2.673133   -4.670336
    100          1           0        6.146797   -4.427131   -4.298887
    101          1           0        7.748737   -3.726935   -4.106875
    102          1           0       -1.261840   -3.794065    3.753428
    103          1           0       -1.459371   -4.772556    2.367658
    104          1           0       -1.816022   -2.105242    1.423059
    105          1           0       -3.111573   -4.069959    4.494987
    106          1           0       -4.707854   -3.361127    4.304146
    107          1           0       -3.317392   -2.399192    5.047314
    108          1           0       -3.427169   -0.541270    2.144218
    109          1           0       -4.639828   -1.017230    3.349538
    110          1           0       -4.877790   -2.913493    1.156485
    111          1           0       -4.724763   -1.273884    0.433163
    112          1           0       -6.504809   -0.834831    2.613622
    113          1           0       -6.980940   -2.373480    1.811235
    114          1           0       -6.631530   -0.688917   -0.440661
    115          1           0       -7.560391    1.511259    0.456492
    116          1           0       -5.766153    1.087643    0.481953
    117          1           0       -6.824041    1.166031    1.970953
    118          1           0       -9.123591   -0.237652    1.182466
    119          1           0       -8.797014   -1.837463    0.524231
    120          1           0       -9.615652   -1.274988   -1.404926
    121          1           0       -8.321708   -0.097518   -1.562826
    122          1           0       -9.893353    1.641363   -1.455874
    123          1           0      -10.437878    1.124265    0.127818
    124          1           0      -11.590033   -0.858414   -0.904523
    125          1           0      -11.389532   -1.371471   -2.840303
    126          1           0      -10.722117    0.242511   -3.381068
    127          1           0      -12.394066   -0.030294   -3.325833
    128          1           0      -12.496759    1.909624   -1.866404
    129          1           0      -12.474662    1.645407   -0.135672
    130          1           0      -14.101399   -0.294264   -1.873621
    131          1           0      -14.759192    1.301819   -1.587128
    132          1           0      -13.708097   -0.327036    0.740007
    133          1           0      -15.158255   -0.905121    0.014785
    134          1           0      -15.379671    2.044561    0.400051
    135          1           0      -15.128529    2.456836    2.470557
    136          1           0      -13.628194    1.541465    2.142872
    137          1           0      -14.981640    0.820509    3.128778
    138          1           0      -17.026770    0.718495    2.316962
    139          1           0      -17.093319   -0.260509    0.827243
    140          1           0      -17.478709    1.430832    0.772321
 ---------------------------------------------------------------------

 SCF Done:  E(RPBE1PBE) =  -3005.34451030     A.U. after   15 cycles

 Excitation energies and oscillator strengths:

 Excited State   1:      Singlet-A      1.8965 eV  653.75 nm  f=0.3405  <S**2>=0.000
     245 -> 248       -0.18757
     246 -> 247        0.68746
 This state for optimization and/or second-order correction.
 Total Energy, E(TD-HF/TD-DFT) =  -3005.27481473
 Copying the excited state density for this state as the 1-particle RhoCI density.

 Excited State   2:      Singlet-A      2.2350 eV  554.74 nm  f=0.1040  <S**2>=0.000
     245 -> 247        0.64924
     246 -> 248        0.26890

 Excited State   3:      Singlet-A      2.8736 eV  431.46 nm  f=0.0000  <S**2>=0.000
     244 -> 247        0.70697

 Excited State   4:      Singlet-A      3.0755 eV  403.14 nm  f=0.0013  <S**2>=0.000
     241 -> 247        0.21626
     243 -> 247        0.63479
     246 -> 248        0.14646

 Excited State   5:      Singlet-A      3.1200 eV  397.39 nm  f=0.0002  <S**2>=0.000
     240 -> 247        0.15174
     242 -> 247        0.65420
     242 -> 249        0.12904
     242 -> 250       -0.10121

 The electronic state is 1-A.
 Alpha  occ. eigenvalues --  -46.93893 -19.26754 -19.24850 -19.20416 -19.20346
 Alpha  occ. eigenvalues --  -19.19974 -19.19179 -14.41957 -14.41334 -14.40154
 Alpha  occ. eigenvalues --  -14.39325 -10.37093 -10.37072 -10.33174 -10.32391
 Alpha  occ. eigenvalues --  -10.30577 -10.29394 -10.29215 -10.28844 -10.28534
 Alpha  occ. eigenvalues --  -10.28455 -10.28180 -10.28004 -10.27781 -10.27600
 Alpha  occ. eigenvalues --  -10.27297 -10.27133 -10.26942 -10.26428 -10.26343
 Alpha  occ. eigenvalues --  -10.26187 -10.26110 -10.25814 -10.25673 -10.25665
 Alpha  occ. eigenvalues --  -10.25564 -10.25555 -10.25371 -10.25271 -10.24760
 Alpha  occ. eigenvalues --  -10.24033 -10.23911 -10.23886 -10.23855 -10.23778
 Alpha  occ. eigenvalues --  -10.23655 -10.23594 -10.23520 -10.23367 -10.22835
 Alpha  occ. eigenvalues --  -10.22827 -10.22176 -10.22063 -10.22035 -10.22032
 Alpha  occ. eigenvalues --  -10.21998 -10.21919 -10.21866 -10.21771 -10.21701
 Alpha  occ. eigenvalues --  -10.21570 -10.21495 -10.21427 -10.21282 -10.21160
 Alpha  occ. eigenvalues --  -10.21109  -3.15840  -1.88640  -1.88233  -1.88051
 Alpha  occ. eigenvalues --   -1.11287  -1.09712  -1.06210  -1.05617  -1.01924
 Alpha  occ. eigenvalues --   -1.01398  -0.99475  -0.98538  -0.97782  -0.96728
 Alpha  occ. eigenvalues --   -0.87009  -0.84655  -0.84287  -0.83943  -0.82684
 Alpha  occ. eigenvalues --   -0.82425  -0.82078  -0.81802  -0.81516  -0.80625
 Alpha  occ. eigenvalues --   -0.80181  -0.79882  -0.78673  -0.77971  -0.77652
 Alpha  occ. eigenvalues --   -0.76321  -0.76140  -0.75620  -0.74998  -0.74646
 Alpha  occ. eigenvalues --   -0.73615  -0.72476  -0.71841  -0.71521  -0.70855
 Alpha  occ. eigenvalues --   -0.69988  -0.69723  -0.69441  -0.68728  -0.67979
 Alpha  occ. eigenvalues --   -0.67527  -0.66974  -0.66473  -0.64559  -0.64136
 Alpha  occ. eigenvalues --   -0.63078  -0.62384  -0.61779  -0.60512  -0.60414
 Alpha  occ. eigenvalues --   -0.59944  -0.59508  -0.59367  -0.58495  -0.58381
 Alpha  occ. eigenvalues --   -0.57613  -0.57272  -0.56863  -0.56376  -0.54656
 Alpha  occ. eigenvalues --   -0.54046  -0.54009  -0.53756  -0.53018  -0.52469
 Alpha  occ. eigenvalues --   -0.52039  -0.51542  -0.50965  -0.50815  -0.50459
 Alpha  occ. eigenvalues --   -0.50109  -0.49814  -0.48939  -0.48821  -0.48377
 Alpha  occ. eigenvalues --   -0.48235  -0.47812  -0.47591  -0.47446  -0.47312
 Alpha  occ. eigenvalues --   -0.46994  -0.46569  -0.46288  -0.46222  -0.46095
 Alpha  occ. eigenvalues --   -0.45965  -0.45736  -0.45615  -0.45407  -0.45084
 Alpha  occ. eigenvalues --   -0.45008  -0.44780  -0.44633  -0.44461  -0.44367
 Alpha  occ. eigenvalues --   -0.44209  -0.44148  -0.43692  -0.43620  -0.43425
 Alpha  occ. eigenvalues --   -0.43117  -0.42999  -0.42765  -0.42586  -0.42075
 Alpha  occ. eigenvalues --   -0.41992  -0.41946  -0.41703  -0.41512  -0.41365
 Alpha  occ. eigenvalues --   -0.41194  -0.41059  -0.40695  -0.40574  -0.40237
 Alpha  occ. eigenvalues --   -0.40165  -0.40072  -0.40004  -0.39673  -0.39634
 Alpha  occ. eigenvalues --   -0.39271  -0.39114  -0.39038  -0.38858  -0.38620
 Alpha  occ. eigenvalues --   -0.38451  -0.38257  -0.38203  -0.38181  -0.38059
 Alpha  occ. eigenvalues --   -0.37873  -0.37590  -0.37319  -0.37194  -0.37070
 Alpha  occ. eigenvalues --   -0.36936  -0.36864  -0.36709  -0.36567  -0.36207
 Alpha  occ. eigenvalues --   -0.36067  -0.35626  -0.35475  -0.35136  -0.34899
 Alpha  occ. eigenvalues --   -0.34582  -0.34339  -0.34262  -0.33816  -0.33534
 Alpha  occ. eigenvalues --   -0.33240  -0.33221  -0.33142  -0.32368  -0.32187
 Alpha  occ. eigenvalues --   -0.32042  -0.31813  -0.31770  -0.31631  -0.31162
 Alpha  occ. eigenvalues --   -0.30596  -0.30420  -0.29937  -0.29773  -0.29537
 Alpha  occ. eigenvalues --   -0.29002  -0.28776  -0.27753  -0.27018  -0.26266
 Alpha  occ. eigenvalues --   -0.26159  -0.25832  -0.25539  -0.23256  -0.21088
 Alpha  occ. eigenvalues --   -0.19131
 Alpha virt. eigenvalues --   -0.11260  -0.05636  -0.04227  -0.02488  -0.02070
 Alpha virt. eigenvalues --   -0.00215   0.00053   0.01057   0.02015   0.02911
 Alpha virt. eigenvalues --    0.03946   0.04420   0.04739   0.05586   0.05785

 Mulliken charges:
               1
     1  Mg   0.961298
     2  C    0.110020
     3  C   -0.073415
     4  C   -0.091884
     5  C   -0.075757
     6  N   -0.316958
     7  C   -0.060784
     8  C   -0.007945
     9  C   -0.140408
    10  C    0.032246
    11  C    0.006525
    12  C    0.031000
    13  C   -0.045337
    14  C    0.240386
    15  O   -0.276922
    16  O   -0.383696
    17  N   -0.490239
    18  C    0.179891
    19  C   -0.150822
    20  C   -0.103451
    21  C    0.209992
    22  C    0.033671
    23  C    0.041187
    24  O   -0.205329
    25  C   -0.027870
    26  N   -0.393809
    27  C    0.019420
    28  C   -0.083324
    29  C   -0.109416
    30  C    0.081214
    31  C   -0.008615
    32  C   -0.023438
    33  C   -0.109133
    34  N   -0.473565
    35  C    0.151661
    36  C   -0.219016
    37  C   -0.015082
    38  C    0.097107
    39  C    0.061437
    40  C    0.158032
    41  O   -0.180765
    42  C   -0.251095
    43  C    0.320674
    44  O   -0.270971
    45  O   -0.354224
    46  C    0.128403
    47  C    0.261410
    48  C   -0.120492
    49  C   -0.275484
    50  C    0.006790
    51  C    0.004144
    52  C   -0.002579
    53  C    0.002486
    54  C   -0.262740
    55  C    0.000351
    56  C    0.023684
    57  C   -0.041511
    58  C   -0.008718
    59  C   -0.250281
    60  C    0.006932
    61  C   -0.000744
    62  C   -0.042222
    63  C    0.010373
    64  C   -0.247109
    65  C   -0.033601
    66  C   -0.014654
    67  H    0.013919
    68  H   -0.010234
    69  H   -0.007907
    70  H    0.044220
    71  H    0.041762
    72  H    0.033664
    73  H    0.057021
    74  H    0.034306
    75  H    0.046849
    76  H    0.064585
    77  H    0.096883
    78  H    0.080358
    79  H    0.066597
    80  H    0.032226
    81  H    0.058728
    82  H    0.048037
    83  H    0.084054
    84  H    0.060605
    85  H    0.063542
    86  H    0.053756
    87  H    0.054896
    88  H    0.053425
    89  H    0.055946
    90  H    0.058388
    91  H    0.051161
    92  H    0.044236
    93  H    0.049638
    94  H    0.046325
    95  H    0.044440
    96  H    0.058299
    97  H    0.062551
    98  H    0.091541
    99  H    0.052968
   100  H    0.059469
   101  H    0.050587
   102  H    0.042088
   103  H    0.055111
   104  H    0.025973
   105  H    0.038487
   106  H    0.053622
   107  H    0.069466
   108  H    0.038656
   109  H    0.020846
   110  H    0.053695
   111  H    0.034614
   112  H    0.031292
   113  H    0.024232
   114  H    0.034387
   115  H    0.036191
   116  H    0.039542
   117  H    0.033348
   118  H    0.020247
   119  H    0.013332
   120  H    0.029528
   121  H    0.019464
   122  H    0.027259
   123  H    0.025913
   124  H    0.029730
   125  H    0.036481
   126  H    0.028645
   127  H    0.030515
   128  H    0.020261
   129  H    0.022724
   130  H    0.019863
   131  H    0.029656
   132  H    0.021605
   133  H    0.021503
   134  H    0.037677
   135  H    0.032628
   136  H    0.032113
   137  H    0.043143
   138  H    0.032075
   139  H    0.030567
   140  H    0.029747
 Sum of Mulliken charges =  -0.00000

 Dipole moment (field-independent basis, Debye):
    X=              0.8264    Y=              5.8698    Z=              0.8700  Tot=              5.9912
 Quadrupole moment (field-independent basis, Debye-Ang):
   XX=           -396.2152   YY=           -430.6533   ZZ=           -383.0294
   XY=             61.6271   XZ=             -5.5542   YZ=             22.0744

 Normal termination of Gaussian 16 at Wed May  4 16:01:44 2022.
