 Gaussian 16, Revision A.03,
 Gaussian 16:  ES64L-G16RevA.03 25-Dec-2016

 --------------------------------
 #p wB97XD/Def2SVP td=(nstates=5)
 --------------------------------

 -------------------------------------------------
 step_1_chromophore_2 TDDFT with wB97XD functional
 -------------------------------------------------
 Symbolic Z-matrix:
 Charge =  0 Multiplicity = 1

                         Standard orientation:
 ---------------------------------------------------------------------
 Center     Atomic      Atomic             Coordinates (Angstroms)
 Number     Number       Type             X           Y           Z
 ---------------------------------------------------------------------
      1         12           0        4.621727    1.187734   -0.560220
      2          6           0        5.073215   -2.282883   -0.607687
      3          6           0        1.804017    0.616833   -2.482525
      4          6           0        3.909503    4.437048   -0.283279
      5          6           0        6.959380    1.434564    2.027219
      6          7           0        3.434310   -0.794825   -1.300099
      7          6           0        3.908931   -2.055149   -1.286197
      8          6           0        3.000692   -3.050236   -1.967762
      9          6           0        2.157070   -1.996262   -2.781378
     10          6           0        2.405292   -0.627807   -2.155237
     11          6           0        2.639929   -1.955972   -4.255833
     12          6           0        2.314704   -3.969440   -0.949203
     13          6           0        1.807012   -3.390144    0.387639
     14          6           0        0.379487   -3.758260    0.774353
     15          8           0       -0.486634   -4.361398    0.107660
     16          8           0        0.121874   -3.389347    2.109025
     17          7           0        3.103664    2.356472   -1.277359
     18          6           0        2.124761    1.939698   -2.140010
     19          6           0        1.553065    3.113446   -2.812768
     20          6           0        2.027814    4.277574   -2.085940
     21          6           0        3.067404    3.698354   -1.181403
     22          6           0        0.359748    3.012856   -3.838232
     23          6           0        1.548963    5.722189   -2.249831
     24          8           0        0.795041    6.019042   -3.134272
     25          6           0        2.059456    6.791942   -1.328148
     26          7           0        5.231220    2.678745    0.899559
     27          6           0        4.882455    4.033680    0.748373
     28          6           0        5.611874    4.981160    1.792173
     29          6           0        6.639818    3.958996    2.475625
     30          6           0        6.291968    2.591521    1.727331
     31          6           0        6.294100    6.355662    1.305220
     32          6           0        6.610806    3.839422    4.067430
     33          6           0        8.085132    3.547674    4.639490
     34          7           0        5.860724   -0.112831    0.507896
     35          6           0        6.819326    0.152001    1.464735
     36          6           0        7.528701   -1.080795    1.784540
     37          6           0        6.961133   -2.095351    0.971215
     38          6           0        5.880289   -1.462282    0.257675
     39          6           0        8.749437   -1.213423    2.656947
     40          6           0        6.898999   -3.547119    0.601988
     41          8           0        7.486751   -4.498270    1.066703
     42          6           0        5.719786   -3.655362   -0.455671
     43          6           0        6.335295   -4.152835   -1.734628
     44          8           0        6.662339   -5.348833   -1.938176
     45          8           0        6.340120   -3.133619   -2.675873
     46          6           0        6.682697   -3.525355   -4.002220
     47          6           0       -1.151125   -3.771013    2.669158
     48          6           0       -2.113962   -2.729680    2.265555
     49          6           0       -3.248146   -2.486375    2.959516
     50          6           0       -3.641715   -3.135012    4.312479
     51          6           0       -4.090275   -1.343998    2.467772
     52          6           0       -4.999572   -1.842837    1.321060
     53          6           0       -6.416958   -1.445744    1.713970
     54          6           0       -7.040057   -0.537923    0.557528
     55          6           0       -6.755924    0.930740    0.909297
     56          6           0       -8.566310   -0.777678    0.417020
     57          6           0       -9.143840   -0.418592   -0.924554
     58          6           0      -10.201845    0.772017   -0.876301
     59          6           0      -11.501010    0.126200   -1.362820
     60          6           0      -11.476056   -0.285490   -2.796802
     61          6           0      -12.591653    1.143889   -1.096369
     62          6           0      -14.057388    0.562696   -1.200401
     63          6           0      -14.564942   -0.000645    0.151151
     64          6           0      -15.349294    1.097291    0.938061
     65          6           0      -14.704929    1.467991    2.296446
     66          6           0      -16.816837    0.707151    1.246752
     67          1           0        0.967587    0.449329   -3.164400
     68          1           0        3.907894    5.528856   -0.253908
     69          1           0        7.819349    1.562436    2.688136
     70          1           0        3.532576   -3.633584   -2.719129
     71          1           0        1.076827   -2.129290   -2.821928
     72          1           0        2.515093   -0.922733   -4.580677
     73          1           0        2.118768   -2.705345   -4.849919
     74          1           0        3.701180   -2.083873   -4.471418
     75          1           0        3.076661   -4.685781   -0.643541
     76          1           0        1.498887   -4.485157   -1.455883
     77          1           0        1.818086   -2.302190    0.326604
     78          1           0        2.440341   -3.777486    1.185219
     79          1           0       -0.621492    2.851279   -3.391130
     80          1           0        0.560658    2.214701   -4.552933
     81          1           0        0.242944    3.853858   -4.520764
     82          1           0        1.523398    7.732629   -1.458206
     83          1           0        3.124534    6.990570   -1.449204
     84          1           0        1.744663    6.413363   -0.355322
     85          1           0        4.771698    5.195448    2.451624
     86          1           0        7.666935    4.194765    2.198654
     87          1           0        5.534808    7.133111    1.381328
     88          1           0        6.666685    6.277426    0.284242
     89          1           0        7.149717    6.561407    1.948734
     90          1           0        6.056336    2.955932    4.383630
     91          1           0        6.151170    4.718734    4.519377
     92          1           0        8.119034    2.591937    5.162638
     93          1           0        8.363366    4.334668    5.339827
     94          1           0        8.906149    3.404487    3.937819
     95          1           0        8.499704   -0.850639    3.653430
     96          1           0        9.554566   -0.598225    2.254629
     97          1           0        9.069258   -2.249289    2.768878
     98          1           0        5.109509   -4.476719   -0.080784
     99          1           0        6.560574   -2.673133   -4.670336
    100          1           0        6.146797   -4.427131   -4.298887
    101          1           0        7.748737   -3.726935   -4.106875
    102          1           0       -1.261840   -3.794065    3.753428
    103          1           0       -1.459371   -4.772556    2.367658
    104          1           0       -1.816022   -2.105242    1.423059
    105          1           0       -3.111573   -4.069959    4.494987
    106          1           0       -4.707854   -3.361127    4.304146
    107          1           0       -3.317392   -2.399192    5.047314
    108          1           0       -3.427169   -0.541270    2.144218
    109          1           0       -4.639828   -1.017230    3.349538
    110          1           0       -4.877790   -2.913493    1.156485
    111          1           0       -4.724763   -1.273884    0.433163
    112          1           0       -6.504809   -0.834831    2.613622
    113          1           0       -6.980940   -2.373480    1.811235
    114          1           0       -6.631530   -0.688917   -0.440661
    115          1           0       -7.560391    1.511259    0.456492
    116          1           0       -5.766153    1.087643    0.481953
    117          1           0       -6.824041    1.166031    1.970953
    118          1           0       -9.123591   -0.237652    1.182466
    119          1           0       -8.797014   -1.837463    0.524231
    120          1           0       -9.615652   -1.274988   -1.404926
    121          1           0       -8.321708   -0.097518   -1.562826
    122          1           0       -9.893353    1.641363   -1.455874
    123          1           0      -10.437878    1.124265    0.127818
    124          1           0      -11.590033   -0.858414   -0.904523
    125          1           0      -11.389532   -1.371471   -2.840303
    126          1           0      -10.722117    0.242511   -3.381068
    127          1           0      -12.394066   -0.030294   -3.325833
    128          1           0      -12.496759    1.909624   -1.866404
    129          1           0      -12.474662    1.645407   -0.135672
    130          1           0      -14.101399   -0.294264   -1.873621
    131          1           0      -14.759192    1.301819   -1.587128
    132          1           0      -13.708097   -0.327036    0.740007
    133          1           0      -15.158255   -0.905121    0.014785
    134          1           0      -15.379671    2.044561    0.400051
    135          1           0      -15.128529    2.456836    2.470557
    136          1           0      -13.628194    1.541465    2.142872
    137          1           0      -14.981640    0.820509    3.128778
    138          1           0      -17.026770    0.718495    2.316962
    139          1           0      -17.093319   -0.260509    0.827243
    140          1           0      -17.478709    1.430832    0.772321
 ---------------------------------------------------------------------

 SCF Done:  E(RwB97XD) =  -3007.85629352     A.U. after   17 cycles

 Excitation energies and oscillator strengths:

 Excited State   1:      Singlet-A      1.6941 eV  731.88 nm  f=0.3487  <S**2>=0.000
     245 -> 248       -0.19917
     246 -> 247        0.67873
     245 <- 248       -0.11869
 This state for optimization and/or second-order correction.
 Total Energy, E(TD-HF/TD-DFT) =  -3007.79403788
 Copying the excited state density for this state as the 1-particle RhoCI density.

 Excited State   2:      Singlet-A      2.1844 eV  567.58 nm  f=0.1006  <S**2>=0.000
     245 -> 247        0.63315
     246 -> 248        0.30142

 Excited State   3:      Singlet-A      3.4900 eV  355.25 nm  f=0.1764  <S**2>=0.000
     243 -> 247        0.52925
     243 -> 249       -0.10465
     245 -> 247       -0.15627
     246 -> 248        0.39526

 Excited State   4:      Singlet-A      3.5609 eV  348.18 nm  f=0.2618  <S**2>=0.000
     240 -> 247        0.14326
     242 -> 247        0.44317
     243 -> 247        0.29599
     245 -> 247        0.16885
     246 -> 248       -0.38360

 Excited State   5:      Singlet-A      3.6715 eV  337.69 nm  f=0.0850  <S**2>=0.000
     240 -> 247        0.39411
     240 -> 248        0.11591
     240 -> 249        0.26164
     240 -> 251        0.19220
     242 -> 247       -0.31303
     242 -> 249       -0.14124
     243 -> 247        0.13696
     246 -> 248       -0.14023

 The electronic state is 1-A.
 Alpha  occ. eigenvalues --  -46.96847 -19.31307 -19.29395 -19.25076 -19.25051
 Alpha  occ. eigenvalues --  -19.24662 -19.24145 -14.46942 -14.46549 -14.45229
 Alpha  occ. eigenvalues --  -14.44145 -10.43920 -10.43844 -10.39902 -10.39357
 Alpha  occ. eigenvalues --  -10.37049 -10.36046 -10.35734 -10.35296 -10.35061
 Alpha  occ. eigenvalues --  -10.34649 -10.34477 -10.34320 -10.34032 -10.33885
 Alpha  occ. eigenvalues --  -10.33652 -10.33357 -10.33093 -10.32711 -10.32696
 Alpha  occ. eigenvalues --  -10.32492 -10.32254 -10.32236 -10.32155 -10.32098
 Alpha  occ. eigenvalues --  -10.31994 -10.31915 -10.31795 -10.31691 -10.31103
 Alpha  occ. eigenvalues --  -10.30332 -10.30331 -10.30248 -10.30219 -10.30181
 Alpha  occ. eigenvalues --  -10.30170 -10.30028 -10.29856 -10.29679 -10.29113
 Alpha  occ. eigenvalues --  -10.29097 -10.28466 -10.28437 -10.28416 -10.28392
 Alpha  occ. eigenvalues --  -10.28366 -10.28284 -10.28221 -10.28135 -10.28073
 Alpha  occ. eigenvalues --  -10.28023 -10.27872 -10.27862 -10.27704 -10.27556
 Alpha  occ. eigenvalues --  -10.27533  -3.22691  -1.96235  -1.95825  -1.95641
 Alpha  occ. eigenvalues --   -1.18689  -1.17091  -1.13819  -1.12975  -1.09311
 Alpha  occ. eigenvalues --   -1.08745  -1.06934  -1.06069  -1.05048  -1.04004
 Alpha  occ. eigenvalues --   -0.94590  -0.92323  -0.91943  -0.91583  -0.90392
 Alpha  occ. eigenvalues --   -0.90099  -0.89661  -0.89376  -0.89181  -0.88171
 Alpha  occ. eigenvalues --   -0.87773  -0.87744  -0.86337  -0.85642  -0.85254
 Alpha  occ. eigenvalues --   -0.84029  -0.83873  -0.83275  -0.82620  -0.82274
 Alpha  occ. eigenvalues --   -0.81268  -0.80090  -0.79486  -0.79243  -0.78466
 Alpha  occ. eigenvalues --   -0.77623  -0.77395  -0.77142  -0.76434  -0.75656
 Alpha  occ. eigenvalues --   -0.75043  -0.74577  -0.74029  -0.72196  -0.71652
 Alpha  occ. eigenvalues --   -0.70603  -0.70012  -0.69431  -0.68127  -0.67902
 Alpha  occ. eigenvalues --   -0.67509  -0.66940  -0.66809  -0.66141  -0.65777
 Alpha  occ. eigenvalues --   -0.65296  -0.64926  -0.64333  -0.64022  -0.62172
 Alpha  occ. eigenvalues --   -0.61581  -0.61428  -0.61220  -0.60352  -0.59922
 Alpha  occ. eigenvalues --   -0.59448  -0.59044  -0.58423  -0.58300  -0.57829
 Alpha  occ. eigenvalues --   -0.57516  -0.57237  -0.56320  -0.56290  -0.55662
 Alpha  occ. eigenvalues --   -0.55660  -0.55154  -0.55084  -0.54930  -0.54748
 Alpha  occ. eigenvalues --   -0.54400  -0.53975  -0.53693  -0.53608  -0.53426
 Alpha  occ. eigenvalues --   -0.53354  -0.53048  -0.52988  -0.52648  -0.52493
 Alpha  occ. eigenvalues --   -0.52345  -0.52128  -0.51992  -0.51815  -0.51751
 Alpha  occ. eigenvalues --   -0.51558  -0.51510  -0.50982  -0.50934  -0.50660
 Alpha  occ. eigenvalues --   -0.50364  -0.50286  -0.50032  -0.49842  -0.49450
 Alpha  occ. eigenvalues --   -0.49261  -0.49197  -0.48989  -0.48822  -0.48620
 Alpha  occ. eigenvalues --   -0.48392  -0.48235  -0.47932  -0.47710  -0.47414
 Alpha  occ. eigenvalues --   -0.47385  -0.47251  -0.47195  -0.46918  -0.46768
 Alpha  occ. eigenvalues --   -0.46501  -0.46268  -0.46230  -0.45956  -0.45845
 Alpha  occ. eigenvalues --   -0.45629  -0.45466  -0.45376  -0.45340  -0.45295
 Alpha  occ. eigenvalues --   -0.45007  -0.44668  -0.44403  -0.44310  -0.44186
 Alpha  occ. eigenvalues --   -0.44027  -0.43964  -0.43741  -0.43672  -0.43197
 Alpha  occ. eigenvalues --   -0.43173  -0.42732  -0.42516  -0.42228  -0.41876
 Alpha  occ. eigenvalues --   -0.41712  -0.41388  -0.41085  -0.40767  -0.40577
 Alpha  occ. eigenvalues --   -0.40334  -0.40227  -0.40162  -0.39465  -0.39274
 Alpha  occ. eigenvalues --   -0.39071  -0.38887  -0.38824  -0.38518  -0.38181
 Alpha  occ. eigenvalues --   -0.37618  -0.37387  -0.36800  -0.36718  -0.36498
 Alpha  occ. eigenvalues --   -0.36117  -0.35480  -0.34597  -0.33654  -0.33302
 Alpha  occ. eigenvalues --   -0.33021  -0.32900  -0.31953  -0.29991  -0.26068
 Alpha  occ. eigenvalues --   -0.23316
 Alpha virt. eigenvalues --   -0.07088  -0.00281   0.02086   0.03845   0.04054
 Alpha virt. eigenvalues --    0.06586   0.06946   0.07805   0.08727   0.09486
 Alpha virt. eigenvalues --    0.10507   0.11069   0.11411   0.12351   0.12537

 Mulliken charges:
               1
     1  Mg   0.955586
     2  C    0.125257
     3  C   -0.087319
     4  C   -0.102408
     5  C   -0.086420
     6  N   -0.281134
     7  C   -0.102483
     8  C    0.019981
     9  C   -0.115878
    10  C    0.014419
    11  C    0.017677
    12  C    0.041878
    13  C   -0.025428
    14  C    0.230304
    15  O   -0.274467
    16  O   -0.383850
    17  N   -0.459017
    18  C    0.175531
    19  C   -0.148247
    20  C   -0.099786
    21  C    0.211743
    22  C    0.047892
    23  C    0.038372
    24  O   -0.200227
    25  C   -0.013032
    26  N   -0.367993
    27  C    0.007645
    28  C   -0.063016
    29  C   -0.084164
    30  C    0.069847
    31  C    0.004994
    32  C   -0.009996
    33  C   -0.094287
    34  N   -0.439400
    35  C    0.139142
    36  C   -0.213412
    37  C   -0.015608
    38  C    0.076853
    39  C    0.071651
    40  C    0.140045
    41  O   -0.172883
    42  C   -0.212651
    43  C    0.296531
    44  O   -0.266111
    45  O   -0.352296
    46  C    0.140958
    47  C    0.280249
    48  C   -0.136156
    49  C   -0.258709
    50  C    0.023723
    51  C    0.023211
    52  C    0.010383
    53  C    0.019287
    54  C   -0.228136
    55  C    0.011247
    56  C    0.038338
    57  C   -0.022202
    58  C    0.001813
    59  C   -0.211531
    60  C    0.008990
    61  C    0.022705
    62  C   -0.024227
    63  C    0.023598
    64  C   -0.221086
    65  C   -0.016433
    66  C   -0.003251
    67  H    0.008718
    68  H   -0.024721
    69  H   -0.020488
    70  H    0.030753
    71  H    0.034780
    72  H    0.024482
    73  H    0.052939
    74  H    0.027129
    75  H    0.035917
    76  H    0.058508
    77  H    0.085078
    78  H    0.075654
    79  H    0.063400
    80  H    0.026456
    81  H    0.056339
    82  H    0.047255
    83  H    0.080249
    84  H    0.053747
    85  H    0.053877
    86  H    0.040432
    87  H    0.049556
    88  H    0.047611
    89  H    0.050656
    90  H    0.049933
    91  H    0.044113
    92  H    0.038545
    93  H    0.044620
    94  H    0.040129
    95  H    0.037678
    96  H    0.052176
    97  H    0.059077
    98  H    0.083882
    99  H    0.049696
   100  H    0.055688
   101  H    0.046784
   102  H    0.035092
   103  H    0.050104
   104  H    0.021869
   105  H    0.032782
   106  H    0.047576
   107  H    0.063792
   108  H    0.032022
   109  H    0.009836
   110  H    0.046118
   111  H    0.024654
   112  H    0.019312
   113  H    0.016701
   114  H    0.020709
   115  H    0.026875
   116  H    0.033458
   117  H    0.027514
   118  H    0.009634
   119  H    0.004927
   120  H    0.019108
   121  H    0.009550
   122  H    0.020176
   123  H    0.014265
   124  H    0.014398
   125  H    0.031817
   126  H    0.023029
   127  H    0.023552
   128  H    0.010939
   129  H    0.008938
   130  H    0.010751
   131  H    0.021773
   132  H    0.010218
   133  H    0.014287
   134  H    0.025832
   135  H    0.025915
   136  H    0.024167
   137  H    0.036860
   138  H    0.025714
   139  H    0.024315
   140  H    0.024163
 Sum of Mulliken charges =  -0.00000

 Dipole moment (field-independent basis, Debye):
    X=              0.5131    Y=              6.1545    Z=              0.5334  Tot=              6.1989
 Quadrupole moment (field-independent basis, Debye-Ang):
   XX=           -398.9275   YY=           -429.5310   ZZ=           -382.4415
   XY=             62.1150   XZ=             -7.4310   YZ=             21.1859

 Normal termination of Gaussian 16 at Wed May  4 16:45:59 2022.
