 Gaussian 16, Revision A.03,
 Gaussian 16:  ES64L-G16RevA.03 25-Dec-2016

 --------------------
 #p ZINDO=(nstates=5)
 --------------------

 --------------------------
 step_1_chromophore_2 ZINDO
 --------------------------
 Symbolic Z-matrix:
 Charge =  0 Multiplicity = 1

                         Standard orientation:
 ---------------------------------------------------------------------
 Center     Atomic      Atomic             Coordinates (Angstroms)
 Number     Number       Type             X           Y           Z
 ---------------------------------------------------------------------
      1         12           0        4.621727    1.187734   -0.560220
      2          6           0        5.073215   -2.282883   -0.607687
      3          6           0        1.804017    0.616833   -2.482525
      4          6           0        3.909503    4.437048   -0.283279
      5          6           0        6.959380    1.434564    2.027219
      6          7           0        3.434310   -0.794825   -1.300099
      7          6           0        3.908931   -2.055149   -1.286197
      8          6           0        3.000692   -3.050236   -1.967762
      9          6           0        2.157070   -1.996262   -2.781378
     10          6           0        2.405292   -0.627807   -2.155237
     11          6           0        2.639929   -1.955972   -4.255833
     12          6           0        2.314704   -3.969440   -0.949203
     13          6           0        1.807012   -3.390144    0.387639
     14          6           0        0.379487   -3.758260    0.774353
     15          8           0       -0.486634   -4.361398    0.107660
     16          8           0        0.121874   -3.389347    2.109025
     17          7           0        3.103664    2.356472   -1.277359
     18          6           0        2.124761    1.939698   -2.140010
     19          6           0        1.553065    3.113446   -2.812768
     20          6           0        2.027814    4.277574   -2.085940
     21          6           0        3.067404    3.698354   -1.181403
     22          6           0        0.359748    3.012856   -3.838232
     23          6           0        1.548963    5.722189   -2.249831
     24          8           0        0.795041    6.019042   -3.134272
     25          6           0        2.059456    6.791942   -1.328148
     26          7           0        5.231220    2.678745    0.899559
     27          6           0        4.882455    4.033680    0.748373
     28          6           0        5.611874    4.981160    1.792173
     29          6           0        6.639818    3.958996    2.475625
     30          6           0        6.291968    2.591521    1.727331
     31          6           0        6.294100    6.355662    1.305220
     32          6           0        6.610806    3.839422    4.067430
     33          6           0        8.085132    3.547674    4.639490
     34          7           0        5.860724   -0.112831    0.507896
     35          6           0        6.819326    0.152001    1.464735
     36          6           0        7.528701   -1.080795    1.784540
     37          6           0        6.961133   -2.095351    0.971215
     38          6           0        5.880289   -1.462282    0.257675
     39          6           0        8.749437   -1.213423    2.656947
     40          6           0        6.898999   -3.547119    0.601988
     41          8           0        7.486751   -4.498270    1.066703
     42          6           0        5.719786   -3.655362   -0.455671
     43          6           0        6.335295   -4.152835   -1.734628
     44          8           0        6.662339   -5.348833   -1.938176
     45          8           0        6.340120   -3.133619   -2.675873
     46          6           0        6.682697   -3.525355   -4.002220
     47          6           0       -1.151125   -3.771013    2.669158
     48          6           0       -2.113962   -2.729680    2.265555
     49          6           0       -3.248146   -2.486375    2.959516
     50          6           0       -3.641715   -3.135012    4.312479
     51          6           0       -4.090275   -1.343998    2.467772
     52          6           0       -4.999572   -1.842837    1.321060
     53          6           0       -6.416958   -1.445744    1.713970
     54          6           0       -7.040057   -0.537923    0.557528
     55          6           0       -6.755924    0.930740    0.909297
     56          6           0       -8.566310   -0.777678    0.417020
     57          6           0       -9.143840   -0.418592   -0.924554
     58          6           0      -10.201845    0.772017   -0.876301
     59          6           0      -11.501010    0.126200   -1.362820
     60          6           0      -11.476056   -0.285490   -2.796802
     61          6           0      -12.591653    1.143889   -1.096369
     62          6           0      -14.057388    0.562696   -1.200401
     63          6           0      -14.564942   -0.000645    0.151151
     64          6           0      -15.349294    1.097291    0.938061
     65          6           0      -14.704929    1.467991    2.296446
     66          6           0      -16.816837    0.707151    1.246752
     67          1           0        0.967587    0.449329   -3.164400
     68          1           0        3.907894    5.528856   -0.253908
     69          1           0        7.819349    1.562436    2.688136
     70          1           0        3.532576   -3.633584   -2.719129
     71          1           0        1.076827   -2.129290   -2.821928
     72          1           0        2.515093   -0.922733   -4.580677
     73          1           0        2.118768   -2.705345   -4.849919
     74          1           0        3.701180   -2.083873   -4.471418
     75          1           0        3.076661   -4.685781   -0.643541
     76          1           0        1.498887   -4.485157   -1.455883
     77          1           0        1.818086   -2.302190    0.326604
     78          1           0        2.440341   -3.777486    1.185219
     79          1           0       -0.621492    2.851279   -3.391130
     80          1           0        0.560658    2.214701   -4.552933
     81          1           0        0.242944    3.853858   -4.520764
     82          1           0        1.523398    7.732629   -1.458206
     83          1           0        3.124534    6.990570   -1.449204
     84          1           0        1.744663    6.413363   -0.355322
     85          1           0        4.771698    5.195448    2.451624
     86          1           0        7.666935    4.194765    2.198654
     87          1           0        5.534808    7.133111    1.381328
     88          1           0        6.666685    6.277426    0.284242
     89          1           0        7.149717    6.561407    1.948734
     90          1           0        6.056336    2.955932    4.383630
     91          1           0        6.151170    4.718734    4.519377
     92          1           0        8.119034    2.591937    5.162638
     93          1           0        8.363366    4.334668    5.339827
     94          1           0        8.906149    3.404487    3.937819
     95          1           0        8.499704   -0.850639    3.653430
     96          1           0        9.554566   -0.598225    2.254629
     97          1           0        9.069258   -2.249289    2.768878
     98          1           0        5.109509   -4.476719   -0.080784
     99          1           0        6.560574   -2.673133   -4.670336
    100          1           0        6.146797   -4.427131   -4.298887
    101          1           0        7.748737   -3.726935   -4.106875
    102          1           0       -1.261840   -3.794065    3.753428
    103          1           0       -1.459371   -4.772556    2.367658
    104          1           0       -1.816022   -2.105242    1.423059
    105          1           0       -3.111573   -4.069959    4.494987
    106          1           0       -4.707854   -3.361127    4.304146
    107          1           0       -3.317392   -2.399192    5.047314
    108          1           0       -3.427169   -0.541270    2.144218
    109          1           0       -4.639828   -1.017230    3.349538
    110          1           0       -4.877790   -2.913493    1.156485
    111          1           0       -4.724763   -1.273884    0.433163
    112          1           0       -6.504809   -0.834831    2.613622
    113          1           0       -6.980940   -2.373480    1.811235
    114          1           0       -6.631530   -0.688917   -0.440661
    115          1           0       -7.560391    1.511259    0.456492
    116          1           0       -5.766153    1.087643    0.481953
    117          1           0       -6.824041    1.166031    1.970953
    118          1           0       -9.123591   -0.237652    1.182466
    119          1           0       -8.797014   -1.837463    0.524231
    120          1           0       -9.615652   -1.274988   -1.404926
    121          1           0       -8.321708   -0.097518   -1.562826
    122          1           0       -9.893353    1.641363   -1.455874
    123          1           0      -10.437878    1.124265    0.127818
    124          1           0      -11.590033   -0.858414   -0.904523
    125          1           0      -11.389532   -1.371471   -2.840303
    126          1           0      -10.722117    0.242511   -3.381068
    127          1           0      -12.394066   -0.030294   -3.325833
    128          1           0      -12.496759    1.909624   -1.866404
    129          1           0      -12.474662    1.645407   -0.135672
    130          1           0      -14.101399   -0.294264   -1.873621
    131          1           0      -14.759192    1.301819   -1.587128
    132          1           0      -13.708097   -0.327036    0.740007
    133          1           0      -15.158255   -0.905121    0.014785
    134          1           0      -15.379671    2.044561    0.400051
    135          1           0      -15.128529    2.456836    2.470557
    136          1           0      -13.628194    1.541465    2.142872
    137          1           0      -14.981640    0.820509    3.128778
    138          1           0      -17.026770    0.718495    2.316962
    139          1           0      -17.093319   -0.260509    0.827243
    140          1           0      -17.478709    1.430832    0.772321
 ---------------------------------------------------------------------

 SCF Done:  E(RZINDO/S) =  -474.025883414     A.U. after   20 cycles

 Excitation energies and oscillator strengths:

 Excited State   1:      Singlet-A      1.2818 eV  967.24 nm  f=0.5524  <S**2>=0.000
     175 ->178        -0.18718
     176 ->177         0.66432
 This state for optimization and/or second-order correction.
 Total Energy, E(CIS/TDA) =  -473.978776909
 Copying the excited state density for this state as the 1-particle RhoCI density.

 Excited State   2:      Singlet-A      1.8974 eV  653.44 nm  f=0.0282  <S**2>=0.000
     175 ->177         0.53514
     176 ->178         0.43389

 Excited State   3:      Singlet-A      2.9584 eV  419.09 nm  f=0.0976  <S**2>=0.000
     175 ->177         0.11482
     176 ->178        -0.14497
     176 ->180         0.66989

 Excited State   4:      Singlet-A      2.9982 eV  413.53 nm  f=0.8997  <S**2>=0.000
     168 ->179         0.11824
     175 ->177        -0.35403
     176 ->178         0.44277
     176 ->179        -0.22080
     176 ->180         0.14451

 Excited State   5:      Singlet-A      3.0139 eV  411.37 nm  f=0.1211  <S**2>=0.000
     168 ->177         0.26802
     168 ->178        -0.14641
     168 ->179        -0.34345
     168 ->181         0.22865
     168 ->183        -0.13356
     168 ->185        -0.24774
     171 ->177         0.10854
     175 ->177        -0.13487
     176 ->178         0.18188

 The electronic state is 1-A.
 Alpha  occ. eigenvalues --   -1.83892  -1.80448  -1.78020  -1.72595  -1.72068
 Alpha  occ. eigenvalues --   -1.69090  -1.67852  -1.62543  -1.61412  -1.58086
 Alpha  occ. eigenvalues --   -1.56480  -1.52529  -1.48980  -1.46840  -1.44620
 Alpha  occ. eigenvalues --   -1.44455  -1.41867  -1.39416  -1.38825  -1.38186
 Alpha  occ. eigenvalues --   -1.35591  -1.33008  -1.32770  -1.30554  -1.28482
 Alpha  occ. eigenvalues --   -1.26715  -1.25411  -1.22130  -1.20839  -1.17844
 Alpha  occ. eigenvalues --   -1.16490  -1.15720  -1.15075  -1.13703  -1.13469
 Alpha  occ. eigenvalues --   -1.11647  -1.10974  -1.10279  -1.05387  -1.04817
 Alpha  occ. eigenvalues --   -1.02012  -1.01486  -1.00119  -0.98441  -0.97378
 Alpha  occ. eigenvalues --   -0.96029  -0.94455  -0.92977  -0.92213  -0.91370
 Alpha  occ. eigenvalues --   -0.91024  -0.89358  -0.88724  -0.88450  -0.86910
 Alpha  occ. eigenvalues --   -0.86238  -0.84787  -0.83859  -0.83600  -0.80858
 Alpha  occ. eigenvalues --   -0.80161  -0.79073  -0.78093  -0.77483  -0.76996
 Alpha  occ. eigenvalues --   -0.76495  -0.76058  -0.75042  -0.74391  -0.73168
 Alpha  occ. eigenvalues --   -0.72849  -0.72751  -0.71650  -0.71401  -0.70940
 Alpha  occ. eigenvalues --   -0.70495  -0.69514  -0.69009  -0.68093  -0.67900
 Alpha  occ. eigenvalues --   -0.67165  -0.66834  -0.66460  -0.66362  -0.65715
 Alpha  occ. eigenvalues --   -0.65373  -0.64838  -0.64433  -0.64392  -0.63342
 Alpha  occ. eigenvalues --   -0.63300  -0.62710  -0.62584  -0.62457  -0.62078
 Alpha  occ. eigenvalues --   -0.61994  -0.61636  -0.61037  -0.60690  -0.59918
 Alpha  occ. eigenvalues --   -0.59795  -0.59350  -0.59048  -0.58481  -0.58188
 Alpha  occ. eigenvalues --   -0.57469  -0.57291  -0.57022  -0.56578  -0.56357
 Alpha  occ. eigenvalues --   -0.55931  -0.55885  -0.55772  -0.55374  -0.54808
 Alpha  occ. eigenvalues --   -0.54754  -0.54394  -0.54264  -0.53685  -0.53147
 Alpha  occ. eigenvalues --   -0.52657  -0.52254  -0.52086  -0.52031  -0.51635
 Alpha  occ. eigenvalues --   -0.51328  -0.51266  -0.50961  -0.50724  -0.50384
 Alpha  occ. eigenvalues --   -0.50177  -0.49702  -0.49373  -0.49020  -0.48788
 Alpha  occ. eigenvalues --   -0.48606  -0.48538  -0.48359  -0.48126  -0.47701
 Alpha  occ. eigenvalues --   -0.47613  -0.47400  -0.47345  -0.47025  -0.46943
 Alpha  occ. eigenvalues --   -0.46880  -0.46777  -0.46305  -0.45887  -0.45817
 Alpha  occ. eigenvalues --   -0.45519  -0.45056  -0.44556  -0.44501  -0.44448
 Alpha  occ. eigenvalues --   -0.44069  -0.43510  -0.43414  -0.43266  -0.42521
 Alpha  occ. eigenvalues --   -0.41575  -0.41202  -0.39641  -0.39591  -0.39298
 Alpha  occ. eigenvalues --   -0.38446  -0.37790  -0.36336  -0.35168  -0.34873
 Alpha  occ. eigenvalues --   -0.34333  -0.32948  -0.32296  -0.30532  -0.27045
 Alpha  occ. eigenvalues --   -0.22191
 Alpha virt. eigenvalues --   -0.08742  -0.02740  -0.00905   0.00247   0.00657
 Alpha virt. eigenvalues --    0.01254   0.02268   0.02518   0.04062   0.05429
 Alpha virt. eigenvalues --    0.05540   0.05990   0.06865   0.07130   0.07348

 Mulliken charges:
               1
     1  Mg   0.445952
     2  C   -0.034805
     3  C   -0.072132
     4  C   -0.114520
     5  C   -0.064620
     6  N   -0.299162
     7  C    0.111255
     8  C    0.010807
     9  C    0.014055
    10  C    0.151464
    11  C   -0.053228
    12  C   -0.020521
    13  C    0.013900
    14  C    0.463271
    15  O   -0.520559
    16  O   -0.278994
    17  N   -0.314648
    18  C    0.132380
    19  C    0.032305
    20  C   -0.048819
    21  C    0.156545
    22  C   -0.040542
    23  C    0.339992
    24  O   -0.504026
    25  C   -0.027765
    26  N   -0.279112
    27  C    0.137830
    28  C    0.002018
    29  C   -0.007529
    30  C    0.103736
    31  C   -0.048314
    32  C   -0.029726
    33  C   -0.065538
    34  N   -0.321093
    35  C    0.081016
    36  C    0.010837
    37  C   -0.068088
    38  C    0.080412
    39  C   -0.037200
    40  C    0.335713
    41  O   -0.497758
    42  C    0.046242
    43  C    0.477075
    44  O   -0.518284
    45  O   -0.263857
    46  C    0.075385
    47  C    0.103039
    48  C   -0.092044
    49  C   -0.025643
    50  C   -0.042423
    51  C   -0.025526
    52  C   -0.027013
    53  C   -0.038838
    54  C   -0.023126
    55  C   -0.060623
    56  C   -0.035542
    57  C   -0.042235
    58  C   -0.042760
    59  C   -0.005510
    60  C   -0.053902
    61  C   -0.030151
    62  C   -0.042982
    63  C   -0.033209
    64  C   -0.015785
    65  C   -0.060133
    66  C   -0.059904
    67  H    0.026250
    68  H    0.021975
    69  H    0.019138
    70  H    0.036896
    71  H    0.032281
    72  H    0.018622
    73  H    0.024825
    74  H    0.023729
    75  H    0.024461
    76  H    0.035665
    77  H    0.053549
    78  H    0.050538
    79  H    0.039523
    80  H    0.018066
    81  H    0.036778
    82  H    0.032761
    83  H    0.047279
    84  H    0.035337
    85  H    0.037597
    86  H    0.032298
    87  H    0.024275
    88  H    0.028311
    89  H    0.027062
    90  H    0.027613
    91  H    0.026940
    92  H    0.017564
    93  H    0.017958
    94  H    0.025454
    95  H    0.022730
    96  H    0.029854
    97  H    0.032906
    98  H    0.065579
    99  H    0.027708
   100  H    0.048323
   101  H    0.038118
   102  H    0.042598
   103  H    0.050027
   104  H    0.038393
   105  H    0.021989
   106  H    0.029574
   107  H    0.034994
   108  H    0.022649
   109  H    0.017479
   110  H    0.033900
   111  H    0.023068
   112  H    0.030092
   113  H    0.015227
   114  H    0.027540
   115  H    0.016237
   116  H    0.022020
   117  H    0.022186
   118  H    0.018649
   119  H    0.008375
   120  H    0.024986
   121  H    0.012432
   122  H    0.024865
   123  H    0.018030
   124  H    0.025949
   125  H    0.017077
   126  H    0.017356
   127  H    0.010399
   128  H    0.013706
   129  H    0.018703
   130  H    0.013962
   131  H    0.019627
   132  H    0.016041
   133  H    0.018257
   134  H    0.023083
   135  H    0.012749
   136  H    0.015699
   137  H    0.026462
   138  H    0.020829
   139  H    0.017944
   140  H    0.011848
 Sum of Mulliken charges =  -0.00000

 Dipole moment (field-independent basis, Debye):
    X=             -0.6644    Y=              8.9640    Z=              0.4345  Tot=              8.9991
 N-N= 4.338676705114D+03 E-N= 0.000000000000D+00  KE=-9.350851115949D+03
 Leave Link  601 at Wed May  4 17:07:28 2022, MaxMem=  6710886400 cpu:               2.6 elap:               0.1
 (Enter /sw/apps/gaussian-16.0/g16/l9999.exe)
 1\1\GINC-BP1-COMPUTE183\SP\RZINDO CIS\STO-3G\C55H74Mg1N4O6\OF15641\04-
 May-2022\0\\#p ZINDO=(nstates=5)\\step_1_chromophore_2 ZINDO\\0,1\Mg,0
 ,3.158,-0.094,44.312\C,0,5.981,1.967,44.127\C,0,1.598,2.251,42.305\C,0
 ,0.535,-2.151,44.137\C,0,5.149,-2.67,45.585\N,0,3.887,1.897,43.132\C,0
 ,5.038,2.565,43.339\C,0,5.131,3.861,42.57\C,0,3.59,4.004,42.271\C,0,2.
 946,2.644,42.52\C,0,2.955,5.033,43.244\C,0,6.136,3.755,41.416\C,0,6.21
 ,2.461,40.579\C,0,6.195,2.644,39.066\O,0,6.007,3.683,38.4\O,0,6.519,1.

 Normal termination of Gaussian 16 at Wed May  4 17:07:28 2022.
