 Gaussian 16, Revision A.03,
 Gaussian 16:  ES64L-G16RevA.03 25-Dec-2016

 ------------------------------
 #p blyp/Def2SVP td=(nstates=5)
 ------------------------------

 --------------------------------------------------
 step_201_chromophore_21 TDDFT with blyp functional
 --------------------------------------------------
 Symbolic Z-matrix:
 Charge =  0 Multiplicity = 1

                         Standard orientation:
 ---------------------------------------------------------------------
 Center     Atomic      Atomic             Coordinates (Angstroms)
 Number     Number       Type             X           Y           Z
 ---------------------------------------------------------------------
      1         12           0        4.506084    0.956593   -0.147782
      2          6           0        3.819213   -2.407575    0.436271
      3          6           0        1.344470    1.340587   -1.231838
      4          6           0        5.387351    4.058825   -0.861195
      5          6           0        7.912835    0.286687    1.008461
      6          7           0        2.855487   -0.313919   -0.231555
      7          6           0        2.770814   -1.623571    0.126841
      8          6           0        1.293303   -2.099517    0.040584
      9          6           0        0.610056   -1.047078   -0.779648
     10          6           0        1.692215    0.083790   -0.789204
     11          6           0        0.287200   -1.435987   -2.226796
     12          6           0        0.652300   -2.503908    1.485539
     13          6           0        0.038030   -3.891342    1.555206
     14          6           0       -0.946100   -4.473918    0.473843
     15          8           0       -0.733480   -5.444363   -0.264588
     16          8           0       -1.983546   -3.606939    0.369471
     17          7           0        3.515099    2.555042   -0.970554
     18          6           0        2.182422    2.534546   -1.265735
     19          6           0        1.739046    3.831176   -1.728416
     20          6           0        2.931919    4.639146   -1.575959
     21          6           0        4.023078    3.781706   -1.104237
     22          6           0        0.375563    4.132308   -2.307195
     23          6           0        3.047194    6.042714   -1.765879
     24          8           0        4.107241    6.620312   -1.502399
     25          6           0        1.850019    6.877849   -2.269128
     26          7           0        6.350305    2.042143    0.252578
     27          6           0        6.436321    3.326197   -0.245993
     28          6           0        7.848085    3.851826   -0.119450
     29          6           0        8.597716    2.712498    0.631613
     30          6           0        7.568878    1.591737    0.623683
     31          6           0        8.607590    4.120020   -1.518359
     32          6           0        9.058464    2.977240    2.097379
     33          6           0       10.495570    2.586323    2.512035
     34          7           0        5.713326   -0.683997    0.593100
     35          6           0        7.000425   -0.829615    0.923786
     36          6           0        7.311799   -2.243702    1.145327
     37          6           0        6.091304   -2.866734    1.025257
     38          6           0        5.177209   -1.925529    0.597273
     39          6           0        8.697905   -2.753859    1.423331
     40          6           0        5.393105   -4.165434    1.086441
     41          8           0        5.829176   -5.246691    1.438819
     42          6           0        3.882903   -3.919437    0.693161
     43          6           0        3.374209   -4.739011   -0.398936
     44          8           0        3.414658   -4.483734   -1.600665
     45          8           0        2.777875   -5.886564    0.116737
     46          6           0        2.094104   -6.752573   -0.855635
     47          6           0       -2.928364   -4.153932   -0.612281
     48          6           0       -4.175881   -3.340453   -0.638179
     49          6           0       -5.440668   -3.646250   -0.384315
     50          6           0       -5.954118   -4.964439    0.069130
     51          6           0       -6.464027   -2.518928   -0.428671
     52          6           0       -7.569932   -2.504007   -1.541452
     53          6           0       -7.753507   -1.192927   -2.233018
     54          6           0       -9.284072   -0.913406   -2.546401
     55          6           0       -9.451117   -0.494902   -4.046030
     56          6           0       -9.973380    0.249225   -1.683868
     57          6           0      -10.456561   -0.264463   -0.309570
     58          6           0      -11.476246    0.831117    0.187259
     59          6           0      -10.835998    1.578640    1.325356
     60          6           0      -11.269571    0.864404    2.659920
     61          6           0      -11.084916    3.118154    1.250441
     62          6           0       -9.852292    4.029235    0.965381
     63          6           0       -9.204711    4.724586    2.171745
     64          6           0       -8.099149    3.783418    2.843214
     65          6           0       -8.729742    3.147101    4.130842
     66          6           0       -6.802471    4.647670    3.083960
     67          1           0        0.305480    1.552962   -1.491779
     68          1           0        5.685901    5.068937   -1.150065
     69          1           0        8.939298    0.066210    1.307472
     70          1           0        1.227921   -3.099014   -0.388960
     71          1           0       -0.230405   -0.566251   -0.277205
     72          1           0       -0.793678   -1.505388   -2.343499
     73          1           0        0.658319   -2.422354   -2.503115
     74          1           0        0.722183   -0.666399   -2.863959
     75          1           0       -0.103881   -1.768137    1.759654
     76          1           0        1.400899   -2.450961    2.275891
     77          1           0       -0.638898   -3.830235    2.407972
     78          1           0        0.870291   -4.540591    1.825250
     79          1           0       -0.187692    4.896252   -1.770828
     80          1           0       -0.347010    3.315846   -2.303759
     81          1           0        0.349950    4.501237   -3.333001
     82          1           0        1.138323    6.609774   -1.489324
     83          1           0        1.585414    6.804483   -3.324122
     84          1           0        2.195824    7.895517   -2.091159
     85          1           0        7.685478    4.729997    0.505181
     86          1           0        9.505753    2.462971    0.081295
     87          1           0        9.008189    3.189658   -1.920042
     88          1           0        9.310471    4.952235   -1.467738
     89          1           0        7.773028    4.377698   -2.170782
     90          1           0        8.390934    2.560058    2.851387
     91          1           0        9.015749    4.063652    2.166208
     92          1           0       11.091797    2.188571    1.691328
     93          1           0       10.429011    1.869193    3.330651
     94          1           0       11.033636    3.457355    2.888021
     95          1           0        8.678586   -3.071184    2.465421
     96          1           0        9.527135   -2.078143    1.217762
     97          1           0        8.816710   -3.677048    0.855689
     98          1           0        3.327371   -4.139792    1.605188
     99          1           0        2.745109   -7.623832   -0.926071
    100          1           0        1.945970   -6.372096   -1.865784
    101          1           0        1.171679   -7.064518   -0.366448
    102          1           0       -3.175917   -5.152561   -0.253052
    103          1           0       -2.453885   -4.150261   -1.593952
    104          1           0       -3.886591   -2.296344   -0.755318
    105          1           0       -6.977401   -4.773798    0.394111
    106          1           0       -5.269361   -5.324378    0.837061
    107          1           0       -6.062941   -5.547389   -0.845914
    108          1           0       -5.989769   -1.547702   -0.287717
    109          1           0       -6.988744   -2.535469    0.526647
    110          1           0       -8.431913   -2.841345   -0.965664
    111          1           0       -7.450186   -3.318412   -2.254778
    112          1           0       -7.027179   -1.126555   -3.043150
    113          1           0       -7.476220   -0.263465   -1.735413
    114          1           0       -9.897274   -1.804754   -2.416182
    115          1           0       -9.823768    0.508221   -4.253322
    116          1           0      -10.290533   -1.108875   -4.372727
    117          1           0       -8.592930   -0.595638   -4.711424
    118          1           0      -10.829620    0.592899   -2.263877
    119          1           0       -9.439958    1.199162   -1.660635
    120          1           0       -9.674833   -0.477368    0.419279
    121          1           0      -11.092743   -1.121687   -0.528175
    122          1           0      -12.389916    0.279366    0.409096
    123          1           0      -11.921699    1.442812   -0.597757
    124          1           0       -9.756612    1.464497    1.419489
    125          1           0      -11.640667   -0.160680    2.640337
    126          1           0      -11.969825    1.509006    3.191370
    127          1           0      -10.396579    0.917976    3.310505
    128          1           0      -11.345733    3.440626    2.257784
    129          1           0      -11.883987    3.391830    0.562164
    130          1           0       -9.968637    4.685130    0.102475
    131          1           0       -9.057351    3.380497    0.596350
    132          1           0       -9.992938    4.889974    2.905867
    133          1           0       -8.722990    5.650723    1.858232
    134          1           0       -7.727130    3.009569    2.172397
    135          1           0       -9.811327    3.114015    3.998433
    136          1           0       -8.538279    3.730780    5.031121
    137          1           0       -8.371600    2.119507    4.183383
    138          1           0       -6.894032    5.729292    2.983457
    139          1           0       -5.949345    4.166965    2.604594
    140          1           0       -6.511102    4.489655    4.122230
 ---------------------------------------------------------------------

 SCF Done:  E(RB-LYP) =  -3007.36053712     A.U. after   20 cycles

 Excitation energies and oscillator strengths:

 Excited State   1:      Singlet-A      1.6079 eV  771.09 nm  f=0.0093  <S**2>=0.000
     244 -> 247        0.57745
     245 -> 247        0.37252
     246 -> 247       -0.16400
 This state for optimization and/or second-order correction.
 Total Energy, E(TD-HF/TD-DFT) =  -3007.30144729
 Copying the excited state density for this state as the 1-particle RhoCI density.

 Excited State   2:      Singlet-A      1.7966 eV  690.10 nm  f=0.3282  <S**2>=0.000
     244 -> 247        0.14454
     245 -> 248       -0.15201
     246 -> 247        0.67925
     246 <- 247       -0.16423

 Excited State   3:      Singlet-A      2.0066 eV  617.89 nm  f=0.0381  <S**2>=0.000
     243 -> 247        0.56012
     244 -> 247        0.22432
     245 -> 247       -0.33888
     246 -> 248       -0.11092

 Excited State   4:      Singlet-A      2.0361 eV  608.94 nm  f=0.0700  <S**2>=0.000
     243 -> 247        0.43027
     244 -> 247       -0.28553
     245 -> 247        0.43819
     246 -> 248        0.16131

 Excited State   5:      Singlet-A      2.5246 eV  491.11 nm  f=0.0001  <S**2>=0.000
     240 -> 247        0.63512
     242 -> 247        0.30019

 The electronic state is 1-A.
 Alpha  occ. eigenvalues --  -46.26894 -18.83636 -18.81006 -18.78047 -18.76150
 Alpha  occ. eigenvalues --  -18.76094 -18.74218 -14.03293 -14.02980 -14.01052
 Alpha  occ. eigenvalues --  -14.00393 -10.05262 -10.03321 -10.00171  -9.98204
 Alpha  occ. eigenvalues --   -9.98004  -9.96410  -9.96213  -9.96167  -9.96140
 Alpha  occ. eigenvalues --   -9.95666  -9.95657  -9.95589  -9.95138  -9.94249
 Alpha  occ. eigenvalues --   -9.94154  -9.94083  -9.93788  -9.93736  -9.93671
 Alpha  occ. eigenvalues --   -9.93648  -9.93469  -9.93452  -9.93353  -9.93255
 Alpha  occ. eigenvalues --   -9.93253  -9.93227  -9.92877  -9.92838  -9.92737
 Alpha  occ. eigenvalues --   -9.92694  -9.92620  -9.92577  -9.92416  -9.92392
 Alpha  occ. eigenvalues --   -9.92267  -9.92154  -9.92107  -9.92063  -9.91971
 Alpha  occ. eigenvalues --   -9.91892  -9.91787  -9.91730  -9.91721  -9.91711
 Alpha  occ. eigenvalues --   -9.91468  -9.91368  -9.91342  -9.91334  -9.91318
 Alpha  occ. eigenvalues --   -9.91019  -9.91011  -9.90941  -9.90899  -9.90797
 Alpha  occ. eigenvalues --   -9.90723  -2.91536  -1.71981  -1.71393  -1.71263
 Alpha  occ. eigenvalues --   -0.99485  -0.96154  -0.91767  -0.90581  -0.90125
 Alpha  occ. eigenvalues --   -0.88555  -0.87153  -0.86391  -0.86054  -0.85330
 Alpha  occ. eigenvalues --   -0.75441  -0.74365  -0.73233  -0.72721  -0.71906
 Alpha  occ. eigenvalues --   -0.71844  -0.71442  -0.70963  -0.70775  -0.70238
 Alpha  occ. eigenvalues --   -0.69850  -0.69391  -0.68275  -0.67384  -0.67111
 Alpha  occ. eigenvalues --   -0.66589  -0.65864  -0.65454  -0.64704  -0.64361
 Alpha  occ. eigenvalues --   -0.64099  -0.62662  -0.62169  -0.61437  -0.61088
 Alpha  occ. eigenvalues --   -0.60528  -0.60472  -0.59895  -0.59395  -0.58795
 Alpha  occ. eigenvalues --   -0.58649  -0.57995  -0.56535  -0.55717  -0.54225
 Alpha  occ. eigenvalues --   -0.53909  -0.53623  -0.53170  -0.52702  -0.51575
 Alpha  occ. eigenvalues --   -0.51459  -0.51309  -0.50580  -0.50461  -0.50350
 Alpha  occ. eigenvalues --   -0.50229  -0.50008  -0.49373  -0.47689  -0.47205
 Alpha  occ. eigenvalues --   -0.46894  -0.45994  -0.45604  -0.45165  -0.44699
 Alpha  occ. eigenvalues --   -0.44509  -0.44243  -0.43199  -0.42622  -0.41957
 Alpha  occ. eigenvalues --   -0.41914  -0.41787  -0.41416  -0.41148  -0.40913
 Alpha  occ. eigenvalues --   -0.40860  -0.40512  -0.40075  -0.39894  -0.39868
 Alpha  occ. eigenvalues --   -0.39578  -0.39558  -0.39281  -0.39147  -0.39056
 Alpha  occ. eigenvalues --   -0.38887  -0.38736  -0.38325  -0.38258  -0.38147
 Alpha  occ. eigenvalues --   -0.37834  -0.37616  -0.37484  -0.37383  -0.37184
 Alpha  occ. eigenvalues --   -0.36961  -0.36750  -0.36595  -0.36505  -0.36439
 Alpha  occ. eigenvalues --   -0.36040  -0.35978  -0.35891  -0.35744  -0.35591
 Alpha  occ. eigenvalues --   -0.35511  -0.35429  -0.35165  -0.35088  -0.35058
 Alpha  occ. eigenvalues --   -0.34783  -0.34622  -0.34418  -0.34363  -0.34201
 Alpha  occ. eigenvalues --   -0.34009  -0.33918  -0.33702  -0.33341  -0.33156
 Alpha  occ. eigenvalues --   -0.33110  -0.32954  -0.32827  -0.32591  -0.32405
 Alpha  occ. eigenvalues --   -0.32282  -0.32137  -0.32065  -0.31928  -0.31753
 Alpha  occ. eigenvalues --   -0.31357  -0.31174  -0.31019  -0.30917  -0.30758
 Alpha  occ. eigenvalues --   -0.30377  -0.30206  -0.30009  -0.29636  -0.29488
 Alpha  occ. eigenvalues --   -0.29444  -0.29389  -0.29203  -0.29155  -0.28932
 Alpha  occ. eigenvalues --   -0.28803  -0.28721  -0.28639  -0.28190  -0.28057
 Alpha  occ. eigenvalues --   -0.27782  -0.27528  -0.27454  -0.26836  -0.26682
 Alpha  occ. eigenvalues --   -0.26260  -0.26114  -0.25863  -0.25574  -0.25520
 Alpha  occ. eigenvalues --   -0.24802  -0.24517  -0.23615  -0.23569  -0.23141
 Alpha  occ. eigenvalues --   -0.22752  -0.22484  -0.22038  -0.21482  -0.21015
 Alpha  occ. eigenvalues --   -0.20662  -0.20431  -0.19056  -0.17715  -0.17116
 Alpha  occ. eigenvalues --   -0.15762
 Alpha virt. eigenvalues --   -0.11731  -0.06602  -0.05619  -0.04253  -0.04112
 Alpha virt. eigenvalues --   -0.02661  -0.02541  -0.01310  -0.00585   0.00282
 Alpha virt. eigenvalues --    0.01003   0.01574   0.01933   0.02225   0.02661

 Mulliken charges:
               1
     1  Mg   0.693115
     2  C    0.007862
     3  C   -0.068923
     4  C   -0.039127
     5  C   -0.068368
     6  N   -0.237013
     7  C   -0.051752
     8  C   -0.012715
     9  C    0.019357
    10  C    0.049830
    11  C    0.135846
    12  C    0.122917
    13  C    0.092298
    14  C    0.109427
    15  O   -0.204090
    16  O   -0.264572
    17  N   -0.282909
    18  C    0.086216
    19  C   -0.102699
    20  C    0.103025
    21  C    0.103263
    22  C    0.165058
    23  C   -0.163269
    24  O   -0.187120
    25  C    0.133165
    26  N   -0.201045
    27  C   -0.006822
    28  C    0.033655
    29  C    0.025076
    30  C    0.030450
    31  C    0.132057
    32  C    0.080813
    33  C    0.061866
    34  N   -0.192133
    35  C    0.058508
    36  C   -0.200731
    37  C    0.095824
    38  C    0.041664
    39  C    0.185636
    40  C   -0.056430
    41  O   -0.112580
    42  C    0.108766
    43  C    0.127974
    44  O   -0.188039
    45  O   -0.292974
    46  C    0.213949
    47  C    0.314626
    48  C   -0.117897
    49  C   -0.165277
    50  C    0.187749
    51  C    0.108197
    52  C    0.094765
    53  C    0.134095
    54  C   -0.053258
    55  C    0.086069
    56  C    0.050889
    57  C    0.094815
    58  C    0.115383
    59  C   -0.053892
    60  C    0.094653
    61  C    0.133361
    62  C    0.051075
    63  C    0.106190
    64  C   -0.131760
    65  C    0.113381
    66  C    0.108751
    67  H   -0.065105
    68  H   -0.037349
    69  H   -0.066276
    70  H   -0.001509
    71  H   -0.025457
    72  H   -0.012562
    73  H    0.008607
    74  H   -0.003293
    75  H   -0.028508
    76  H   -0.018305
    77  H   -0.011926
    78  H    0.003370
    79  H   -0.011803
    80  H   -0.024034
    81  H    0.002623
    82  H    0.001591
    83  H    0.020696
    84  H   -0.018967
    85  H   -0.017125
    86  H   -0.032899
    87  H   -0.002848
    88  H    0.009617
    89  H   -0.014333
    90  H   -0.010173
    91  H   -0.028631
    92  H   -0.009506
    93  H   -0.003701
    94  H   -0.009362
    95  H    0.005122
    96  H   -0.003965
    97  H    0.004630
    98  H    0.001630
    99  H   -0.001576
   100  H    0.024077
   101  H    0.025857
   102  H   -0.018123
   103  H    0.009567
   104  H   -0.043075
   105  H   -0.022188
   106  H    0.025571
   107  H    0.007825
   108  H   -0.042393
   109  H   -0.035908
   110  H   -0.027789
   111  H   -0.026599
   112  H   -0.029700
   113  H   -0.041666
   114  H   -0.030604
   115  H   -0.024064
   116  H   -0.024138
   117  H   -0.016634
   118  H   -0.038828
   119  H   -0.033628
   120  H   -0.010123
   121  H   -0.043749
   122  H   -0.047514
   123  H   -0.045637
   124  H   -0.030631
   125  H   -0.007066
   126  H   -0.024356
   127  H   -0.034224
   128  H   -0.052560
   129  H   -0.028016
   130  H   -0.041073
   131  H   -0.045971
   132  H   -0.027831
   133  H   -0.033046
   134  H   -0.025468
   135  H   -0.015772
   136  H   -0.009399
   137  H   -0.005351
   138  H   -0.000260
   139  H   -0.021285
   140  H   -0.043122
 Sum of Mulliken charges =  -0.00000

 Dipole moment (field-independent basis, Debye):
    X=             -4.8587    Y=              1.7493    Z=              1.0058  Tot=              5.2611
 Quadrupole moment (field-independent basis, Debye-Ang):
   XX=           -368.5920   YY=           -445.7342   ZZ=           -405.2911
   XY=             23.9584   XZ=              9.2788   YZ=              1.4909

 Normal termination of Gaussian 16 at Fri Apr 29 08:59:22 2022.
