 Gaussian 16, Revision A.03,
 Gaussian 16:  ES64L-G16RevA.03 25-Dec-2016

 -----------------------------------
 #p cam-b3lyp/Def2SVP td=(nstates=5)
 -----------------------------------

 -------------------------------------------------------
 step_201_chromophore_21 TDDFT with cam-b3lyp functional
 -------------------------------------------------------
 Symbolic Z-matrix:
 Charge =  0 Multiplicity = 1

                         Standard orientation:
 ---------------------------------------------------------------------
 Center     Atomic      Atomic             Coordinates (Angstroms)
 Number     Number       Type             X           Y           Z
 ---------------------------------------------------------------------
      1         12           0        4.506084    0.956593   -0.147782
      2          6           0        3.819213   -2.407575    0.436271
      3          6           0        1.344470    1.340587   -1.231838
      4          6           0        5.387351    4.058825   -0.861195
      5          6           0        7.912835    0.286687    1.008461
      6          7           0        2.855487   -0.313919   -0.231555
      7          6           0        2.770814   -1.623571    0.126841
      8          6           0        1.293303   -2.099517    0.040584
      9          6           0        0.610056   -1.047078   -0.779648
     10          6           0        1.692215    0.083790   -0.789204
     11          6           0        0.287200   -1.435987   -2.226796
     12          6           0        0.652300   -2.503908    1.485539
     13          6           0        0.038030   -3.891342    1.555206
     14          6           0       -0.946100   -4.473918    0.473843
     15          8           0       -0.733480   -5.444363   -0.264588
     16          8           0       -1.983546   -3.606939    0.369471
     17          7           0        3.515099    2.555042   -0.970554
     18          6           0        2.182422    2.534546   -1.265735
     19          6           0        1.739046    3.831176   -1.728416
     20          6           0        2.931919    4.639146   -1.575959
     21          6           0        4.023078    3.781706   -1.104237
     22          6           0        0.375563    4.132308   -2.307195
     23          6           0        3.047194    6.042714   -1.765879
     24          8           0        4.107241    6.620312   -1.502399
     25          6           0        1.850019    6.877849   -2.269128
     26          7           0        6.350305    2.042143    0.252578
     27          6           0        6.436321    3.326197   -0.245993
     28          6           0        7.848085    3.851826   -0.119450
     29          6           0        8.597716    2.712498    0.631613
     30          6           0        7.568878    1.591737    0.623683
     31          6           0        8.607590    4.120020   -1.518359
     32          6           0        9.058464    2.977240    2.097379
     33          6           0       10.495570    2.586323    2.512035
     34          7           0        5.713326   -0.683997    0.593100
     35          6           0        7.000425   -0.829615    0.923786
     36          6           0        7.311799   -2.243702    1.145327
     37          6           0        6.091304   -2.866734    1.025257
     38          6           0        5.177209   -1.925529    0.597273
     39          6           0        8.697905   -2.753859    1.423331
     40          6           0        5.393105   -4.165434    1.086441
     41          8           0        5.829176   -5.246691    1.438819
     42          6           0        3.882903   -3.919437    0.693161
     43          6           0        3.374209   -4.739011   -0.398936
     44          8           0        3.414658   -4.483734   -1.600665
     45          8           0        2.777875   -5.886564    0.116737
     46          6           0        2.094104   -6.752573   -0.855635
     47          6           0       -2.928364   -4.153932   -0.612281
     48          6           0       -4.175881   -3.340453   -0.638179
     49          6           0       -5.440668   -3.646250   -0.384315
     50          6           0       -5.954118   -4.964439    0.069130
     51          6           0       -6.464027   -2.518928   -0.428671
     52          6           0       -7.569932   -2.504007   -1.541452
     53          6           0       -7.753507   -1.192927   -2.233018
     54          6           0       -9.284072   -0.913406   -2.546401
     55          6           0       -9.451117   -0.494902   -4.046030
     56          6           0       -9.973380    0.249225   -1.683868
     57          6           0      -10.456561   -0.264463   -0.309570
     58          6           0      -11.476246    0.831117    0.187259
     59          6           0      -10.835998    1.578640    1.325356
     60          6           0      -11.269571    0.864404    2.659920
     61          6           0      -11.084916    3.118154    1.250441
     62          6           0       -9.852292    4.029235    0.965381
     63          6           0       -9.204711    4.724586    2.171745
     64          6           0       -8.099149    3.783418    2.843214
     65          6           0       -8.729742    3.147101    4.130842
     66          6           0       -6.802471    4.647670    3.083960
     67          1           0        0.305480    1.552962   -1.491779
     68          1           0        5.685901    5.068937   -1.150065
     69          1           0        8.939298    0.066210    1.307472
     70          1           0        1.227921   -3.099014   -0.388960
     71          1           0       -0.230405   -0.566251   -0.277205
     72          1           0       -0.793678   -1.505388   -2.343499
     73          1           0        0.658319   -2.422354   -2.503115
     74          1           0        0.722183   -0.666399   -2.863959
     75          1           0       -0.103881   -1.768137    1.759654
     76          1           0        1.400899   -2.450961    2.275891
     77          1           0       -0.638898   -3.830235    2.407972
     78          1           0        0.870291   -4.540591    1.825250
     79          1           0       -0.187692    4.896252   -1.770828
     80          1           0       -0.347010    3.315846   -2.303759
     81          1           0        0.349950    4.501237   -3.333001
     82          1           0        1.138323    6.609774   -1.489324
     83          1           0        1.585414    6.804483   -3.324122
     84          1           0        2.195824    7.895517   -2.091159
     85          1           0        7.685478    4.729997    0.505181
     86          1           0        9.505753    2.462971    0.081295
     87          1           0        9.008189    3.189658   -1.920042
     88          1           0        9.310471    4.952235   -1.467738
     89          1           0        7.773028    4.377698   -2.170782
     90          1           0        8.390934    2.560058    2.851387
     91          1           0        9.015749    4.063652    2.166208
     92          1           0       11.091797    2.188571    1.691328
     93          1           0       10.429011    1.869193    3.330651
     94          1           0       11.033636    3.457355    2.888021
     95          1           0        8.678586   -3.071184    2.465421
     96          1           0        9.527135   -2.078143    1.217762
     97          1           0        8.816710   -3.677048    0.855689
     98          1           0        3.327371   -4.139792    1.605188
     99          1           0        2.745109   -7.623832   -0.926071
    100          1           0        1.945970   -6.372096   -1.865784
    101          1           0        1.171679   -7.064518   -0.366448
    102          1           0       -3.175917   -5.152561   -0.253052
    103          1           0       -2.453885   -4.150261   -1.593952
    104          1           0       -3.886591   -2.296344   -0.755318
    105          1           0       -6.977401   -4.773798    0.394111
    106          1           0       -5.269361   -5.324378    0.837061
    107          1           0       -6.062941   -5.547389   -0.845914
    108          1           0       -5.989769   -1.547702   -0.287717
    109          1           0       -6.988744   -2.535469    0.526647
    110          1           0       -8.431913   -2.841345   -0.965664
    111          1           0       -7.450186   -3.318412   -2.254778
    112          1           0       -7.027179   -1.126555   -3.043150
    113          1           0       -7.476220   -0.263465   -1.735413
    114          1           0       -9.897274   -1.804754   -2.416182
    115          1           0       -9.823768    0.508221   -4.253322
    116          1           0      -10.290533   -1.108875   -4.372727
    117          1           0       -8.592930   -0.595638   -4.711424
    118          1           0      -10.829620    0.592899   -2.263877
    119          1           0       -9.439958    1.199162   -1.660635
    120          1           0       -9.674833   -0.477368    0.419279
    121          1           0      -11.092743   -1.121687   -0.528175
    122          1           0      -12.389916    0.279366    0.409096
    123          1           0      -11.921699    1.442812   -0.597757
    124          1           0       -9.756612    1.464497    1.419489
    125          1           0      -11.640667   -0.160680    2.640337
    126          1           0      -11.969825    1.509006    3.191370
    127          1           0      -10.396579    0.917976    3.310505
    128          1           0      -11.345733    3.440626    2.257784
    129          1           0      -11.883987    3.391830    0.562164
    130          1           0       -9.968637    4.685130    0.102475
    131          1           0       -9.057351    3.380497    0.596350
    132          1           0       -9.992938    4.889974    2.905867
    133          1           0       -8.722990    5.650723    1.858232
    134          1           0       -7.727130    3.009569    2.172397
    135          1           0       -9.811327    3.114015    3.998433
    136          1           0       -8.538279    3.730780    5.031121
    137          1           0       -8.371600    2.119507    4.183383
    138          1           0       -6.894032    5.729292    2.983457
    139          1           0       -5.949345    4.166965    2.604594
    140          1           0       -6.511102    4.489655    4.122230
 ---------------------------------------------------------------------

 SCF Done:  E(RCAM-B3LYP) =  -3007.15563147     A.U. after   18 cycles

 Excitation energies and oscillator strengths:

 Excited State   1:      Singlet-A      1.6570 eV  748.26 nm  f=0.4221  <S**2>=0.000
     245 -> 248        0.15453
     246 -> 247        0.69127
 This state for optimization and/or second-order correction.
 Total Energy, E(TD-HF/TD-DFT) =  -3007.09473912
 Copying the excited state density for this state as the 1-particle RhoCI density.

 Excited State   2:      Singlet-A      2.1933 eV  565.28 nm  f=0.1731  <S**2>=0.000
     245 -> 247        0.66065
     246 -> 248       -0.23075

 Excited State   3:      Singlet-A      3.3105 eV  374.52 nm  f=0.0043  <S**2>=0.000
     243 -> 247        0.55413
     243 -> 248        0.20970
     243 -> 249        0.16637
     243 -> 250        0.18387
     244 -> 247        0.21195
     246 -> 248        0.10647

 Excited State   4:      Singlet-A      3.3274 eV  372.62 nm  f=0.0022  <S**2>=0.000
     242 -> 247       -0.32352
     243 -> 247       -0.18193
     244 -> 247        0.56997

 Excited State   5:      Singlet-A      3.4515 eV  359.22 nm  f=0.0017  <S**2>=0.000
     242 -> 247        0.57592
     244 -> 247        0.31092
     246 -> 248        0.22321

 The electronic state is 1-A.
 Alpha  occ. eigenvalues --  -46.88394 -19.26571 -19.23945 -19.21038 -19.19395
 Alpha  occ. eigenvalues --  -19.19372 -19.17342 -14.42019 -14.41926 -14.39471
 Alpha  occ. eigenvalues --  -14.38834 -10.40631 -10.38944 -10.35627 -10.33346
 Alpha  occ. eigenvalues --  -10.32108 -10.30853 -10.30672 -10.30622 -10.30518
 Alpha  occ. eigenvalues --  -10.29937 -10.29864 -10.29582 -10.29431 -10.28739
 Alpha  occ. eigenvalues --  -10.28654 -10.28515 -10.27900 -10.27762 -10.27749
 Alpha  occ. eigenvalues --  -10.27704 -10.27631 -10.27474 -10.27396 -10.27377
 Alpha  occ. eigenvalues --  -10.27355 -10.27113 -10.27077 -10.26679 -10.26549
 Alpha  occ. eigenvalues --  -10.26503 -10.26434 -10.26253 -10.26209 -10.26184
 Alpha  occ. eigenvalues --  -10.26175 -10.26059 -10.25929 -10.25903 -10.25840
 Alpha  occ. eigenvalues --  -10.25500 -10.25461 -10.25444 -10.25408 -10.25400
 Alpha  occ. eigenvalues --  -10.25398 -10.25357 -10.25050 -10.25039 -10.25025
 Alpha  occ. eigenvalues --  -10.24945 -10.24669 -10.24650 -10.24591 -10.24535
 Alpha  occ. eigenvalues --  -10.24317  -3.16945  -1.91867  -1.91386  -1.91262
 Alpha  occ. eigenvalues --   -1.17959  -1.14747  -1.10286  -1.08460  -1.08455
 Alpha  occ. eigenvalues --   -1.06524  -1.04921  -1.04024  -1.03677  -1.02888
 Alpha  occ. eigenvalues --   -0.92650  -0.91284  -0.90044  -0.89480  -0.88591
 Alpha  occ. eigenvalues --   -0.88531  -0.88029  -0.87603  -0.87330  -0.86871
 Alpha  occ. eigenvalues --   -0.86393  -0.85795  -0.84533  -0.83636  -0.83235
 Alpha  occ. eigenvalues --   -0.82658  -0.81801  -0.81480  -0.80638  -0.80185
 Alpha  occ. eigenvalues --   -0.80015  -0.78487  -0.77773  -0.76881  -0.76488
 Alpha  occ. eigenvalues --   -0.75917  -0.75838  -0.75144  -0.74665  -0.73957
 Alpha  occ. eigenvalues --   -0.73757  -0.73084  -0.71412  -0.70545  -0.68775
 Alpha  occ. eigenvalues --   -0.68597  -0.68185  -0.67667  -0.67060  -0.65816
 Alpha  occ. eigenvalues --   -0.65581  -0.65415  -0.64516  -0.64503  -0.64448
 Alpha  occ. eigenvalues --   -0.64288  -0.63972  -0.63323  -0.61504  -0.60830
 Alpha  occ. eigenvalues --   -0.60491  -0.59645  -0.59225  -0.58526  -0.58203
 Alpha  occ. eigenvalues --   -0.57925  -0.57602  -0.56374  -0.55711  -0.55516
 Alpha  occ. eigenvalues --   -0.55142  -0.54614  -0.54493  -0.54018  -0.53734
 Alpha  occ. eigenvalues --   -0.53562  -0.53287  -0.52966  -0.52736  -0.52591
 Alpha  occ. eigenvalues --   -0.52376  -0.52083  -0.51957  -0.51792  -0.51605
 Alpha  occ. eigenvalues --   -0.51500  -0.51208  -0.50992  -0.50757  -0.50510
 Alpha  occ. eigenvalues --   -0.50145  -0.49992  -0.49857  -0.49753  -0.49406
 Alpha  occ. eigenvalues --   -0.49267  -0.49203  -0.48929  -0.48679  -0.48564
 Alpha  occ. eigenvalues --   -0.48427  -0.48194  -0.47970  -0.47908  -0.47817
 Alpha  occ. eigenvalues --   -0.47536  -0.47321  -0.47242  -0.47138  -0.46855
 Alpha  occ. eigenvalues --   -0.46690  -0.46555  -0.46293  -0.46241  -0.46075
 Alpha  occ. eigenvalues --   -0.45976  -0.45856  -0.45642  -0.44982  -0.44926
 Alpha  occ. eigenvalues --   -0.44795  -0.44613  -0.44549  -0.44485  -0.44141
 Alpha  occ. eigenvalues --   -0.43967  -0.43828  -0.43633  -0.43541  -0.43411
 Alpha  occ. eigenvalues --   -0.43078  -0.42699  -0.42438  -0.42274  -0.42140
 Alpha  occ. eigenvalues --   -0.41962  -0.41654  -0.41600  -0.41402  -0.41062
 Alpha  occ. eigenvalues --   -0.40590  -0.40533  -0.40370  -0.40270  -0.39971
 Alpha  occ. eigenvalues --   -0.39938  -0.39749  -0.39606  -0.39130  -0.39095
 Alpha  occ. eigenvalues --   -0.38681  -0.38504  -0.38386  -0.38245  -0.37572
 Alpha  occ. eigenvalues --   -0.37510  -0.36779  -0.36603  -0.36298  -0.36143
 Alpha  occ. eigenvalues --   -0.35364  -0.35174  -0.35027  -0.34520  -0.34176
 Alpha  occ. eigenvalues --   -0.33990  -0.32884  -0.32729  -0.31310  -0.31130
 Alpha  occ. eigenvalues --   -0.30807  -0.29972  -0.29866  -0.29701  -0.23964
 Alpha  occ. eigenvalues --   -0.21093
 Alpha virt. eigenvalues --   -0.09101  -0.01087   0.00915   0.02565   0.03732
 Alpha virt. eigenvalues --    0.03941   0.04759   0.04916   0.05238   0.07035
 Alpha virt. eigenvalues --    0.08132   0.08157   0.08339   0.08789   0.09394

 Mulliken charges:
               1
     1  Mg   0.828570
     2  C   -0.021539
     3  C   -0.077670
     4  C   -0.054440
     5  C   -0.069117
     6  N   -0.316233
     7  C   -0.011043
     8  C   -0.059113
     9  C   -0.035859
    10  C    0.062711
    11  C    0.080327
    12  C    0.079378
    13  C    0.028610
    14  C    0.180012
    15  O   -0.247279
    16  O   -0.324326
    17  N   -0.372354
    18  C    0.095674
    19  C   -0.110884
    20  C    0.027050
    21  C    0.126804
    22  C    0.107308
    23  C   -0.084803
    24  O   -0.232135
    25  C    0.055654
    26  N   -0.271843
    27  C    0.017353
    28  C   -0.028266
    29  C   -0.028181
    30  C    0.046454
    31  C    0.075012
    32  C    0.024391
    33  C   -0.000322
    34  N   -0.280015
    35  C    0.064713
    36  C   -0.196655
    37  C    0.014402
    38  C    0.082774
    39  C    0.133260
    40  C    0.049147
    41  O   -0.150240
    42  C    0.030068
    43  C    0.215303
    44  O   -0.224555
    45  O   -0.355962
    46  C    0.174218
    47  C    0.278217
    48  C   -0.133735
    49  C   -0.181534
    50  C    0.118075
    51  C    0.048585
    52  C    0.037045
    53  C    0.079416
    54  C   -0.110964
    55  C    0.027842
    56  C    0.005376
    57  C    0.038120
    58  C    0.056203
    59  C   -0.107654
    60  C    0.040259
    61  C    0.077664
    62  C   -0.002114
    63  C    0.050071
    64  C   -0.188645
    65  C    0.056674
    66  C    0.048709
    67  H   -0.031675
    68  H    0.003688
    69  H   -0.029827
    70  H    0.027105
    71  H    0.010150
    72  H    0.009591
    73  H    0.033038
    74  H    0.023487
    75  H    0.002857
    76  H    0.013238
    77  H    0.021636
    78  H    0.032201
    79  H    0.015290
    80  H    0.005278
    81  H    0.029239
    82  H    0.026719
    83  H    0.048844
    84  H    0.017814
    85  H    0.018463
    86  H    0.002425
    87  H    0.021193
    88  H    0.034060
    89  H    0.010189
    90  H    0.019610
    91  H    0.000555
    92  H    0.012232
    93  H    0.018937
    94  H    0.015350
    95  H    0.032245
    96  H    0.020703
    97  H    0.031642
    98  H    0.043868
    99  H    0.021621
   100  H    0.049732
   101  H    0.048875
   102  H    0.011707
   103  H    0.037955
   104  H   -0.010793
   105  H    0.005071
   106  H    0.048253
   107  H    0.033355
   108  H   -0.010539
   109  H   -0.006221
   110  H   -0.001261
   111  H    0.002583
   112  H   -0.000077
   113  H   -0.012716
   114  H    0.000801
   115  H    0.000013
   116  H    0.000081
   117  H    0.007854
   118  H   -0.009480
   119  H   -0.007076
   120  H    0.013224
   121  H   -0.013436
   122  H   -0.016052
   123  H   -0.015459
   124  H   -0.002086
   125  H    0.017808
   126  H    0.000281
   127  H   -0.011818
   128  H   -0.025512
   129  H    0.001916
   130  H   -0.009676
   131  H   -0.019231
   132  H   -0.000097
   133  H   -0.002558
   134  H    0.004325
   135  H    0.002495
   136  H    0.015782
   137  H    0.017129
   138  H    0.022872
   139  H    0.003633
   140  H   -0.017391
 Sum of Mulliken charges =  -0.00000

 Dipole moment (field-independent basis, Debye):
    X=             -5.1067    Y=              2.0433    Z=              0.9669  Tot=              5.5846
 Quadrupole moment (field-independent basis, Debye-Ang):
   XX=           -367.1419   YY=           -443.2276   ZZ=           -404.7599
   XY=             23.7749   XZ=             10.0042   YZ=             -0.0406

 Normal termination of Gaussian 16 at Fri Apr 29 07:58:46 2022.
