 Gaussian 16, Revision A.03,
 Gaussian 16:  ES64L-G16RevA.03 25-Dec-2016

 ---------------------------------
 #p PBE1PBE/Def2SVP td=(nstates=5)
 ---------------------------------

 -----------------------------------------------------
 step_201_chromophore_21 TDDFT with PBE1PBE functional
 -----------------------------------------------------
 Symbolic Z-matrix:
 Charge =  0 Multiplicity = 1

                         Standard orientation:
 ---------------------------------------------------------------------
 Center     Atomic      Atomic             Coordinates (Angstroms)
 Number     Number       Type             X           Y           Z
 ---------------------------------------------------------------------
      1         12           0        4.506084    0.956593   -0.147782
      2          6           0        3.819213   -2.407575    0.436271
      3          6           0        1.344470    1.340587   -1.231838
      4          6           0        5.387351    4.058825   -0.861195
      5          6           0        7.912835    0.286687    1.008461
      6          7           0        2.855487   -0.313919   -0.231555
      7          6           0        2.770814   -1.623571    0.126841
      8          6           0        1.293303   -2.099517    0.040584
      9          6           0        0.610056   -1.047078   -0.779648
     10          6           0        1.692215    0.083790   -0.789204
     11          6           0        0.287200   -1.435987   -2.226796
     12          6           0        0.652300   -2.503908    1.485539
     13          6           0        0.038030   -3.891342    1.555206
     14          6           0       -0.946100   -4.473918    0.473843
     15          8           0       -0.733480   -5.444363   -0.264588
     16          8           0       -1.983546   -3.606939    0.369471
     17          7           0        3.515099    2.555042   -0.970554
     18          6           0        2.182422    2.534546   -1.265735
     19          6           0        1.739046    3.831176   -1.728416
     20          6           0        2.931919    4.639146   -1.575959
     21          6           0        4.023078    3.781706   -1.104237
     22          6           0        0.375563    4.132308   -2.307195
     23          6           0        3.047194    6.042714   -1.765879
     24          8           0        4.107241    6.620312   -1.502399
     25          6           0        1.850019    6.877849   -2.269128
     26          7           0        6.350305    2.042143    0.252578
     27          6           0        6.436321    3.326197   -0.245993
     28          6           0        7.848085    3.851826   -0.119450
     29          6           0        8.597716    2.712498    0.631613
     30          6           0        7.568878    1.591737    0.623683
     31          6           0        8.607590    4.120020   -1.518359
     32          6           0        9.058464    2.977240    2.097379
     33          6           0       10.495570    2.586323    2.512035
     34          7           0        5.713326   -0.683997    0.593100
     35          6           0        7.000425   -0.829615    0.923786
     36          6           0        7.311799   -2.243702    1.145327
     37          6           0        6.091304   -2.866734    1.025257
     38          6           0        5.177209   -1.925529    0.597273
     39          6           0        8.697905   -2.753859    1.423331
     40          6           0        5.393105   -4.165434    1.086441
     41          8           0        5.829176   -5.246691    1.438819
     42          6           0        3.882903   -3.919437    0.693161
     43          6           0        3.374209   -4.739011   -0.398936
     44          8           0        3.414658   -4.483734   -1.600665
     45          8           0        2.777875   -5.886564    0.116737
     46          6           0        2.094104   -6.752573   -0.855635
     47          6           0       -2.928364   -4.153932   -0.612281
     48          6           0       -4.175881   -3.340453   -0.638179
     49          6           0       -5.440668   -3.646250   -0.384315
     50          6           0       -5.954118   -4.964439    0.069130
     51          6           0       -6.464027   -2.518928   -0.428671
     52          6           0       -7.569932   -2.504007   -1.541452
     53          6           0       -7.753507   -1.192927   -2.233018
     54          6           0       -9.284072   -0.913406   -2.546401
     55          6           0       -9.451117   -0.494902   -4.046030
     56          6           0       -9.973380    0.249225   -1.683868
     57          6           0      -10.456561   -0.264463   -0.309570
     58          6           0      -11.476246    0.831117    0.187259
     59          6           0      -10.835998    1.578640    1.325356
     60          6           0      -11.269571    0.864404    2.659920
     61          6           0      -11.084916    3.118154    1.250441
     62          6           0       -9.852292    4.029235    0.965381
     63          6           0       -9.204711    4.724586    2.171745
     64          6           0       -8.099149    3.783418    2.843214
     65          6           0       -8.729742    3.147101    4.130842
     66          6           0       -6.802471    4.647670    3.083960
     67          1           0        0.305480    1.552962   -1.491779
     68          1           0        5.685901    5.068937   -1.150065
     69          1           0        8.939298    0.066210    1.307472
     70          1           0        1.227921   -3.099014   -0.388960
     71          1           0       -0.230405   -0.566251   -0.277205
     72          1           0       -0.793678   -1.505388   -2.343499
     73          1           0        0.658319   -2.422354   -2.503115
     74          1           0        0.722183   -0.666399   -2.863959
     75          1           0       -0.103881   -1.768137    1.759654
     76          1           0        1.400899   -2.450961    2.275891
     77          1           0       -0.638898   -3.830235    2.407972
     78          1           0        0.870291   -4.540591    1.825250
     79          1           0       -0.187692    4.896252   -1.770828
     80          1           0       -0.347010    3.315846   -2.303759
     81          1           0        0.349950    4.501237   -3.333001
     82          1           0        1.138323    6.609774   -1.489324
     83          1           0        1.585414    6.804483   -3.324122
     84          1           0        2.195824    7.895517   -2.091159
     85          1           0        7.685478    4.729997    0.505181
     86          1           0        9.505753    2.462971    0.081295
     87          1           0        9.008189    3.189658   -1.920042
     88          1           0        9.310471    4.952235   -1.467738
     89          1           0        7.773028    4.377698   -2.170782
     90          1           0        8.390934    2.560058    2.851387
     91          1           0        9.015749    4.063652    2.166208
     92          1           0       11.091797    2.188571    1.691328
     93          1           0       10.429011    1.869193    3.330651
     94          1           0       11.033636    3.457355    2.888021
     95          1           0        8.678586   -3.071184    2.465421
     96          1           0        9.527135   -2.078143    1.217762
     97          1           0        8.816710   -3.677048    0.855689
     98          1           0        3.327371   -4.139792    1.605188
     99          1           0        2.745109   -7.623832   -0.926071
    100          1           0        1.945970   -6.372096   -1.865784
    101          1           0        1.171679   -7.064518   -0.366448
    102          1           0       -3.175917   -5.152561   -0.253052
    103          1           0       -2.453885   -4.150261   -1.593952
    104          1           0       -3.886591   -2.296344   -0.755318
    105          1           0       -6.977401   -4.773798    0.394111
    106          1           0       -5.269361   -5.324378    0.837061
    107          1           0       -6.062941   -5.547389   -0.845914
    108          1           0       -5.989769   -1.547702   -0.287717
    109          1           0       -6.988744   -2.535469    0.526647
    110          1           0       -8.431913   -2.841345   -0.965664
    111          1           0       -7.450186   -3.318412   -2.254778
    112          1           0       -7.027179   -1.126555   -3.043150
    113          1           0       -7.476220   -0.263465   -1.735413
    114          1           0       -9.897274   -1.804754   -2.416182
    115          1           0       -9.823768    0.508221   -4.253322
    116          1           0      -10.290533   -1.108875   -4.372727
    117          1           0       -8.592930   -0.595638   -4.711424
    118          1           0      -10.829620    0.592899   -2.263877
    119          1           0       -9.439958    1.199162   -1.660635
    120          1           0       -9.674833   -0.477368    0.419279
    121          1           0      -11.092743   -1.121687   -0.528175
    122          1           0      -12.389916    0.279366    0.409096
    123          1           0      -11.921699    1.442812   -0.597757
    124          1           0       -9.756612    1.464497    1.419489
    125          1           0      -11.640667   -0.160680    2.640337
    126          1           0      -11.969825    1.509006    3.191370
    127          1           0      -10.396579    0.917976    3.310505
    128          1           0      -11.345733    3.440626    2.257784
    129          1           0      -11.883987    3.391830    0.562164
    130          1           0       -9.968637    4.685130    0.102475
    131          1           0       -9.057351    3.380497    0.596350
    132          1           0       -9.992938    4.889974    2.905867
    133          1           0       -8.722990    5.650723    1.858232
    134          1           0       -7.727130    3.009569    2.172397
    135          1           0       -9.811327    3.114015    3.998433
    136          1           0       -8.538279    3.730780    5.031121
    137          1           0       -8.371600    2.119507    4.183383
    138          1           0       -6.894032    5.729292    2.983457
    139          1           0       -5.949345    4.166965    2.604594
    140          1           0       -6.511102    4.489655    4.122230
 ---------------------------------------------------------------------

 SCF Done:  E(RPBE1PBE) =  -3005.34468548     A.U. after   15 cycles

 Excitation energies and oscillator strengths:

 Excited State   1:      Singlet-A      1.8221 eV  680.46 nm  f=0.4017  <S**2>=0.000
     245 -> 248        0.14680
     246 -> 247        0.69952
     246 <- 247       -0.12460
 This state for optimization and/or second-order correction.
 Total Energy, E(TD-HF/TD-DFT) =  -3005.27772632
 Copying the excited state density for this state as the 1-particle RhoCI density.

 Excited State   2:      Singlet-A      2.2044 eV  562.44 nm  f=0.1579  <S**2>=0.000
     245 -> 247        0.66695
     246 -> 248       -0.20613

 Excited State   3:      Singlet-A      2.7288 eV  454.36 nm  f=0.0018  <S**2>=0.000
     244 -> 247        0.67939
     244 -> 248        0.12941

 Excited State   4:      Singlet-A      3.0015 eV  413.08 nm  f=0.0005  <S**2>=0.000
     241 -> 247       -0.15164
     242 -> 247       -0.25159
     243 -> 247        0.63253

 Excited State   5:      Singlet-A      3.0836 eV  402.07 nm  f=0.0052  <S**2>=0.000
     241 -> 247        0.45084
     241 -> 249       -0.10827
     242 -> 247        0.42540
     243 -> 247        0.29473

 The electronic state is 1-A.
 Alpha  occ. eigenvalues --  -46.91788 -19.27229 -19.24607 -19.21339 -19.19589
 Alpha  occ. eigenvalues --  -19.19564 -19.17612 -14.41601 -14.41375 -14.39129
 Alpha  occ. eigenvalues --  -14.38454 -10.37687 -10.35890 -10.32760 -10.30459
 Alpha  occ. eigenvalues --  -10.29469 -10.28618 -10.28354 -10.28332 -10.28280
 Alpha  occ. eigenvalues --  -10.27696 -10.27598 -10.27121 -10.26842 -10.26465
 Alpha  occ. eigenvalues --  -10.26303 -10.26113 -10.25540 -10.25517 -10.25484
 Alpha  occ. eigenvalues --  -10.25388 -10.25310 -10.25201 -10.25142 -10.25020
 Alpha  occ. eigenvalues --  -10.24955 -10.24839 -10.24639 -10.24430 -10.24303
 Alpha  occ. eigenvalues --  -10.24163 -10.23920 -10.23867 -10.23853 -10.23783
 Alpha  occ. eigenvalues --  -10.23713 -10.23578 -10.23555 -10.23478 -10.23457
 Alpha  occ. eigenvalues --  -10.23034 -10.22965 -10.22937 -10.22924 -10.22914
 Alpha  occ. eigenvalues --  -10.22884 -10.22732 -10.22647 -10.22625 -10.22620
 Alpha  occ. eigenvalues --  -10.22430 -10.22234 -10.22190 -10.22071 -10.21957
 Alpha  occ. eigenvalues --  -10.21746  -3.13920  -1.86784  -1.86282  -1.86159
 Alpha  occ. eigenvalues --   -1.12770  -1.09471  -1.05013  -1.03314  -1.03189
 Alpha  occ. eigenvalues --   -1.01322  -0.99570  -0.98706  -0.98334  -0.97547
 Alpha  occ. eigenvalues --   -0.86980  -0.85429  -0.84129  -0.83691  -0.82866
 Alpha  occ. eigenvalues --   -0.82658  -0.82346  -0.81916  -0.81463  -0.81160
 Alpha  occ. eigenvalues --   -0.80689  -0.80067  -0.78710  -0.77937  -0.77500
 Alpha  occ. eigenvalues --   -0.76866  -0.76017  -0.75724  -0.74925  -0.74334
 Alpha  occ. eigenvalues --   -0.74312  -0.72734  -0.72029  -0.71203  -0.70678
 Alpha  occ. eigenvalues --   -0.70162  -0.70005  -0.69484  -0.68818  -0.68176
 Alpha  occ. eigenvalues --   -0.68033  -0.67497  -0.65844  -0.64852  -0.63166
 Alpha  occ. eigenvalues --   -0.63032  -0.62438  -0.62145  -0.61321  -0.60081
 Alpha  occ. eigenvalues --   -0.59989  -0.59794  -0.59122  -0.58995  -0.58668
 Alpha  occ. eigenvalues --   -0.58463  -0.58388  -0.57551  -0.56040  -0.55232
 Alpha  occ. eigenvalues --   -0.55072  -0.54170  -0.53774  -0.53157  -0.52687
 Alpha  occ. eigenvalues --   -0.52305  -0.52098  -0.50978  -0.50180  -0.50110
 Alpha  occ. eigenvalues --   -0.49648  -0.49161  -0.48911  -0.48563  -0.48272
 Alpha  occ. eigenvalues --   -0.48002  -0.47867  -0.47461  -0.47395  -0.47067
 Alpha  occ. eigenvalues --   -0.46862  -0.46563  -0.46459  -0.46304  -0.46101
 Alpha  occ. eigenvalues --   -0.46061  -0.45704  -0.45484  -0.45366  -0.45152
 Alpha  occ. eigenvalues --   -0.44688  -0.44655  -0.44433  -0.44359  -0.43982
 Alpha  occ. eigenvalues --   -0.43880  -0.43755  -0.43565  -0.43306  -0.43182
 Alpha  occ. eigenvalues --   -0.43063  -0.42863  -0.42589  -0.42566  -0.42404
 Alpha  occ. eigenvalues --   -0.42204  -0.41922  -0.41868  -0.41800  -0.41432
 Alpha  occ. eigenvalues --   -0.41372  -0.41224  -0.41047  -0.40948  -0.40753
 Alpha  occ. eigenvalues --   -0.40684  -0.40583  -0.40359  -0.39735  -0.39683
 Alpha  occ. eigenvalues --   -0.39487  -0.39354  -0.39315  -0.39280  -0.38857
 Alpha  occ. eigenvalues --   -0.38701  -0.38595  -0.38415  -0.38346  -0.38192
 Alpha  occ. eigenvalues --   -0.37865  -0.37435  -0.37147  -0.37029  -0.36958
 Alpha  occ. eigenvalues --   -0.36767  -0.36425  -0.36386  -0.36159  -0.35868
 Alpha  occ. eigenvalues --   -0.35472  -0.35324  -0.35201  -0.35076  -0.34883
 Alpha  occ. eigenvalues --   -0.34731  -0.34575  -0.34528  -0.34091  -0.33902
 Alpha  occ. eigenvalues --   -0.33481  -0.33462  -0.33217  -0.33149  -0.32512
 Alpha  occ. eigenvalues --   -0.32386  -0.31695  -0.31637  -0.31417  -0.30999
 Alpha  occ. eigenvalues --   -0.30282  -0.30078  -0.29947  -0.29404  -0.29326
 Alpha  occ. eigenvalues --   -0.28845  -0.28431  -0.27712  -0.26959  -0.26106
 Alpha  occ. eigenvalues --   -0.26040  -0.25570  -0.25356  -0.24628  -0.20894
 Alpha  occ. eigenvalues --   -0.18717
 Alpha virt. eigenvalues --   -0.11443  -0.04769  -0.03305  -0.01771  -0.00868
 Alpha virt. eigenvalues --    0.00229   0.00413   0.01301   0.01757   0.03008
 Alpha virt. eigenvalues --    0.03907   0.04598   0.04797   0.05227   0.05602

 Mulliken charges:
               1
     1  Mg   0.980598
     2  C   -0.035411
     3  C   -0.061175
     4  C   -0.050105
     5  C   -0.053676
     6  N   -0.429156
     7  C    0.049267
     8  C   -0.120513
     9  C   -0.116658
    10  C    0.088906
    11  C    0.026265
    12  C    0.036156
    13  C   -0.052500
    14  C    0.235384
    15  O   -0.279066
    16  O   -0.350626
    17  N   -0.494226
    18  C    0.123261
    19  C   -0.134342
    20  C   -0.039078
    21  C    0.169455
    22  C    0.052061
    23  C   -0.031456
    24  O   -0.268544
    25  C   -0.018488
    26  N   -0.376552
    27  C    0.056375
    28  C   -0.109449
    29  C   -0.098579
    30  C    0.079393
    31  C    0.013450
    32  C   -0.032847
    33  C   -0.071558
    34  N   -0.406262
    35  C    0.093091
    36  C   -0.220188
    37  C   -0.038104
    38  C    0.140309
    39  C    0.078969
    40  C    0.153666
    41  O   -0.197115
    42  C   -0.076564
    43  C    0.300526
    44  O   -0.260357
    45  O   -0.387976
    46  C    0.120689
    47  C    0.234105
    48  C   -0.139665
    49  C   -0.224477
    50  C    0.050393
    51  C   -0.014429
    52  C   -0.027746
    53  C    0.032978
    54  C   -0.198342
    55  C   -0.029833
    56  C   -0.045858
    57  C   -0.031241
    58  C    0.006571
    59  C   -0.195143
    60  C   -0.020214
    61  C    0.024473
    62  C   -0.063956
    63  C   -0.011657
    64  C   -0.274112
    65  C   -0.007840
    66  C   -0.010272
    67  H    0.000925
    68  H    0.034667
    69  H    0.002953
    70  H    0.076248
    71  H    0.045452
    72  H    0.037787
    73  H    0.059281
    74  H    0.051467
    75  H    0.034517
    76  H    0.045794
    77  H    0.055717
    78  H    0.066259
    79  H    0.042419
    80  H    0.031995
    81  H    0.056713
    82  H    0.054360
    83  H    0.074008
    84  H    0.046093
    85  H    0.054215
    86  H    0.039304
    87  H    0.048597
    88  H    0.061709
    89  H    0.039738
    90  H    0.051621
    91  H    0.034877
    92  H    0.038509
    93  H    0.046320
    94  H    0.043232
    95  H    0.060587
    96  H    0.045814
    97  H    0.059708
    98  H    0.082661
    99  H    0.045145
   100  H    0.070152
   101  H    0.070987
   102  H    0.039968
   103  H    0.064813
   104  H    0.018764
   105  H    0.033361
   106  H    0.074218
   107  H    0.061725
   108  H    0.020145
   109  H    0.027820
   110  H    0.030355
   111  H    0.035323
   112  H    0.030852
   113  H    0.018847
   114  H    0.037425
   115  H    0.026805
   116  H    0.028255
   117  H    0.034809
   118  H    0.023958
   119  H    0.025609
   120  H    0.044308
   121  H    0.020703
   122  H    0.016432
   123  H    0.014597
   124  H    0.036983
   125  H    0.044488
   126  H    0.028017
   127  H    0.018595
   128  H    0.007577
   129  H    0.033545
   130  H    0.022796
   131  H    0.015807
   132  H    0.032955
   133  H    0.030245
   134  H    0.039152
   135  H    0.031728
   136  H    0.043157
   137  H    0.043954
   138  H    0.048388
   139  H    0.031349
   140  H    0.011353
 Sum of Mulliken charges =  -0.00000

 Dipole moment (field-independent basis, Debye):
    X=             -5.1258    Y=              2.0880    Z=              0.9812  Tot=              5.6211
 Quadrupole moment (field-independent basis, Debye-Ang):
   XX=           -361.5241   YY=           -440.4398   ZZ=           -402.2414
   XY=             24.7278   XZ=             10.6428   YZ=             -0.0428

 Normal termination of Gaussian 16 at Fri Apr 29 08:18:52 2022.
