 Gaussian 16, Revision A.03,
 Gaussian 16:  ES64L-G16RevA.03 25-Dec-2016

 --------------------------------
 #p wB97XD/Def2SVP td=(nstates=5)
 --------------------------------

 ----------------------------------------------------
 step_201_chromophore_21 TDDFT with wB97XD functional
 ----------------------------------------------------
 Symbolic Z-matrix:
 Charge =  0 Multiplicity = 1

                         Standard orientation:
 ---------------------------------------------------------------------
 Center     Atomic      Atomic             Coordinates (Angstroms)
 Number     Number       Type             X           Y           Z
 ---------------------------------------------------------------------
      1         12           0        4.506084    0.956593   -0.147782
      2          6           0        3.819213   -2.407575    0.436271
      3          6           0        1.344470    1.340587   -1.231838
      4          6           0        5.387351    4.058825   -0.861195
      5          6           0        7.912835    0.286687    1.008461
      6          7           0        2.855487   -0.313919   -0.231555
      7          6           0        2.770814   -1.623571    0.126841
      8          6           0        1.293303   -2.099517    0.040584
      9          6           0        0.610056   -1.047078   -0.779648
     10          6           0        1.692215    0.083790   -0.789204
     11          6           0        0.287200   -1.435987   -2.226796
     12          6           0        0.652300   -2.503908    1.485539
     13          6           0        0.038030   -3.891342    1.555206
     14          6           0       -0.946100   -4.473918    0.473843
     15          8           0       -0.733480   -5.444363   -0.264588
     16          8           0       -1.983546   -3.606939    0.369471
     17          7           0        3.515099    2.555042   -0.970554
     18          6           0        2.182422    2.534546   -1.265735
     19          6           0        1.739046    3.831176   -1.728416
     20          6           0        2.931919    4.639146   -1.575959
     21          6           0        4.023078    3.781706   -1.104237
     22          6           0        0.375563    4.132308   -2.307195
     23          6           0        3.047194    6.042714   -1.765879
     24          8           0        4.107241    6.620312   -1.502399
     25          6           0        1.850019    6.877849   -2.269128
     26          7           0        6.350305    2.042143    0.252578
     27          6           0        6.436321    3.326197   -0.245993
     28          6           0        7.848085    3.851826   -0.119450
     29          6           0        8.597716    2.712498    0.631613
     30          6           0        7.568878    1.591737    0.623683
     31          6           0        8.607590    4.120020   -1.518359
     32          6           0        9.058464    2.977240    2.097379
     33          6           0       10.495570    2.586323    2.512035
     34          7           0        5.713326   -0.683997    0.593100
     35          6           0        7.000425   -0.829615    0.923786
     36          6           0        7.311799   -2.243702    1.145327
     37          6           0        6.091304   -2.866734    1.025257
     38          6           0        5.177209   -1.925529    0.597273
     39          6           0        8.697905   -2.753859    1.423331
     40          6           0        5.393105   -4.165434    1.086441
     41          8           0        5.829176   -5.246691    1.438819
     42          6           0        3.882903   -3.919437    0.693161
     43          6           0        3.374209   -4.739011   -0.398936
     44          8           0        3.414658   -4.483734   -1.600665
     45          8           0        2.777875   -5.886564    0.116737
     46          6           0        2.094104   -6.752573   -0.855635
     47          6           0       -2.928364   -4.153932   -0.612281
     48          6           0       -4.175881   -3.340453   -0.638179
     49          6           0       -5.440668   -3.646250   -0.384315
     50          6           0       -5.954118   -4.964439    0.069130
     51          6           0       -6.464027   -2.518928   -0.428671
     52          6           0       -7.569932   -2.504007   -1.541452
     53          6           0       -7.753507   -1.192927   -2.233018
     54          6           0       -9.284072   -0.913406   -2.546401
     55          6           0       -9.451117   -0.494902   -4.046030
     56          6           0       -9.973380    0.249225   -1.683868
     57          6           0      -10.456561   -0.264463   -0.309570
     58          6           0      -11.476246    0.831117    0.187259
     59          6           0      -10.835998    1.578640    1.325356
     60          6           0      -11.269571    0.864404    2.659920
     61          6           0      -11.084916    3.118154    1.250441
     62          6           0       -9.852292    4.029235    0.965381
     63          6           0       -9.204711    4.724586    2.171745
     64          6           0       -8.099149    3.783418    2.843214
     65          6           0       -8.729742    3.147101    4.130842
     66          6           0       -6.802471    4.647670    3.083960
     67          1           0        0.305480    1.552962   -1.491779
     68          1           0        5.685901    5.068937   -1.150065
     69          1           0        8.939298    0.066210    1.307472
     70          1           0        1.227921   -3.099014   -0.388960
     71          1           0       -0.230405   -0.566251   -0.277205
     72          1           0       -0.793678   -1.505388   -2.343499
     73          1           0        0.658319   -2.422354   -2.503115
     74          1           0        0.722183   -0.666399   -2.863959
     75          1           0       -0.103881   -1.768137    1.759654
     76          1           0        1.400899   -2.450961    2.275891
     77          1           0       -0.638898   -3.830235    2.407972
     78          1           0        0.870291   -4.540591    1.825250
     79          1           0       -0.187692    4.896252   -1.770828
     80          1           0       -0.347010    3.315846   -2.303759
     81          1           0        0.349950    4.501237   -3.333001
     82          1           0        1.138323    6.609774   -1.489324
     83          1           0        1.585414    6.804483   -3.324122
     84          1           0        2.195824    7.895517   -2.091159
     85          1           0        7.685478    4.729997    0.505181
     86          1           0        9.505753    2.462971    0.081295
     87          1           0        9.008189    3.189658   -1.920042
     88          1           0        9.310471    4.952235   -1.467738
     89          1           0        7.773028    4.377698   -2.170782
     90          1           0        8.390934    2.560058    2.851387
     91          1           0        9.015749    4.063652    2.166208
     92          1           0       11.091797    2.188571    1.691328
     93          1           0       10.429011    1.869193    3.330651
     94          1           0       11.033636    3.457355    2.888021
     95          1           0        8.678586   -3.071184    2.465421
     96          1           0        9.527135   -2.078143    1.217762
     97          1           0        8.816710   -3.677048    0.855689
     98          1           0        3.327371   -4.139792    1.605188
     99          1           0        2.745109   -7.623832   -0.926071
    100          1           0        1.945970   -6.372096   -1.865784
    101          1           0        1.171679   -7.064518   -0.366448
    102          1           0       -3.175917   -5.152561   -0.253052
    103          1           0       -2.453885   -4.150261   -1.593952
    104          1           0       -3.886591   -2.296344   -0.755318
    105          1           0       -6.977401   -4.773798    0.394111
    106          1           0       -5.269361   -5.324378    0.837061
    107          1           0       -6.062941   -5.547389   -0.845914
    108          1           0       -5.989769   -1.547702   -0.287717
    109          1           0       -6.988744   -2.535469    0.526647
    110          1           0       -8.431913   -2.841345   -0.965664
    111          1           0       -7.450186   -3.318412   -2.254778
    112          1           0       -7.027179   -1.126555   -3.043150
    113          1           0       -7.476220   -0.263465   -1.735413
    114          1           0       -9.897274   -1.804754   -2.416182
    115          1           0       -9.823768    0.508221   -4.253322
    116          1           0      -10.290533   -1.108875   -4.372727
    117          1           0       -8.592930   -0.595638   -4.711424
    118          1           0      -10.829620    0.592899   -2.263877
    119          1           0       -9.439958    1.199162   -1.660635
    120          1           0       -9.674833   -0.477368    0.419279
    121          1           0      -11.092743   -1.121687   -0.528175
    122          1           0      -12.389916    0.279366    0.409096
    123          1           0      -11.921699    1.442812   -0.597757
    124          1           0       -9.756612    1.464497    1.419489
    125          1           0      -11.640667   -0.160680    2.640337
    126          1           0      -11.969825    1.509006    3.191370
    127          1           0      -10.396579    0.917976    3.310505
    128          1           0      -11.345733    3.440626    2.257784
    129          1           0      -11.883987    3.391830    0.562164
    130          1           0       -9.968637    4.685130    0.102475
    131          1           0       -9.057351    3.380497    0.596350
    132          1           0       -9.992938    4.889974    2.905867
    133          1           0       -8.722990    5.650723    1.858232
    134          1           0       -7.727130    3.009569    2.172397
    135          1           0       -9.811327    3.114015    3.998433
    136          1           0       -8.538279    3.730780    5.031121
    137          1           0       -8.371600    2.119507    4.183383
    138          1           0       -6.894032    5.729292    2.983457
    139          1           0       -5.949345    4.166965    2.604594
    140          1           0       -6.511102    4.489655    4.122230
 ---------------------------------------------------------------------

 SCF Done:  E(RwB97XD) =  -3007.85443197     A.U. after   19 cycles

 Excitation energies and oscillator strengths:

 Excited State   1:      Singlet-A      1.5959 eV  776.91 nm  f=0.4216  <S**2>=0.000
     245 -> 248        0.16054
     246 -> 247        0.68868
     245 <- 248        0.10788
 This state for optimization and/or second-order correction.
 Total Energy, E(TD-HF/TD-DFT) =  -3007.79578534
 Copying the excited state density for this state as the 1-particle RhoCI density.

 Excited State   2:      Singlet-A      2.1370 eV  580.17 nm  f=0.1684  <S**2>=0.000
     245 -> 247        0.65855
     246 -> 248       -0.23514

 Excited State   3:      Singlet-A      3.3321 eV  372.09 nm  f=0.0054  <S**2>=0.000
     243 -> 247        0.20240
     244 -> 247        0.53299
     244 -> 248        0.22774
     244 -> 249        0.19345
     244 -> 250       -0.20940
     246 -> 248        0.10742

 Excited State   4:      Singlet-A      3.3551 eV  369.54 nm  f=0.0018  <S**2>=0.000
     242 -> 247       -0.35097
     243 -> 247        0.55111
     244 -> 247       -0.18630

 Excited State   5:      Singlet-A      3.4870 eV  355.56 nm  f=0.0118  <S**2>=0.000
     242 -> 247        0.53904
     243 -> 247        0.31966
     246 -> 248        0.28394

 The electronic state is 1-A.
 Alpha  occ. eigenvalues --  -46.94729 -19.31791 -19.29187 -19.25975 -19.24476
 Alpha  occ. eigenvalues --  -19.24318 -19.22364 -14.46613 -14.46535 -14.44048
 Alpha  occ. eigenvalues --  -14.43438 -10.44458 -10.42789 -10.39673 -10.37274
 Alpha  occ. eigenvalues --  -10.35979 -10.34866 -10.34705 -10.34629 -10.34523
 Alpha  occ. eigenvalues --  -10.33964 -10.33871 -10.33468 -10.33350 -10.32895
 Alpha  occ. eigenvalues --  -10.32688 -10.32572 -10.32056 -10.31816 -10.31741
 Alpha  occ. eigenvalues --  -10.31671 -10.31626 -10.31588 -10.31381 -10.31370
 Alpha  occ. eigenvalues --  -10.31323 -10.31161 -10.31151 -10.30727 -10.30569
 Alpha  occ. eigenvalues --  -10.30417 -10.30322 -10.30293 -10.30244 -10.30128
 Alpha  occ. eigenvalues --  -10.30078 -10.29990 -10.29851 -10.29848 -10.29841
 Alpha  occ. eigenvalues --  -10.29397 -10.29328 -10.29324 -10.29319 -10.29317
 Alpha  occ. eigenvalues --  -10.29283 -10.29241 -10.29010 -10.28987 -10.28973
 Alpha  occ. eigenvalues --  -10.28879 -10.28573 -10.28534 -10.28476 -10.28398
 Alpha  occ. eigenvalues --  -10.28155  -3.20708  -1.94323  -1.93819  -1.93697
 Alpha  occ. eigenvalues --   -1.20137  -1.16912  -1.12555  -1.10644  -1.10643
 Alpha  occ. eigenvalues --   -1.08728  -1.06952  -1.06056  -1.05690  -1.04919
 Alpha  occ. eigenvalues --   -0.94635  -0.93104  -0.91801  -0.91319  -0.90471
 Alpha  occ. eigenvalues --   -0.90325  -0.89916  -0.89529  -0.89120  -0.88806
 Alpha  occ. eigenvalues --   -0.88337  -0.87690  -0.86366  -0.85582  -0.85122
 Alpha  occ. eigenvalues --   -0.84510  -0.83669  -0.83386  -0.82589  -0.81999
 Alpha  occ. eigenvalues --   -0.81969  -0.80418  -0.79670  -0.78799  -0.78343
 Alpha  occ. eigenvalues --   -0.77786  -0.77708  -0.77067  -0.76494  -0.75812
 Alpha  occ. eigenvalues --   -0.75658  -0.75070  -0.73377  -0.72467  -0.70712
 Alpha  occ. eigenvalues --   -0.70592  -0.70066  -0.69656  -0.68938  -0.67667
 Alpha  occ. eigenvalues --   -0.67528  -0.67325  -0.66525  -0.66451  -0.66330
 Alpha  occ. eigenvalues --   -0.66082  -0.65940  -0.65170  -0.63510  -0.62737
 Alpha  occ. eigenvalues --   -0.62484  -0.61622  -0.61220  -0.60513  -0.60150
 Alpha  occ. eigenvalues --   -0.59807  -0.59552  -0.58361  -0.57622  -0.57490
 Alpha  occ. eigenvalues --   -0.57085  -0.56575  -0.56371  -0.55939  -0.55681
 Alpha  occ. eigenvalues --   -0.55426  -0.55216  -0.54900  -0.54697  -0.54514
 Alpha  occ. eigenvalues --   -0.54252  -0.54016  -0.53843  -0.53704  -0.53469
 Alpha  occ. eigenvalues --   -0.53383  -0.53181  -0.52864  -0.52686  -0.52425
 Alpha  occ. eigenvalues --   -0.52037  -0.51955  -0.51773  -0.51646  -0.51290
 Alpha  occ. eigenvalues --   -0.51203  -0.51128  -0.50845  -0.50600  -0.50488
 Alpha  occ. eigenvalues --   -0.50306  -0.50110  -0.49868  -0.49816  -0.49679
 Alpha  occ. eigenvalues --   -0.49438  -0.49193  -0.49151  -0.49099  -0.48699
 Alpha  occ. eigenvalues --   -0.48587  -0.48479  -0.48207  -0.48163  -0.47959
 Alpha  occ. eigenvalues --   -0.47895  -0.47804  -0.47567  -0.46922  -0.46845
 Alpha  occ. eigenvalues --   -0.46669  -0.46533  -0.46450  -0.46421  -0.46103
 Alpha  occ. eigenvalues --   -0.45870  -0.45767  -0.45510  -0.45463  -0.45331
 Alpha  occ. eigenvalues --   -0.45024  -0.44583  -0.44300  -0.44118  -0.44092
 Alpha  occ. eigenvalues --   -0.43871  -0.43661  -0.43568  -0.43268  -0.42915
 Alpha  occ. eigenvalues --   -0.42460  -0.42410  -0.42237  -0.42129  -0.41883
 Alpha  occ. eigenvalues --   -0.41821  -0.41612  -0.41548  -0.40999  -0.40975
 Alpha  occ. eigenvalues --   -0.40525  -0.40404  -0.40287  -0.40205  -0.39429
 Alpha  occ. eigenvalues --   -0.39419  -0.38637  -0.38560  -0.38408  -0.37986
 Alpha  occ. eigenvalues --   -0.37251  -0.37164  -0.36875  -0.36440  -0.36163
 Alpha  occ. eigenvalues --   -0.35936  -0.35146  -0.34573  -0.33525  -0.33143
 Alpha  occ. eigenvalues --   -0.32827  -0.32173  -0.31886  -0.31778  -0.25883
 Alpha  occ. eigenvalues --   -0.22890
 Alpha virt. eigenvalues --   -0.07474   0.00860   0.02934   0.04676   0.06016
 Alpha virt. eigenvalues --    0.06762   0.07082   0.07319   0.08038   0.09519
 Alpha virt. eigenvalues --    0.10626   0.11425   0.11475   0.12040   0.12381

 Mulliken charges:
               1
     1  Mg   0.970500
     2  C   -0.036196
     3  C   -0.084305
     4  C   -0.065298
     5  C   -0.073340
     6  N   -0.394576
     7  C    0.023666
     8  C   -0.089872
     9  C   -0.091030
    10  C    0.083682
    11  C    0.034684
    12  C    0.039920
    13  C   -0.026833
    14  C    0.225149
    15  O   -0.276637
    16  O   -0.351238
    17  N   -0.458393
    18  C    0.113514
    19  C   -0.127837
    20  C   -0.025328
    21  C    0.154535
    22  C    0.061893
    23  C   -0.037771
    24  O   -0.263850
    25  C   -0.003993
    26  N   -0.343352
    27  C    0.042851
    28  C   -0.084954
    29  C   -0.073018
    30  C    0.068975
    31  C    0.027375
    32  C   -0.020697
    33  C   -0.056074
    34  N   -0.367228
    35  C    0.083168
    36  C   -0.212920
    37  C   -0.032698
    38  C    0.121556
    39  C    0.089926
    40  C    0.132812
    41  O   -0.187276
    42  C   -0.039503
    43  C    0.279076
    44  O   -0.254237
    45  O   -0.385322
    46  C    0.133987
    47  C    0.252299
    48  C   -0.151892
    49  C   -0.209630
    50  C    0.062320
    51  C    0.005656
    52  C   -0.010606
    53  C    0.041119
    54  C   -0.168630
    55  C   -0.017852
    56  C   -0.028599
    57  C   -0.013395
    58  C    0.020203
    59  C   -0.159491
    60  C   -0.005725
    61  C    0.038670
    62  C   -0.043815
    63  C    0.009004
    64  C   -0.249693
    65  C    0.009681
    66  C    0.001957
    67  H   -0.007707
    68  H    0.030412
    69  H   -0.003374
    70  H    0.047458
    71  H    0.036458
    72  H    0.032521
    73  H    0.055394
    74  H    0.044448
    75  H    0.028294
    76  H    0.038706
    77  H    0.049279
    78  H    0.056605
    79  H    0.036954
    80  H    0.028702
    81  H    0.051783
    82  H    0.045595
    83  H    0.071227
    84  H    0.044173
    85  H    0.045373
    86  H    0.025960
    87  H    0.042531
    88  H    0.057207
    89  H    0.031175
    90  H    0.043919
    91  H    0.025683
    92  H    0.032085
    93  H    0.040372
    94  H    0.038023
    95  H    0.055792
    96  H    0.041740
    97  H    0.055223
    98  H    0.073214
    99  H    0.041307
   100  H    0.067388
   101  H    0.067096
   102  H    0.031845
   103  H    0.060312
   104  H    0.015265
   105  H    0.028033
   106  H    0.069573
   107  H    0.056417
   108  H    0.012311
   109  H    0.018585
   110  H    0.020121
   111  H    0.028371
   112  H    0.024276
   113  H    0.009217
   114  H    0.024633
   115  H    0.020326
   116  H    0.022113
   117  H    0.029505
   118  H    0.011815
   119  H    0.015655
   120  H    0.035594
   121  H    0.011918
   122  H    0.008447
   123  H    0.005401
   124  H    0.016058
   125  H    0.040162
   126  H    0.021800
   127  H    0.008203
   128  H   -0.007106
   129  H    0.027324
   130  H    0.017247
   131  H    0.000645
   132  H    0.022015
   133  H    0.022246
   134  H    0.028044
   135  H    0.016915
   136  H    0.038557
   137  H    0.039049
   138  H    0.042974
   139  H    0.026178
   140  H    0.003864
 Sum of Mulliken charges =  -0.00000

 Dipole moment (field-independent basis, Debye):
    X=             -5.1485    Y=              2.0638    Z=              0.9647  Tot=              5.6300
 Quadrupole moment (field-independent basis, Debye-Ang):
   XX=           -361.9518   YY=           -439.2304   ZZ=           -401.7174
   XY=             23.9259   XZ=             10.6388   YZ=             -0.4799

 Normal termination of Gaussian 16 at Fri Apr 29 08:45:36 2022.
