 Gaussian 16, Revision A.03,
 Gaussian 16:  ES64L-G16RevA.03 25-Dec-2016

 --------------------
 #p ZINDO=(nstates=5)
 --------------------

 -----------------------------
 step_201_chromophore_21 ZINDO
 -----------------------------
 Symbolic Z-matrix:
 Charge =  0 Multiplicity = 1

                         Standard orientation:
 ---------------------------------------------------------------------
 Center     Atomic      Atomic             Coordinates (Angstroms)
 Number     Number       Type             X           Y           Z
 ---------------------------------------------------------------------
      1         12           0        4.506084    0.956593   -0.147782
      2          6           0        3.819213   -2.407575    0.436271
      3          6           0        1.344470    1.340587   -1.231838
      4          6           0        5.387351    4.058825   -0.861195
      5          6           0        7.912835    0.286687    1.008461
      6          7           0        2.855487   -0.313919   -0.231555
      7          6           0        2.770814   -1.623571    0.126841
      8          6           0        1.293303   -2.099517    0.040584
      9          6           0        0.610056   -1.047078   -0.779648
     10          6           0        1.692215    0.083790   -0.789204
     11          6           0        0.287200   -1.435987   -2.226796
     12          6           0        0.652300   -2.503908    1.485539
     13          6           0        0.038030   -3.891342    1.555206
     14          6           0       -0.946100   -4.473918    0.473843
     15          8           0       -0.733480   -5.444363   -0.264588
     16          8           0       -1.983546   -3.606939    0.369471
     17          7           0        3.515099    2.555042   -0.970554
     18          6           0        2.182422    2.534546   -1.265735
     19          6           0        1.739046    3.831176   -1.728416
     20          6           0        2.931919    4.639146   -1.575959
     21          6           0        4.023078    3.781706   -1.104237
     22          6           0        0.375563    4.132308   -2.307195
     23          6           0        3.047194    6.042714   -1.765879
     24          8           0        4.107241    6.620312   -1.502399
     25          6           0        1.850019    6.877849   -2.269128
     26          7           0        6.350305    2.042143    0.252578
     27          6           0        6.436321    3.326197   -0.245993
     28          6           0        7.848085    3.851826   -0.119450
     29          6           0        8.597716    2.712498    0.631613
     30          6           0        7.568878    1.591737    0.623683
     31          6           0        8.607590    4.120020   -1.518359
     32          6           0        9.058464    2.977240    2.097379
     33          6           0       10.495570    2.586323    2.512035
     34          7           0        5.713326   -0.683997    0.593100
     35          6           0        7.000425   -0.829615    0.923786
     36          6           0        7.311799   -2.243702    1.145327
     37          6           0        6.091304   -2.866734    1.025257
     38          6           0        5.177209   -1.925529    0.597273
     39          6           0        8.697905   -2.753859    1.423331
     40          6           0        5.393105   -4.165434    1.086441
     41          8           0        5.829176   -5.246691    1.438819
     42          6           0        3.882903   -3.919437    0.693161
     43          6           0        3.374209   -4.739011   -0.398936
     44          8           0        3.414658   -4.483734   -1.600665
     45          8           0        2.777875   -5.886564    0.116737
     46          6           0        2.094104   -6.752573   -0.855635
     47          6           0       -2.928364   -4.153932   -0.612281
     48          6           0       -4.175881   -3.340453   -0.638179
     49          6           0       -5.440668   -3.646250   -0.384315
     50          6           0       -5.954118   -4.964439    0.069130
     51          6           0       -6.464027   -2.518928   -0.428671
     52          6           0       -7.569932   -2.504007   -1.541452
     53          6           0       -7.753507   -1.192927   -2.233018
     54          6           0       -9.284072   -0.913406   -2.546401
     55          6           0       -9.451117   -0.494902   -4.046030
     56          6           0       -9.973380    0.249225   -1.683868
     57          6           0      -10.456561   -0.264463   -0.309570
     58          6           0      -11.476246    0.831117    0.187259
     59          6           0      -10.835998    1.578640    1.325356
     60          6           0      -11.269571    0.864404    2.659920
     61          6           0      -11.084916    3.118154    1.250441
     62          6           0       -9.852292    4.029235    0.965381
     63          6           0       -9.204711    4.724586    2.171745
     64          6           0       -8.099149    3.783418    2.843214
     65          6           0       -8.729742    3.147101    4.130842
     66          6           0       -6.802471    4.647670    3.083960
     67          1           0        0.305480    1.552962   -1.491779
     68          1           0        5.685901    5.068937   -1.150065
     69          1           0        8.939298    0.066210    1.307472
     70          1           0        1.227921   -3.099014   -0.388960
     71          1           0       -0.230405   -0.566251   -0.277205
     72          1           0       -0.793678   -1.505388   -2.343499
     73          1           0        0.658319   -2.422354   -2.503115
     74          1           0        0.722183   -0.666399   -2.863959
     75          1           0       -0.103881   -1.768137    1.759654
     76          1           0        1.400899   -2.450961    2.275891
     77          1           0       -0.638898   -3.830235    2.407972
     78          1           0        0.870291   -4.540591    1.825250
     79          1           0       -0.187692    4.896252   -1.770828
     80          1           0       -0.347010    3.315846   -2.303759
     81          1           0        0.349950    4.501237   -3.333001
     82          1           0        1.138323    6.609774   -1.489324
     83          1           0        1.585414    6.804483   -3.324122
     84          1           0        2.195824    7.895517   -2.091159
     85          1           0        7.685478    4.729997    0.505181
     86          1           0        9.505753    2.462971    0.081295
     87          1           0        9.008189    3.189658   -1.920042
     88          1           0        9.310471    4.952235   -1.467738
     89          1           0        7.773028    4.377698   -2.170782
     90          1           0        8.390934    2.560058    2.851387
     91          1           0        9.015749    4.063652    2.166208
     92          1           0       11.091797    2.188571    1.691328
     93          1           0       10.429011    1.869193    3.330651
     94          1           0       11.033636    3.457355    2.888021
     95          1           0        8.678586   -3.071184    2.465421
     96          1           0        9.527135   -2.078143    1.217762
     97          1           0        8.816710   -3.677048    0.855689
     98          1           0        3.327371   -4.139792    1.605188
     99          1           0        2.745109   -7.623832   -0.926071
    100          1           0        1.945970   -6.372096   -1.865784
    101          1           0        1.171679   -7.064518   -0.366448
    102          1           0       -3.175917   -5.152561   -0.253052
    103          1           0       -2.453885   -4.150261   -1.593952
    104          1           0       -3.886591   -2.296344   -0.755318
    105          1           0       -6.977401   -4.773798    0.394111
    106          1           0       -5.269361   -5.324378    0.837061
    107          1           0       -6.062941   -5.547389   -0.845914
    108          1           0       -5.989769   -1.547702   -0.287717
    109          1           0       -6.988744   -2.535469    0.526647
    110          1           0       -8.431913   -2.841345   -0.965664
    111          1           0       -7.450186   -3.318412   -2.254778
    112          1           0       -7.027179   -1.126555   -3.043150
    113          1           0       -7.476220   -0.263465   -1.735413
    114          1           0       -9.897274   -1.804754   -2.416182
    115          1           0       -9.823768    0.508221   -4.253322
    116          1           0      -10.290533   -1.108875   -4.372727
    117          1           0       -8.592930   -0.595638   -4.711424
    118          1           0      -10.829620    0.592899   -2.263877
    119          1           0       -9.439958    1.199162   -1.660635
    120          1           0       -9.674833   -0.477368    0.419279
    121          1           0      -11.092743   -1.121687   -0.528175
    122          1           0      -12.389916    0.279366    0.409096
    123          1           0      -11.921699    1.442812   -0.597757
    124          1           0       -9.756612    1.464497    1.419489
    125          1           0      -11.640667   -0.160680    2.640337
    126          1           0      -11.969825    1.509006    3.191370
    127          1           0      -10.396579    0.917976    3.310505
    128          1           0      -11.345733    3.440626    2.257784
    129          1           0      -11.883987    3.391830    0.562164
    130          1           0       -9.968637    4.685130    0.102475
    131          1           0       -9.057351    3.380497    0.596350
    132          1           0       -9.992938    4.889974    2.905867
    133          1           0       -8.722990    5.650723    1.858232
    134          1           0       -7.727130    3.009569    2.172397
    135          1           0       -9.811327    3.114015    3.998433
    136          1           0       -8.538279    3.730780    5.031121
    137          1           0       -8.371600    2.119507    4.183383
    138          1           0       -6.894032    5.729292    2.983457
    139          1           0       -5.949345    4.166965    2.604594
    140          1           0       -6.511102    4.489655    4.122230
 ---------------------------------------------------------------------

 SCF Done:  E(RZINDO/S) =  -474.352632317     A.U. after   20 cycles

 Excitation energies and oscillator strengths:

 Excited State   1:      Singlet-A      1.2157 eV 1019.89 nm  f=0.6798  <S**2>=0.000
     175 ->178        -0.17803
     176 ->177         0.66554
 This state for optimization and/or second-order correction.
 Total Energy, E(CIS/TDA) =  -474.307957397
 Copying the excited state density for this state as the 1-particle RhoCI density.

 Excited State   2:      Singlet-A      1.9189 eV  646.13 nm  f=0.1174  <S**2>=0.000
     175 ->177         0.58854
     176 ->178         0.36050

 Excited State   3:      Singlet-A      2.8277 eV  438.46 nm  f=0.0125  <S**2>=0.000
     170 ->177         0.34456
     170 ->178         0.19932
     170 ->179         0.27780
     170 ->181         0.30361
     170 ->186        -0.17523
     170 ->188         0.16153
     170 ->201         0.11592
     173 ->177        -0.10060

 Excited State   4:      Singlet-A      3.0361 eV  408.36 nm  f=0.3756  <S**2>=0.000
     168 ->177         0.15382
     168 ->179        -0.19961
     168 ->181         0.10751
     173 ->177         0.12284
     174 ->177        -0.18454
     175 ->177        -0.20969
     176 ->178         0.39270
     176 ->179         0.29279

 Excited State   5:      Singlet-A      3.0583 eV  405.40 nm  f=0.2582  <S**2>=0.000
     168 ->177         0.23046
     168 ->179        -0.33658
     168 ->181         0.19950
     168 ->182        -0.14768
     168 ->186         0.14696
     169 ->179        -0.10401
     175 ->177         0.17165
     176 ->178        -0.30920

 The electronic state is 1-A.
 Alpha  occ. eigenvalues --   -1.85718  -1.81918  -1.81061  -1.75697  -1.72185
 Alpha  occ. eigenvalues --   -1.71298  -1.65354  -1.60175  -1.58656  -1.58505
 Alpha  occ. eigenvalues --   -1.55099  -1.50247  -1.49077  -1.47451  -1.45947
 Alpha  occ. eigenvalues --   -1.45071  -1.43258  -1.39698  -1.39105  -1.38212
 Alpha  occ. eigenvalues --   -1.36538  -1.34112  -1.33641  -1.32004  -1.28197
 Alpha  occ. eigenvalues --   -1.27900  -1.25029  -1.22056  -1.20768  -1.18393
 Alpha  occ. eigenvalues --   -1.17700  -1.16335  -1.15312  -1.14302  -1.12461
 Alpha  occ. eigenvalues --   -1.12078  -1.11033  -1.09171  -1.05413  -1.04035
 Alpha  occ. eigenvalues --   -1.03462  -1.01980  -0.98781  -0.97725  -0.96566
 Alpha  occ. eigenvalues --   -0.95540  -0.95219  -0.94134  -0.93263  -0.92824
 Alpha  occ. eigenvalues --   -0.91468  -0.91143  -0.90323  -0.88206  -0.87382
 Alpha  occ. eigenvalues --   -0.85930  -0.83775  -0.83320  -0.82543  -0.80289
 Alpha  occ. eigenvalues --   -0.79966  -0.78604  -0.77138  -0.76776  -0.76597
 Alpha  occ. eigenvalues --   -0.76211  -0.74930  -0.74560  -0.73809  -0.73405
 Alpha  occ. eigenvalues --   -0.72448  -0.72246  -0.71555  -0.70949  -0.70439
 Alpha  occ. eigenvalues --   -0.69756  -0.68785  -0.67937  -0.67476  -0.67175
 Alpha  occ. eigenvalues --   -0.67149  -0.67065  -0.66592  -0.66065  -0.65410
 Alpha  occ. eigenvalues --   -0.65315  -0.65024  -0.64367  -0.63592  -0.63443
 Alpha  occ. eigenvalues --   -0.63115  -0.62825  -0.62381  -0.62356  -0.61738
 Alpha  occ. eigenvalues --   -0.61102  -0.61005  -0.60614  -0.60356  -0.60154
 Alpha  occ. eigenvalues --   -0.59760  -0.59630  -0.59476  -0.59028  -0.58669
 Alpha  occ. eigenvalues --   -0.58497  -0.57667  -0.57147  -0.56783  -0.56603
 Alpha  occ. eigenvalues --   -0.56417  -0.56065  -0.55644  -0.55154  -0.55087
 Alpha  occ. eigenvalues --   -0.55019  -0.54467  -0.53482  -0.53229  -0.52790
 Alpha  occ. eigenvalues --   -0.52703  -0.52345  -0.52113  -0.51528  -0.51381
 Alpha  occ. eigenvalues --   -0.51074  -0.51038  -0.50261  -0.50214  -0.50177
 Alpha  occ. eigenvalues --   -0.50008  -0.49947  -0.49452  -0.49326  -0.49164
 Alpha  occ. eigenvalues --   -0.48653  -0.48525  -0.47950  -0.47625  -0.47412
 Alpha  occ. eigenvalues --   -0.47392  -0.47204  -0.46951  -0.46640  -0.46606
 Alpha  occ. eigenvalues --   -0.46454  -0.46072  -0.45892  -0.45526  -0.45368
 Alpha  occ. eigenvalues --   -0.45234  -0.44796  -0.44300  -0.43562  -0.43401
 Alpha  occ. eigenvalues --   -0.43124  -0.42995  -0.42858  -0.42556  -0.42423
 Alpha  occ. eigenvalues --   -0.41680  -0.41179  -0.39836  -0.39091  -0.38675
 Alpha  occ. eigenvalues --   -0.38314  -0.36863  -0.35502  -0.34630  -0.33844
 Alpha  occ. eigenvalues --   -0.32980  -0.32966  -0.32525  -0.32244  -0.26530
 Alpha  occ. eigenvalues --   -0.21731
 Alpha virt. eigenvalues --   -0.08927  -0.01340  -0.00242   0.00864   0.01520
 Alpha virt. eigenvalues --    0.02435   0.03307   0.03604   0.04770   0.05182
 Alpha virt. eigenvalues --    0.06539   0.06774   0.07439   0.07974   0.08232

 Mulliken charges:
               1
     1  Mg   0.423031
     2  C   -0.048325
     3  C   -0.093884
     4  C   -0.058918
     5  C   -0.081284
     6  N   -0.280468
     7  C    0.134911
     8  C   -0.002468
     9  C    0.007977
    10  C    0.131003
    11  C   -0.047994
    12  C   -0.023259
    13  C    0.001444
    14  C    0.469977
    15  O   -0.515032
    16  O   -0.257357
    17  N   -0.303665
    18  C    0.092200
    19  C   -0.003285
    20  C   -0.045690
    21  C    0.143199
    22  C   -0.037412
    23  C    0.317195
    24  O   -0.554168
    25  C   -0.046071
    26  N   -0.270289
    27  C    0.129806
    28  C    0.000499
    29  C    0.000363
    30  C    0.144381
    31  C   -0.054985
    32  C   -0.031634
    33  C   -0.057434
    34  N   -0.319731
    35  C    0.103761
    36  C    0.038026
    37  C   -0.042940
    38  C    0.110630
    39  C   -0.038057
    40  C    0.335557
    41  O   -0.508144
    42  C    0.060410
    43  C    0.494822
    44  O   -0.523081
    45  O   -0.273266
    46  C    0.072718
    47  C    0.105208
    48  C   -0.097256
    49  C    0.004953
    50  C   -0.044017
    51  C   -0.031477
    52  C   -0.020293
    53  C   -0.028711
    54  C   -0.019755
    55  C   -0.069109
    56  C   -0.037508
    57  C   -0.041129
    58  C   -0.036192
    59  C   -0.004392
    60  C   -0.066319
    61  C   -0.037374
    62  C   -0.043287
    63  C   -0.034373
    64  C   -0.021777
    65  C   -0.057744
    66  C   -0.069967
    67  H    0.027938
    68  H    0.044754
    69  H    0.033696
    70  H    0.035261
    71  H    0.031088
    72  H    0.016165
    73  H    0.031524
    74  H    0.028944
    75  H    0.020876
    76  H    0.023859
    77  H    0.027455
    78  H    0.038996
    79  H    0.024027
    80  H    0.020531
    81  H    0.029630
    82  H    0.040714
    83  H    0.049769
    84  H    0.030468
    85  H    0.041959
    86  H    0.029488
    87  H    0.029667
    88  H    0.032743
    89  H    0.021585
    90  H    0.027720
    91  H    0.014083
    92  H    0.021732
    93  H    0.019500
    94  H    0.018427
    95  H    0.035379
    96  H    0.032044
    97  H    0.033213
    98  H    0.053442
    99  H    0.030732
   100  H    0.059386
   101  H    0.043147
   102  H    0.042879
   103  H    0.055507
   104  H    0.018131
   105  H    0.022824
   106  H    0.041761
   107  H    0.035583
   108  H    0.016922
   109  H    0.010959
   110  H    0.014908
   111  H    0.023039
   112  H    0.023373
   113  H    0.017639
   114  H    0.026997
   115  H    0.016116
   116  H    0.009864
   117  H    0.021016
   118  H    0.013871
   119  H    0.025830
   120  H    0.036203
   121  H    0.016628
   122  H    0.009853
   123  H    0.020199
   124  H    0.024853
   125  H    0.030157
   126  H    0.014830
   127  H    0.009051
   128  H    0.015786
   129  H    0.023913
   130  H    0.017940
   131  H    0.006346
   132  H    0.024665
   133  H    0.020959
   134  H    0.027235
   135  H    0.019067
   136  H    0.026663
   137  H    0.017999
   138  H    0.032986
   139  H    0.020580
   140  H    0.004377
 Sum of Mulliken charges =  -0.00000

 Dipole moment (field-independent basis, Debye):
    X=             -5.7789    Y=              2.4186    Z=              2.5723  Tot=              6.7721
 N-N= 4.410038760024D+03 E-N= 0.000000000000D+00  KE=-9.494503463491D+03
 Leave Link  601 at Fri Apr 29 08:59:29 2022, MaxMem=  6710886400 cpu:               0.8 elap:               0.1
 (Enter /sw/apps/gaussian-16.0/g16/l9999.exe)
 1\1\GINC-BP1-COMPUTE156\SP\RZINDO CIS\STO-3G\C55H74Mg1N4O6\OF15641\29-
 Apr-2022\0\\#p ZINDO=(nstates=5)\\step_201_chromophore_21 ZINDO\\0,1\M
 g,0,15.751,52.569,25.114\C,0,17.431,51.395,27.93\C,0,13.21,53.508,27.1
 09\C,0,14.198,53.417,22.325\C,0,18.602,51.405,23.137\N,0,15.473,52.562
 ,27.18\C,0,16.313,52.11,28.15\C,0,15.742,52.468,29.551\C,0,14.307,52.8
 15,29.291\C,0,14.301,52.943,27.731\C,0,13.28,51.755,29.705\C,0,16.665,
 53.527,30.381\C,0,17.069,53.079,31.775\C,0,16.071,52.467,32.827\O,0,16

 Normal termination of Gaussian 16 at Fri Apr 29 08:59:30 2022.
