 Gaussian 16, Revision A.03,
 Gaussian 16:  ES64L-G16RevA.03 25-Dec-2016

 ------------------------------
 #p blyp/Def2SVP td=(nstates=5)
 ------------------------------

 -------------------------------------------------
 step_601_chromophore_2 TDDFT with blyp functional
 -------------------------------------------------
 Symbolic Z-matrix:
 Charge =  0 Multiplicity = 1

                         Standard orientation:
 ---------------------------------------------------------------------
 Center     Atomic      Atomic             Coordinates (Angstroms)
 Number     Number       Type             X           Y           Z
 ---------------------------------------------------------------------
      1         12           0        4.610331    1.225919   -0.383124
      2          6           0        5.309814   -2.243062   -0.401438
      3          6           0        2.273603    0.665702   -2.850320
      4          6           0        3.872767    4.482266   -0.165174
      5          6           0        6.790688    1.593223    2.277731
      6          7           0        3.743339   -0.672299   -1.280856
      7          6           0        4.244800   -1.916561   -1.232502
      8          6           0        3.517932   -2.899539   -2.178612
      9          6           0        2.923752   -1.876012   -3.224328
     10          6           0        2.959595   -0.509689   -2.453939
     11          6           0        3.696250   -1.949125   -4.567634
     12          6           0        2.446366   -3.861640   -1.536531
     13          6           0        2.165462   -3.551795    0.011903
     14          6           0        0.968567   -4.335504    0.525508
     15          8           0        0.911775   -5.517891    0.750141
     16          8           0       -0.039857   -3.501276    0.929244
     17          7           0        3.218706    2.388016   -1.387526
     18          6           0        2.302360    2.024965   -2.350303
     19          6           0        1.601952    3.275282   -2.880203
     20          6           0        2.123829    4.365012   -2.194507
     21          6           0        3.091397    3.811746   -1.181752
     22          6           0        0.549308    3.231000   -3.963283
     23          6           0        1.782093    5.794962   -2.506352
     24          8           0        1.046057    6.026410   -3.471785
     25          6           0        2.316656    7.096175   -1.847261
     26          7           0        5.029656    2.770987    1.043109
     27          6           0        4.765860    4.073909    0.784700
     28          6           0        5.337986    4.986120    1.892058
     29          6           0        6.238793    4.050952    2.751874
     30          6           0        5.993171    2.723301    2.030211
     31          6           0        5.869441    6.359029    1.427788
     32          6           0        5.883261    3.906764    4.294621
     33          6           0        7.064923    4.138707    5.160246
     34          7           0        5.784622   -0.040149    0.844275
     35          6           0        6.660929    0.207804    1.814147
     36          6           0        7.457800   -0.947407    2.227600
     37          6           0        6.970204   -1.930347    1.343446
     38          6           0        5.922683   -1.357884    0.536514
     39          6           0        8.619995   -0.919826    3.212448
     40          6           0        7.088767   -3.333073    0.906587
     41          8           0        7.881663   -4.162458    1.319151
     42          6           0        6.009158   -3.570550   -0.233577
     43          6           0        6.636977   -4.109640   -1.482568
     44          8           0        6.798024   -5.294628   -1.696164
     45          8           0        7.123758   -3.119368   -2.267959
     46          6           0        8.033706   -3.514025   -3.340058
     47          6           0       -1.261805   -4.196916    1.601336
     48          6           0       -2.333141   -3.180014    1.513245
     49          6           0       -3.285445   -2.771400    2.420792
     50          6           0       -3.647286   -3.489854    3.687234
     51          6           0       -4.192661   -1.585864    1.887146
     52          6           0       -5.395422   -1.988070    0.940235
     53          6           0       -6.779237   -1.480399    1.510091
     54          6           0       -7.107462   -0.157328    0.796221
     55          6           0       -7.571405    0.851986    1.884993
     56          6           0       -8.132896   -0.328853   -0.347736
     57          6           0       -9.482606   -0.895818    0.118970
     58          6           0      -10.612045    0.223997    0.111748
     59          6           0      -11.640282   -0.025147   -0.987393
     60          6           0      -11.052833    0.362911   -2.348796
     61          6           0      -12.812177    0.912767   -0.624696
     62          6           0      -13.798961    0.283581    0.365284
     63          6           0      -15.244140    0.043438   -0.155440
     64          6           0      -16.381678    0.731750    0.716466
     65          6           0      -17.620432   -0.091908    0.878002
     66          6           0      -16.780449    2.077502    0.086446
     67          1           0        1.593045    0.663144   -3.704181
     68          1           0        3.584680    5.527354   -0.035969
     69          1           0        7.450310    1.797378    3.123584
     70          1           0        4.344890   -3.497186   -2.561449
     71          1           0        1.899995   -2.179965   -3.443428
     72          1           0        4.617410   -1.369572   -4.620243
     73          1           0        3.004181   -1.816070   -5.399252
     74          1           0        4.063193   -2.968370   -4.682493
     75          1           0        2.766107   -4.901375   -1.469615
     76          1           0        1.535654   -3.831846   -2.133805
     77          1           0        2.002847   -2.510632    0.289941
     78          1           0        3.039507   -3.915521    0.551958
     79          1           0        0.998376    3.527764   -4.911502
     80          1           0       -0.424926    3.689263   -3.792510
     81          1           0        0.293472    2.175326   -4.050565
     82          1           0        3.371255    7.183149   -2.110725
     83          1           0        2.174555    7.138015   -0.766799
     84          1           0        1.744204    7.943833   -2.223830
     85          1           0        4.486153    5.305652    2.491879
     86          1           0        7.276492    4.381777    2.710414
     87          1           0        6.620116    6.663055    2.156185
     88          1           0        5.033518    7.055347    1.354256
     89          1           0        6.399003    6.215881    0.485775
     90          1           0        5.461728    2.925514    4.513134
     91          1           0        5.074284    4.536594    4.663679
     92          1           0        7.570683    5.013109    4.751947
     93          1           0        7.695487    3.249421    5.166067
     94          1           0        6.911829    4.444641    6.195121
     95          1           0        9.541468   -0.519464    2.788320
     96          1           0        8.818600   -1.987523    3.304248
     97          1           0        8.453774   -0.530237    4.217299
     98          1           0        5.406095   -4.410260    0.112155
     99          1           0        7.550760   -3.595497   -4.312814
    100          1           0        8.544666   -4.461864   -3.171907
    101          1           0        8.849833   -2.793282   -3.294672
    102          1           0       -0.950034   -4.400567    2.625018
    103          1           0       -1.652358   -5.065617    1.071661
    104          1           0       -2.211255   -2.339928    0.829314
    105          1           0       -4.709378   -3.390743    3.911376
    106          1           0       -3.187230   -3.079520    4.585705
    107          1           0       -3.383551   -4.540894    3.571280
    108          1           0       -3.542565   -0.860749    1.396465
    109          1           0       -4.568913   -1.143056    2.808835
    110          1           0       -5.526668   -3.024651    0.632253
    111          1           0       -5.160219   -1.441996    0.026710
    112          1           0       -6.778698   -1.441558    2.599435
    113          1           0       -7.412864   -2.351727    1.348033
    114          1           0       -6.224681    0.337905    0.391290
    115          1           0       -7.361357    1.867475    1.548125
    116          1           0       -6.969391    0.705053    2.781998
    117          1           0       -8.624396    0.690950    2.116189
    118          1           0       -7.747155   -0.906644   -1.188841
    119          1           0       -8.245689    0.620005   -0.872392
    120          1           0       -9.454580   -1.416346    1.076580
    121          1           0       -9.794788   -1.604243   -0.648409
    122          1           0      -10.238000    1.243246    0.010948
    123          1           0      -11.089194    0.186640    1.091658
    124          1           0      -11.821972   -1.098780   -1.035831
    125          1           0      -11.142903   -0.518088   -2.985627
    126          1           0      -10.005683    0.652275   -2.431507
    127          1           0      -11.644808    1.204273   -2.707924
    128          1           0      -13.300517    1.199001   -1.555573
    129          1           0      -12.469995    1.875983   -0.245315
    130          1           0      -13.753997    0.890932    1.268301
    131          1           0      -13.395426   -0.710572    0.558671
    132          1           0      -15.344799   -1.023348   -0.357985
    133          1           0      -15.276549    0.461357   -1.161755
    134          1           0      -15.962404    0.973443    1.694126
    135          1           0      -18.543920    0.487598    0.865937
    136          1           0      -17.633119   -0.539662    1.872264
    137          1           0      -17.654843   -0.906138    0.154136
    138          1           0      -17.619188    2.626444    0.513452
    139          1           0      -17.059264    2.007657   -0.964486
    140          1           0      -15.971369    2.798228    0.212003
 ---------------------------------------------------------------------

 SCF Done:  E(RB-LYP) =  -3007.38041605     A.U. after   20 cycles

 Excitation energies and oscillator strengths:

 Excited State   1:      Singlet-A      1.7656 eV  702.21 nm  f=0.3065  <S**2>=0.000
     245 -> 248        0.17292
     246 -> 247        0.68889
     246 <- 247       -0.15780
 This state for optimization and/or second-order correction.
 Total Energy, E(TD-HF/TD-DFT) =  -3007.31553076
 Copying the excited state density for this state as the 1-particle RhoCI density.

 Excited State   2:      Singlet-A      1.7974 eV  689.79 nm  f=0.0055  <S**2>=0.000
     244 -> 247        0.69181
     245 -> 247        0.12348

 Excited State   3:      Singlet-A      1.9320 eV  641.76 nm  f=0.0416  <S**2>=0.000
     243 -> 247       -0.45936
     244 -> 247       -0.10264
     245 -> 247        0.48555
     246 -> 248       -0.15156

 Excited State   4:      Singlet-A      1.9466 eV  636.93 nm  f=0.0019  <S**2>=0.000
     242 -> 247        0.65066
     243 -> 247        0.25216
     245 -> 247        0.10480

 Excited State   5:      Singlet-A      2.0045 eV  618.53 nm  f=0.0358  <S**2>=0.000
     242 -> 247       -0.26169
     243 -> 247        0.47003
     245 -> 247        0.40943
     246 -> 248       -0.16804

 The electronic state is 1-A.
 Alpha  occ. eigenvalues --  -46.28362 -18.82692 -18.80875 -18.76389 -18.76337
 Alpha  occ. eigenvalues --  -18.75540 -18.75531 -14.03756 -14.03323 -14.02179
 Alpha  occ. eigenvalues --  -14.01349 -10.03830 -10.02783 -10.00422 -10.00313
 Alpha  occ. eigenvalues --   -9.98045  -9.98005  -9.97774  -9.97543  -9.96839
 Alpha  occ. eigenvalues --   -9.96741  -9.96614  -9.96606  -9.95891  -9.95068
 Alpha  occ. eigenvalues --   -9.94813  -9.94786  -9.94700  -9.94374  -9.94356
 Alpha  occ. eigenvalues --   -9.94346  -9.94304  -9.94078  -9.93937  -9.93892
 Alpha  occ. eigenvalues --   -9.93759  -9.93333  -9.93152  -9.93080  -9.93012
 Alpha  occ. eigenvalues --   -9.92882  -9.92845  -9.92812  -9.92737  -9.92576
 Alpha  occ. eigenvalues --   -9.92310  -9.92251  -9.92138  -9.92096  -9.92045
 Alpha  occ. eigenvalues --   -9.91980  -9.91883  -9.91517  -9.91389  -9.91142
 Alpha  occ. eigenvalues --   -9.90993  -9.90970  -9.90945  -9.90889  -9.90774
 Alpha  occ. eigenvalues --   -9.90601  -9.90507  -9.90502  -9.90478  -9.90367
 Alpha  occ. eigenvalues --   -9.90254  -2.92839  -1.73250  -1.72722  -1.72563
 Alpha  occ. eigenvalues --   -0.98594  -0.96508  -0.91900  -0.91268  -0.90089
 Alpha  occ. eigenvalues --   -0.88214  -0.87093  -0.86142  -0.85357  -0.83646
 Alpha  occ. eigenvalues --   -0.75592  -0.73381  -0.73007  -0.72583  -0.72102
 Alpha  occ. eigenvalues --   -0.71787  -0.71625  -0.70931  -0.70641  -0.69932
 Alpha  occ. eigenvalues --   -0.69710  -0.68847  -0.68228  -0.67598  -0.67175
 Alpha  occ. eigenvalues --   -0.66287  -0.65791  -0.65038  -0.64900  -0.64399
 Alpha  occ. eigenvalues --   -0.63699  -0.62617  -0.62455  -0.62194  -0.61413
 Alpha  occ. eigenvalues --   -0.60296  -0.60052  -0.59886  -0.59774  -0.58724
 Alpha  occ. eigenvalues --   -0.58038  -0.57088  -0.56490  -0.55408  -0.54690
 Alpha  occ. eigenvalues --   -0.54323  -0.53796  -0.53208  -0.52014  -0.51859
 Alpha  occ. eigenvalues --   -0.51623  -0.51536  -0.50727  -0.50386  -0.49983
 Alpha  occ. eigenvalues --   -0.49656  -0.49284  -0.48537  -0.48199  -0.46446
 Alpha  occ. eigenvalues --   -0.45768  -0.45611  -0.45377  -0.44898  -0.44365
 Alpha  occ. eigenvalues --   -0.43785  -0.43523  -0.43072  -0.42899  -0.42524
 Alpha  occ. eigenvalues --   -0.42080  -0.42036  -0.41604  -0.41121  -0.40778
 Alpha  occ. eigenvalues --   -0.40574  -0.40162  -0.40106  -0.39920  -0.39829
 Alpha  occ. eigenvalues --   -0.39732  -0.39468  -0.39323  -0.39237  -0.39215
 Alpha  occ. eigenvalues --   -0.38874  -0.38558  -0.38402  -0.38277  -0.37985
 Alpha  occ. eigenvalues --   -0.37873  -0.37718  -0.37531  -0.37425  -0.37298
 Alpha  occ. eigenvalues --   -0.37104  -0.36912  -0.36806  -0.36593  -0.36387
 Alpha  occ. eigenvalues --   -0.36080  -0.36018  -0.35810  -0.35688  -0.35577
 Alpha  occ. eigenvalues --   -0.35427  -0.35207  -0.35024  -0.34804  -0.34627
 Alpha  occ. eigenvalues --   -0.34546  -0.34224  -0.34202  -0.34110  -0.33939
 Alpha  occ. eigenvalues --   -0.33817  -0.33687  -0.33552  -0.33127  -0.32940
 Alpha  occ. eigenvalues --   -0.32763  -0.32687  -0.32597  -0.32563  -0.32535
 Alpha  occ. eigenvalues --   -0.32158  -0.32064  -0.31992  -0.31871  -0.31634
 Alpha  occ. eigenvalues --   -0.31466  -0.31220  -0.31092  -0.30921  -0.30837
 Alpha  occ. eigenvalues --   -0.30713  -0.30391  -0.30047  -0.29996  -0.29828
 Alpha  occ. eigenvalues --   -0.29693  -0.29464  -0.29180  -0.28975  -0.28801
 Alpha  occ. eigenvalues --   -0.28674  -0.28497  -0.28251  -0.28094  -0.27873
 Alpha  occ. eigenvalues --   -0.27749  -0.27504  -0.27272  -0.26999  -0.26702
 Alpha  occ. eigenvalues --   -0.26569  -0.26319  -0.25940  -0.25731  -0.25599
 Alpha  occ. eigenvalues --   -0.25399  -0.24616  -0.24324  -0.24181  -0.23798
 Alpha  occ. eigenvalues --   -0.22932  -0.22694  -0.21698  -0.21469  -0.21017
 Alpha  occ. eigenvalues --   -0.20853  -0.19191  -0.19174  -0.18590  -0.17540
 Alpha  occ. eigenvalues --   -0.16106
 Alpha virt. eigenvalues --   -0.12036  -0.07293  -0.06549  -0.05416  -0.03278
 Alpha virt. eigenvalues --   -0.02701  -0.02409  -0.02259  -0.01468  -0.00403
 Alpha virt. eigenvalues --    0.00653   0.01622   0.02174   0.02297   0.02855

 Mulliken charges:
               1
     1  Mg   0.686996
     2  C    0.090688
     3  C   -0.032741
     4  C   -0.047513
     5  C   -0.046960
     6  N   -0.209162
     7  C   -0.146567
     8  C    0.054957
     9  C   -0.000952
    10  C    0.096148
    11  C    0.135945
    12  C    0.083222
    13  C    0.119838
    14  C    0.067759
    15  O   -0.187802
    16  O   -0.297193
    17  N   -0.331185
    18  C    0.071792
    19  C   -0.133405
    20  C    0.094658
    21  C    0.109579
    22  C    0.195343
    23  C   -0.101115
    24  O   -0.185534
    25  C    0.127651
    26  N   -0.229296
    27  C    0.033013
    28  C    0.021371
    29  C    0.034189
    30  C    0.000931
    31  C    0.126081
    32  C    0.106414
    33  C    0.056523
    34  N   -0.205427
    35  C    0.073369
    36  C   -0.173022
    37  C    0.089528
    38  C    0.025879
    39  C    0.156547
    40  C   -0.051044
    41  O   -0.111897
    42  C    0.058213
    43  C    0.068874
    44  O   -0.161406
    45  O   -0.267268
    46  C    0.208607
    47  C    0.344279
    48  C   -0.087539
    49  C   -0.210394
    50  C    0.148044
    51  C    0.108077
    52  C    0.072509
    53  C    0.094254
    54  C   -0.033702
    55  C    0.083515
    56  C    0.112130
    57  C    0.088907
    58  C    0.063465
    59  C   -0.093721
    60  C    0.112517
    61  C    0.103613
    62  C    0.081628
    63  C    0.109779
    64  C   -0.051532
    65  C    0.124411
    66  C    0.073034
    67  H   -0.061839
    68  H   -0.085424
    69  H   -0.070839
    70  H   -0.027100
    71  H   -0.030372
    72  H   -0.004984
    73  H   -0.003844
    74  H   -0.016659
    75  H    0.004944
    76  H   -0.011281
    77  H    0.011463
    78  H    0.000147
    79  H    0.011728
    80  H    0.011354
    81  H   -0.036189
    82  H    0.014457
    83  H    0.009587
    84  H   -0.004855
    85  H   -0.020724
    86  H   -0.021925
    87  H   -0.011722
    88  H    0.009260
    89  H   -0.009307
    90  H   -0.017394
    91  H   -0.030611
    92  H   -0.014941
    93  H   -0.000869
    94  H   -0.015253
    95  H    0.007126
    96  H    0.002825
    97  H    0.004766
    98  H    0.003706
    99  H    0.019759
   100  H    0.019054
   101  H    0.013675
   102  H    0.009464
   103  H    0.022550
   104  H   -0.027460
   105  H   -0.017358
   106  H    0.002253
   107  H   -0.001831
   108  H   -0.016085
   109  H   -0.033962
   110  H   -0.027098
   111  H   -0.024086
   112  H   -0.036576
   113  H   -0.035068
   114  H   -0.038886
   115  H   -0.024113
   116  H   -0.020168
   117  H   -0.007102
   118  H   -0.051228
   119  H   -0.035547
   120  H   -0.016306
   121  H   -0.039137
   122  H   -0.028776
   123  H   -0.045328
   124  H   -0.035060
   125  H   -0.020458
   126  H   -0.017944
   127  H   -0.021510
   128  H   -0.043044
   129  H   -0.039156
   130  H   -0.025460
   131  H   -0.028868
   132  H   -0.036489
   133  H   -0.039728
   134  H   -0.031846
   135  H   -0.024785
   136  H   -0.027019
   137  H   -0.015484
   138  H   -0.023565
   139  H   -0.015460
   140  H   -0.027894
 Sum of Mulliken charges =  -0.00000

 Dipole moment (field-independent basis, Debye):
    X=             -0.2589    Y=              5.7091    Z=              0.6612  Tot=              5.7531
 Quadrupole moment (field-independent basis, Debye-Ang):
   XX=           -393.5238   YY=           -443.1479   ZZ=           -388.2141
   XY=             57.3913   XZ=            -11.9265   YZ=             30.4907

 Normal termination of Gaussian 16 at Thu May  5 05:06:27 2022.
