 Gaussian 16, Revision A.03,
 Gaussian 16:  ES64L-G16RevA.03 25-Dec-2016

 -----------------------------------
 #p cam-b3lyp/Def2SVP td=(nstates=5)
 -----------------------------------

 ------------------------------------------------------
 step_601_chromophore_2 TDDFT with cam-b3lyp functional
 ------------------------------------------------------
 Symbolic Z-matrix:
 Charge =  0 Multiplicity = 1

                         Standard orientation:
 ---------------------------------------------------------------------
 Center     Atomic      Atomic             Coordinates (Angstroms)
 Number     Number       Type             X           Y           Z
 ---------------------------------------------------------------------
      1         12           0        4.610331    1.225919   -0.383124
      2          6           0        5.309814   -2.243062   -0.401438
      3          6           0        2.273603    0.665702   -2.850320
      4          6           0        3.872767    4.482266   -0.165174
      5          6           0        6.790688    1.593223    2.277731
      6          7           0        3.743339   -0.672299   -1.280856
      7          6           0        4.244800   -1.916561   -1.232502
      8          6           0        3.517932   -2.899539   -2.178612
      9          6           0        2.923752   -1.876012   -3.224328
     10          6           0        2.959595   -0.509689   -2.453939
     11          6           0        3.696250   -1.949125   -4.567634
     12          6           0        2.446366   -3.861640   -1.536531
     13          6           0        2.165462   -3.551795    0.011903
     14          6           0        0.968567   -4.335504    0.525508
     15          8           0        0.911775   -5.517891    0.750141
     16          8           0       -0.039857   -3.501276    0.929244
     17          7           0        3.218706    2.388016   -1.387526
     18          6           0        2.302360    2.024965   -2.350303
     19          6           0        1.601952    3.275282   -2.880203
     20          6           0        2.123829    4.365012   -2.194507
     21          6           0        3.091397    3.811746   -1.181752
     22          6           0        0.549308    3.231000   -3.963283
     23          6           0        1.782093    5.794962   -2.506352
     24          8           0        1.046057    6.026410   -3.471785
     25          6           0        2.316656    7.096175   -1.847261
     26          7           0        5.029656    2.770987    1.043109
     27          6           0        4.765860    4.073909    0.784700
     28          6           0        5.337986    4.986120    1.892058
     29          6           0        6.238793    4.050952    2.751874
     30          6           0        5.993171    2.723301    2.030211
     31          6           0        5.869441    6.359029    1.427788
     32          6           0        5.883261    3.906764    4.294621
     33          6           0        7.064923    4.138707    5.160246
     34          7           0        5.784622   -0.040149    0.844275
     35          6           0        6.660929    0.207804    1.814147
     36          6           0        7.457800   -0.947407    2.227600
     37          6           0        6.970204   -1.930347    1.343446
     38          6           0        5.922683   -1.357884    0.536514
     39          6           0        8.619995   -0.919826    3.212448
     40          6           0        7.088767   -3.333073    0.906587
     41          8           0        7.881663   -4.162458    1.319151
     42          6           0        6.009158   -3.570550   -0.233577
     43          6           0        6.636977   -4.109640   -1.482568
     44          8           0        6.798024   -5.294628   -1.696164
     45          8           0        7.123758   -3.119368   -2.267959
     46          6           0        8.033706   -3.514025   -3.340058
     47          6           0       -1.261805   -4.196916    1.601336
     48          6           0       -2.333141   -3.180014    1.513245
     49          6           0       -3.285445   -2.771400    2.420792
     50          6           0       -3.647286   -3.489854    3.687234
     51          6           0       -4.192661   -1.585864    1.887146
     52          6           0       -5.395422   -1.988070    0.940235
     53          6           0       -6.779237   -1.480399    1.510091
     54          6           0       -7.107462   -0.157328    0.796221
     55          6           0       -7.571405    0.851986    1.884993
     56          6           0       -8.132896   -0.328853   -0.347736
     57          6           0       -9.482606   -0.895818    0.118970
     58          6           0      -10.612045    0.223997    0.111748
     59          6           0      -11.640282   -0.025147   -0.987393
     60          6           0      -11.052833    0.362911   -2.348796
     61          6           0      -12.812177    0.912767   -0.624696
     62          6           0      -13.798961    0.283581    0.365284
     63          6           0      -15.244140    0.043438   -0.155440
     64          6           0      -16.381678    0.731750    0.716466
     65          6           0      -17.620432   -0.091908    0.878002
     66          6           0      -16.780449    2.077502    0.086446
     67          1           0        1.593045    0.663144   -3.704181
     68          1           0        3.584680    5.527354   -0.035969
     69          1           0        7.450310    1.797378    3.123584
     70          1           0        4.344890   -3.497186   -2.561449
     71          1           0        1.899995   -2.179965   -3.443428
     72          1           0        4.617410   -1.369572   -4.620243
     73          1           0        3.004181   -1.816070   -5.399252
     74          1           0        4.063193   -2.968370   -4.682493
     75          1           0        2.766107   -4.901375   -1.469615
     76          1           0        1.535654   -3.831846   -2.133805
     77          1           0        2.002847   -2.510632    0.289941
     78          1           0        3.039507   -3.915521    0.551958
     79          1           0        0.998376    3.527764   -4.911502
     80          1           0       -0.424926    3.689263   -3.792510
     81          1           0        0.293472    2.175326   -4.050565
     82          1           0        3.371255    7.183149   -2.110725
     83          1           0        2.174555    7.138015   -0.766799
     84          1           0        1.744204    7.943833   -2.223830
     85          1           0        4.486153    5.305652    2.491879
     86          1           0        7.276492    4.381777    2.710414
     87          1           0        6.620116    6.663055    2.156185
     88          1           0        5.033518    7.055347    1.354256
     89          1           0        6.399003    6.215881    0.485775
     90          1           0        5.461728    2.925514    4.513134
     91          1           0        5.074284    4.536594    4.663679
     92          1           0        7.570683    5.013109    4.751947
     93          1           0        7.695487    3.249421    5.166067
     94          1           0        6.911829    4.444641    6.195121
     95          1           0        9.541468   -0.519464    2.788320
     96          1           0        8.818600   -1.987523    3.304248
     97          1           0        8.453774   -0.530237    4.217299
     98          1           0        5.406095   -4.410260    0.112155
     99          1           0        7.550760   -3.595497   -4.312814
    100          1           0        8.544666   -4.461864   -3.171907
    101          1           0        8.849833   -2.793282   -3.294672
    102          1           0       -0.950034   -4.400567    2.625018
    103          1           0       -1.652358   -5.065617    1.071661
    104          1           0       -2.211255   -2.339928    0.829314
    105          1           0       -4.709378   -3.390743    3.911376
    106          1           0       -3.187230   -3.079520    4.585705
    107          1           0       -3.383551   -4.540894    3.571280
    108          1           0       -3.542565   -0.860749    1.396465
    109          1           0       -4.568913   -1.143056    2.808835
    110          1           0       -5.526668   -3.024651    0.632253
    111          1           0       -5.160219   -1.441996    0.026710
    112          1           0       -6.778698   -1.441558    2.599435
    113          1           0       -7.412864   -2.351727    1.348033
    114          1           0       -6.224681    0.337905    0.391290
    115          1           0       -7.361357    1.867475    1.548125
    116          1           0       -6.969391    0.705053    2.781998
    117          1           0       -8.624396    0.690950    2.116189
    118          1           0       -7.747155   -0.906644   -1.188841
    119          1           0       -8.245689    0.620005   -0.872392
    120          1           0       -9.454580   -1.416346    1.076580
    121          1           0       -9.794788   -1.604243   -0.648409
    122          1           0      -10.238000    1.243246    0.010948
    123          1           0      -11.089194    0.186640    1.091658
    124          1           0      -11.821972   -1.098780   -1.035831
    125          1           0      -11.142903   -0.518088   -2.985627
    126          1           0      -10.005683    0.652275   -2.431507
    127          1           0      -11.644808    1.204273   -2.707924
    128          1           0      -13.300517    1.199001   -1.555573
    129          1           0      -12.469995    1.875983   -0.245315
    130          1           0      -13.753997    0.890932    1.268301
    131          1           0      -13.395426   -0.710572    0.558671
    132          1           0      -15.344799   -1.023348   -0.357985
    133          1           0      -15.276549    0.461357   -1.161755
    134          1           0      -15.962404    0.973443    1.694126
    135          1           0      -18.543920    0.487598    0.865937
    136          1           0      -17.633119   -0.539662    1.872264
    137          1           0      -17.654843   -0.906138    0.154136
    138          1           0      -17.619188    2.626444    0.513452
    139          1           0      -17.059264    2.007657   -0.964486
    140          1           0      -15.971369    2.798228    0.212003
 ---------------------------------------------------------------------

 SCF Done:  E(RCAM-B3LYP) =  -3007.16159709     A.U. after   17 cycles

 Excitation energies and oscillator strengths:

 Excited State   1:      Singlet-A      1.6455 eV  753.49 nm  f=0.3839  <S**2>=0.000
     245 -> 248        0.17267
     246 -> 247        0.68794
     245 <- 248        0.10781
 This state for optimization and/or second-order correction.
 Total Energy, E(TD-HF/TD-DFT) =  -3007.10112716
 Copying the excited state density for this state as the 1-particle RhoCI density.

 Excited State   2:      Singlet-A      2.1824 eV  568.12 nm  f=0.1052  <S**2>=0.000
     245 -> 247        0.64109
     246 -> 248       -0.28738

 Excited State   3:      Singlet-A      3.4559 eV  358.76 nm  f=0.3647  <S**2>=0.000
     241 -> 247       -0.12359
     241 -> 249       -0.11874
     242 -> 247       -0.31830
     243 -> 247        0.11056
     245 -> 247        0.21551
     246 -> 248        0.52976

 Excited State   4:      Singlet-A      3.4741 eV  356.88 nm  f=0.0422  <S**2>=0.000
     243 -> 247        0.65410
     246 -> 248       -0.17619

 Excited State   5:      Singlet-A      3.5094 eV  353.29 nm  f=0.0367  <S**2>=0.000
     240 -> 247        0.25150
     240 -> 249       -0.22705
     240 -> 250        0.14045
     241 -> 247        0.46559
     241 -> 249        0.16374
     241 -> 250        0.16696
     242 -> 249        0.11395
     246 -> 248        0.14919

 The electronic state is 1-A.
 Alpha  occ. eigenvalues --  -46.89943 -19.25642 -19.23672 -19.19559 -19.19448
 Alpha  occ. eigenvalues --  -19.18882 -19.18443 -14.42716 -14.42108 -14.40867
 Alpha  occ. eigenvalues --  -14.39704 -10.39266 -10.37933 -10.35709 -10.35591
 Alpha  occ. eigenvalues --  -10.32430 -10.32376 -10.32159 -10.32015 -10.31433
 Alpha  occ. eigenvalues --  -10.31174 -10.31022 -10.30952 -10.29968 -10.29644
 Alpha  occ. eigenvalues --  -10.29223 -10.28860 -10.28739 -10.28624 -10.28558
 Alpha  occ. eigenvalues --  -10.28454 -10.28309 -10.28294 -10.28196 -10.28181
 Alpha  occ. eigenvalues --  -10.28012 -10.27234 -10.27178 -10.27078 -10.26914
 Alpha  occ. eigenvalues --  -10.26793 -10.26777 -10.26655 -10.26440 -10.26428
 Alpha  occ. eigenvalues --  -10.26235 -10.26031 -10.25895 -10.25869 -10.25723
 Alpha  occ. eigenvalues --  -10.25697 -10.25603 -10.25207 -10.25071 -10.24845
 Alpha  occ. eigenvalues --  -10.24825 -10.24698 -10.24642 -10.24623 -10.24413
 Alpha  occ. eigenvalues --  -10.24262 -10.24203 -10.24127 -10.24067 -10.23968
 Alpha  occ. eigenvalues --  -10.23787  -3.18317  -1.93207  -1.92766  -1.92632
 Alpha  occ. eigenvalues --   -1.17172  -1.14919  -1.10231  -1.09762  -1.08114
 Alpha  occ. eigenvalues --   -1.05937  -1.04667  -1.03739  -1.02965  -1.01254
 Alpha  occ. eigenvalues --   -0.92693  -0.90248  -0.89653  -0.89383  -0.88791
 Alpha  occ. eigenvalues --   -0.88448  -0.88315  -0.87523  -0.87237  -0.86674
 Alpha  occ. eigenvalues --   -0.86110  -0.85195  -0.84374  -0.83794  -0.83296
 Alpha  occ. eigenvalues --   -0.82316  -0.81881  -0.80948  -0.80729  -0.80311
 Alpha  occ. eigenvalues --   -0.79465  -0.78137  -0.78122  -0.77850  -0.76876
 Alpha  occ. eigenvalues --   -0.75651  -0.75322  -0.75233  -0.75122  -0.73956
 Alpha  occ. eigenvalues --   -0.73062  -0.72019  -0.71357  -0.70184  -0.69194
 Alpha  occ. eigenvalues --   -0.68907  -0.68413  -0.67831  -0.66184  -0.66098
 Alpha  occ. eigenvalues --   -0.65869  -0.65782  -0.64582  -0.64425  -0.63712
 Alpha  occ. eigenvalues --   -0.63664  -0.63258  -0.62163  -0.62003  -0.60025
 Alpha  occ. eigenvalues --   -0.59334  -0.59133  -0.58806  -0.58258  -0.57844
 Alpha  occ. eigenvalues --   -0.57247  -0.56674  -0.56350  -0.56122  -0.55726
 Alpha  occ. eigenvalues --   -0.54974  -0.54953  -0.54532  -0.54139  -0.53970
 Alpha  occ. eigenvalues --   -0.53144  -0.53061  -0.52747  -0.52608  -0.52551
 Alpha  occ. eigenvalues --   -0.52360  -0.52180  -0.52067  -0.51760  -0.51712
 Alpha  occ. eigenvalues --   -0.51454  -0.51201  -0.50951  -0.50762  -0.50421
 Alpha  occ. eigenvalues --   -0.50351  -0.50057  -0.49911  -0.49709  -0.49601
 Alpha  occ. eigenvalues --   -0.49356  -0.49219  -0.49080  -0.49010  -0.48763
 Alpha  occ. eigenvalues --   -0.48618  -0.48263  -0.48112  -0.47894  -0.47663
 Alpha  occ. eigenvalues --   -0.47504  -0.47088  -0.46969  -0.46881  -0.46681
 Alpha  occ. eigenvalues --   -0.46518  -0.46066  -0.45984  -0.45911  -0.45848
 Alpha  occ. eigenvalues --   -0.45535  -0.45363  -0.45266  -0.45057  -0.44636
 Alpha  occ. eigenvalues --   -0.44455  -0.44359  -0.44229  -0.44133  -0.44055
 Alpha  occ. eigenvalues --   -0.43734  -0.43660  -0.43649  -0.43538  -0.43128
 Alpha  occ. eigenvalues --   -0.43009  -0.42805  -0.42536  -0.42372  -0.42242
 Alpha  occ. eigenvalues --   -0.42217  -0.42040  -0.41707  -0.41408  -0.41077
 Alpha  occ. eigenvalues --   -0.40864  -0.40533  -0.40341  -0.40057  -0.39944
 Alpha  occ. eigenvalues --   -0.39753  -0.39458  -0.39254  -0.39059  -0.38794
 Alpha  occ. eigenvalues --   -0.38631  -0.38452  -0.38303  -0.38136  -0.37447
 Alpha  occ. eigenvalues --   -0.37422  -0.37180  -0.37026  -0.36642  -0.36458
 Alpha  occ. eigenvalues --   -0.36135  -0.36042  -0.35097  -0.34880  -0.34544
 Alpha  occ. eigenvalues --   -0.33259  -0.32919  -0.32870  -0.31704  -0.31090
 Alpha  occ. eigenvalues --   -0.31009  -0.30865  -0.30334  -0.28742  -0.24343
 Alpha  occ. eigenvalues --   -0.21328
 Alpha virt. eigenvalues --   -0.09166  -0.02064  -0.00013   0.01573   0.01773
 Alpha virt. eigenvalues --    0.04549   0.05132   0.05221   0.06112   0.06443
 Alpha virt. eigenvalues --    0.07848   0.08140   0.08582   0.08842   0.08914

 Mulliken charges:
               1
     1  Mg   0.817024
     2  C    0.058175
     3  C   -0.046349
     4  C   -0.071157
     5  C   -0.050442
     6  N   -0.273126
     7  C   -0.100860
     8  C    0.010112
     9  C   -0.055683
    10  C    0.105171
    11  C    0.079712
    12  C    0.034615
    13  C    0.049712
    14  C    0.151697
    15  O   -0.228967
    16  O   -0.362933
    17  N   -0.414151
    18  C    0.081356
    19  C   -0.136181
    20  C    0.020706
    21  C    0.141844
    22  C    0.141305
    23  C   -0.029820
    24  O   -0.224029
    25  C    0.055785
    26  N   -0.300912
    27  C    0.055220
    28  C   -0.029695
    29  C   -0.027882
    30  C    0.019116
    31  C    0.069795
    32  C    0.051921
    33  C   -0.004400
    34  N   -0.292528
    35  C    0.078004
    36  C   -0.168829
    37  C    0.011189
    38  C    0.055929
    39  C    0.107042
    40  C    0.047597
    41  O   -0.151381
    42  C   -0.016431
    43  C    0.156308
    44  O   -0.199999
    45  O   -0.328047
    46  C    0.170630
    47  C    0.312356
    48  C   -0.111321
    49  C   -0.221693
    50  C    0.081869
    51  C    0.053627
    52  C    0.020233
    53  C    0.033718
    54  C   -0.092647
    55  C    0.031883
    56  C    0.063256
    57  C    0.026473
    58  C    0.017430
    59  C   -0.149872
    60  C    0.053731
    61  C    0.045260
    62  C    0.025953
    63  C    0.055873
    64  C   -0.114015
    65  C    0.061175
    66  C    0.015762
    67  H   -0.026812
    68  H   -0.053461
    69  H   -0.040538
    70  H    0.006520
    71  H    0.005397
    72  H    0.020269
    73  H    0.020496
    74  H    0.007135
    75  H    0.035663
    76  H    0.017901
    77  H    0.044554
    78  H    0.028861
    79  H    0.040041
    80  H    0.040353
    81  H   -0.010986
    82  H    0.041293
    83  H    0.035010
    84  H    0.030546
    85  H    0.014666
    86  H    0.013512
    87  H    0.012994
    88  H    0.029936
    89  H    0.016067
    90  H    0.013757
    91  H   -0.001380
    92  H    0.005511
    93  H    0.019783
    94  H    0.011645
    95  H    0.032904
    96  H    0.029339
    97  H    0.028850
    98  H    0.043942
    99  H    0.039456
   100  H    0.045149
   101  H    0.036919
   102  H    0.037953
   103  H    0.051260
   104  H    0.005709
   105  H    0.006937
   106  H    0.027958
   107  H    0.021285
   108  H    0.012740
   109  H   -0.007087
   110  H    0.002583
   111  H    0.003041
   112  H   -0.008107
   113  H   -0.004734
   114  H   -0.007008
   115  H    0.000986
   116  H    0.003428
   117  H    0.013188
   118  H   -0.020268
   119  H   -0.008445
   120  H    0.011833
   121  H   -0.009544
   122  H   -0.002060
   123  H   -0.016058
   124  H   -0.003118
   125  H    0.003984
   126  H    0.005086
   127  H    0.003601
   128  H   -0.013963
   129  H   -0.008404
   130  H    0.001923
   131  H   -0.000136
   132  H   -0.006498
   133  H   -0.011561
   134  H   -0.000296
   135  H    0.000894
   136  H   -0.001618
   137  H    0.008237
   138  H    0.001765
   139  H    0.007848
   140  H   -0.003837
 Sum of Mulliken charges =  -0.00000

 Dipole moment (field-independent basis, Debye):
    X=             -0.4892    Y=              6.3171    Z=              0.3286  Tot=              6.3446
 Quadrupole moment (field-independent basis, Debye-Ang):
   XX=           -394.3590   YY=           -439.8167   ZZ=           -386.2682
   XY=             59.1319   XZ=            -12.7801   YZ=             31.3551

 Normal termination of Gaussian 16 at Thu May  5 03:57:35 2022.
