 Gaussian 16, Revision A.03,
 Gaussian 16:  ES64L-G16RevA.03 25-Dec-2016

 ---------------------------------
 #p PBE1PBE/Def2SVP td=(nstates=5)
 ---------------------------------

 ----------------------------------------------------
 step_601_chromophore_2 TDDFT with PBE1PBE functional
 ----------------------------------------------------
 Symbolic Z-matrix:
 Charge =  0 Multiplicity = 1

                         Standard orientation:
 ---------------------------------------------------------------------
 Center     Atomic      Atomic             Coordinates (Angstroms)
 Number     Number       Type             X           Y           Z
 ---------------------------------------------------------------------
      1         12           0        4.610331    1.225919   -0.383124
      2          6           0        5.309814   -2.243062   -0.401438
      3          6           0        2.273603    0.665702   -2.850320
      4          6           0        3.872767    4.482266   -0.165174
      5          6           0        6.790688    1.593223    2.277731
      6          7           0        3.743339   -0.672299   -1.280856
      7          6           0        4.244800   -1.916561   -1.232502
      8          6           0        3.517932   -2.899539   -2.178612
      9          6           0        2.923752   -1.876012   -3.224328
     10          6           0        2.959595   -0.509689   -2.453939
     11          6           0        3.696250   -1.949125   -4.567634
     12          6           0        2.446366   -3.861640   -1.536531
     13          6           0        2.165462   -3.551795    0.011903
     14          6           0        0.968567   -4.335504    0.525508
     15          8           0        0.911775   -5.517891    0.750141
     16          8           0       -0.039857   -3.501276    0.929244
     17          7           0        3.218706    2.388016   -1.387526
     18          6           0        2.302360    2.024965   -2.350303
     19          6           0        1.601952    3.275282   -2.880203
     20          6           0        2.123829    4.365012   -2.194507
     21          6           0        3.091397    3.811746   -1.181752
     22          6           0        0.549308    3.231000   -3.963283
     23          6           0        1.782093    5.794962   -2.506352
     24          8           0        1.046057    6.026410   -3.471785
     25          6           0        2.316656    7.096175   -1.847261
     26          7           0        5.029656    2.770987    1.043109
     27          6           0        4.765860    4.073909    0.784700
     28          6           0        5.337986    4.986120    1.892058
     29          6           0        6.238793    4.050952    2.751874
     30          6           0        5.993171    2.723301    2.030211
     31          6           0        5.869441    6.359029    1.427788
     32          6           0        5.883261    3.906764    4.294621
     33          6           0        7.064923    4.138707    5.160246
     34          7           0        5.784622   -0.040149    0.844275
     35          6           0        6.660929    0.207804    1.814147
     36          6           0        7.457800   -0.947407    2.227600
     37          6           0        6.970204   -1.930347    1.343446
     38          6           0        5.922683   -1.357884    0.536514
     39          6           0        8.619995   -0.919826    3.212448
     40          6           0        7.088767   -3.333073    0.906587
     41          8           0        7.881663   -4.162458    1.319151
     42          6           0        6.009158   -3.570550   -0.233577
     43          6           0        6.636977   -4.109640   -1.482568
     44          8           0        6.798024   -5.294628   -1.696164
     45          8           0        7.123758   -3.119368   -2.267959
     46          6           0        8.033706   -3.514025   -3.340058
     47          6           0       -1.261805   -4.196916    1.601336
     48          6           0       -2.333141   -3.180014    1.513245
     49          6           0       -3.285445   -2.771400    2.420792
     50          6           0       -3.647286   -3.489854    3.687234
     51          6           0       -4.192661   -1.585864    1.887146
     52          6           0       -5.395422   -1.988070    0.940235
     53          6           0       -6.779237   -1.480399    1.510091
     54          6           0       -7.107462   -0.157328    0.796221
     55          6           0       -7.571405    0.851986    1.884993
     56          6           0       -8.132896   -0.328853   -0.347736
     57          6           0       -9.482606   -0.895818    0.118970
     58          6           0      -10.612045    0.223997    0.111748
     59          6           0      -11.640282   -0.025147   -0.987393
     60          6           0      -11.052833    0.362911   -2.348796
     61          6           0      -12.812177    0.912767   -0.624696
     62          6           0      -13.798961    0.283581    0.365284
     63          6           0      -15.244140    0.043438   -0.155440
     64          6           0      -16.381678    0.731750    0.716466
     65          6           0      -17.620432   -0.091908    0.878002
     66          6           0      -16.780449    2.077502    0.086446
     67          1           0        1.593045    0.663144   -3.704181
     68          1           0        3.584680    5.527354   -0.035969
     69          1           0        7.450310    1.797378    3.123584
     70          1           0        4.344890   -3.497186   -2.561449
     71          1           0        1.899995   -2.179965   -3.443428
     72          1           0        4.617410   -1.369572   -4.620243
     73          1           0        3.004181   -1.816070   -5.399252
     74          1           0        4.063193   -2.968370   -4.682493
     75          1           0        2.766107   -4.901375   -1.469615
     76          1           0        1.535654   -3.831846   -2.133805
     77          1           0        2.002847   -2.510632    0.289941
     78          1           0        3.039507   -3.915521    0.551958
     79          1           0        0.998376    3.527764   -4.911502
     80          1           0       -0.424926    3.689263   -3.792510
     81          1           0        0.293472    2.175326   -4.050565
     82          1           0        3.371255    7.183149   -2.110725
     83          1           0        2.174555    7.138015   -0.766799
     84          1           0        1.744204    7.943833   -2.223830
     85          1           0        4.486153    5.305652    2.491879
     86          1           0        7.276492    4.381777    2.710414
     87          1           0        6.620116    6.663055    2.156185
     88          1           0        5.033518    7.055347    1.354256
     89          1           0        6.399003    6.215881    0.485775
     90          1           0        5.461728    2.925514    4.513134
     91          1           0        5.074284    4.536594    4.663679
     92          1           0        7.570683    5.013109    4.751947
     93          1           0        7.695487    3.249421    5.166067
     94          1           0        6.911829    4.444641    6.195121
     95          1           0        9.541468   -0.519464    2.788320
     96          1           0        8.818600   -1.987523    3.304248
     97          1           0        8.453774   -0.530237    4.217299
     98          1           0        5.406095   -4.410260    0.112155
     99          1           0        7.550760   -3.595497   -4.312814
    100          1           0        8.544666   -4.461864   -3.171907
    101          1           0        8.849833   -2.793282   -3.294672
    102          1           0       -0.950034   -4.400567    2.625018
    103          1           0       -1.652358   -5.065617    1.071661
    104          1           0       -2.211255   -2.339928    0.829314
    105          1           0       -4.709378   -3.390743    3.911376
    106          1           0       -3.187230   -3.079520    4.585705
    107          1           0       -3.383551   -4.540894    3.571280
    108          1           0       -3.542565   -0.860749    1.396465
    109          1           0       -4.568913   -1.143056    2.808835
    110          1           0       -5.526668   -3.024651    0.632253
    111          1           0       -5.160219   -1.441996    0.026710
    112          1           0       -6.778698   -1.441558    2.599435
    113          1           0       -7.412864   -2.351727    1.348033
    114          1           0       -6.224681    0.337905    0.391290
    115          1           0       -7.361357    1.867475    1.548125
    116          1           0       -6.969391    0.705053    2.781998
    117          1           0       -8.624396    0.690950    2.116189
    118          1           0       -7.747155   -0.906644   -1.188841
    119          1           0       -8.245689    0.620005   -0.872392
    120          1           0       -9.454580   -1.416346    1.076580
    121          1           0       -9.794788   -1.604243   -0.648409
    122          1           0      -10.238000    1.243246    0.010948
    123          1           0      -11.089194    0.186640    1.091658
    124          1           0      -11.821972   -1.098780   -1.035831
    125          1           0      -11.142903   -0.518088   -2.985627
    126          1           0      -10.005683    0.652275   -2.431507
    127          1           0      -11.644808    1.204273   -2.707924
    128          1           0      -13.300517    1.199001   -1.555573
    129          1           0      -12.469995    1.875983   -0.245315
    130          1           0      -13.753997    0.890932    1.268301
    131          1           0      -13.395426   -0.710572    0.558671
    132          1           0      -15.344799   -1.023348   -0.357985
    133          1           0      -15.276549    0.461357   -1.161755
    134          1           0      -15.962404    0.973443    1.694126
    135          1           0      -18.543920    0.487598    0.865937
    136          1           0      -17.633119   -0.539662    1.872264
    137          1           0      -17.654843   -0.906138    0.154136
    138          1           0      -17.619188    2.626444    0.513452
    139          1           0      -17.059264    2.007657   -0.964486
    140          1           0      -15.971369    2.798228    0.212003
 ---------------------------------------------------------------------

 SCF Done:  E(RPBE1PBE) =  -3005.35069292     A.U. after   15 cycles

 Excitation energies and oscillator strengths:

 Excited State   1:      Singlet-A      1.8059 eV  686.57 nm  f=0.3734  <S**2>=0.000
     245 -> 248        0.16563
     246 -> 247        0.69565
     246 <- 247       -0.11539
 This state for optimization and/or second-order correction.
 Total Energy, E(TD-HF/TD-DFT) =  -3005.28432893
 Copying the excited state density for this state as the 1-particle RhoCI density.

 Excited State   2:      Singlet-A      2.1866 eV  567.01 nm  f=0.1023  <S**2>=0.000
     245 -> 247        0.65361
     246 -> 248       -0.25919

 Excited State   3:      Singlet-A      2.9894 eV  414.74 nm  f=0.0001  <S**2>=0.000
     241 -> 247        0.27993
     242 -> 247        0.50037
     242 -> 249        0.11037
     243 -> 247       -0.12162
     244 -> 247        0.35277

 Excited State   4:      Singlet-A      2.9961 eV  413.82 nm  f=0.0000  <S**2>=0.000
     241 -> 247       -0.17502
     242 -> 247       -0.28343
     244 -> 247        0.61231

 Excited State   5:      Singlet-A      2.9994 eV  413.36 nm  f=0.0001  <S**2>=0.000
     242 -> 247        0.12715
     243 -> 247        0.64841
     243 -> 248       -0.10351
     243 -> 249       -0.17965
     243 -> 250       -0.11270

 The electronic state is 1-A.
 Alpha  occ. eigenvalues --  -46.93346 -19.26269 -19.24376 -19.19803 -19.19732
 Alpha  occ. eigenvalues --  -19.19044 -19.18702 -14.42189 -14.41659 -14.40478
 Alpha  occ. eigenvalues --  -14.39379 -10.36283 -10.34964 -10.32827 -10.32821
 Alpha  occ. eigenvalues --  -10.30139 -10.29980 -10.29526 -10.29230 -10.29075
 Alpha  occ. eigenvalues --  -10.28858 -10.28779 -10.28779 -10.27813 -10.27196
 Alpha  occ. eigenvalues --  -10.27072 -10.26661 -10.26500 -10.26406 -10.26381
 Alpha  occ. eigenvalues --  -10.26298 -10.26102 -10.25980 -10.25904 -10.25787
 Alpha  occ. eigenvalues --  -10.25665 -10.24814 -10.24752 -10.24743 -10.24553
 Alpha  occ. eigenvalues --  -10.24373 -10.24318 -10.24018 -10.23947 -10.23889
 Alpha  occ. eigenvalues --  -10.23869 -10.23598 -10.23462 -10.23369 -10.23292
 Alpha  occ. eigenvalues --  -10.23202 -10.23152 -10.22788 -10.22769 -10.22394
 Alpha  occ. eigenvalues --  -10.22382 -10.22253 -10.22219 -10.22183 -10.21952
 Alpha  occ. eigenvalues --  -10.21840 -10.21773 -10.21499 -10.21442 -10.21363
 Alpha  occ. eigenvalues --  -10.21137  -3.15305  -1.88134  -1.87671  -1.87541
 Alpha  occ. eigenvalues --   -1.11942  -1.09717  -1.05042  -1.04428  -1.02949
 Alpha  occ. eigenvalues --   -1.00810  -0.99411  -0.98384  -0.97564  -0.95801
 Alpha  occ. eigenvalues --   -0.87060  -0.84313  -0.83944  -0.83486  -0.82999
 Alpha  occ. eigenvalues --   -0.82746  -0.82434  -0.81633  -0.81548  -0.80921
 Alpha  occ. eigenvalues --   -0.80475  -0.79391  -0.78680  -0.77988  -0.77545
 Alpha  occ. eigenvalues --   -0.76516  -0.76059  -0.75093  -0.75047  -0.74570
 Alpha  occ. eigenvalues --   -0.73601  -0.72478  -0.72392  -0.72079  -0.71199
 Alpha  occ. eigenvalues --   -0.69835  -0.69653  -0.69313  -0.69200  -0.68112
 Alpha  occ. eigenvalues --   -0.67503  -0.66371  -0.65772  -0.64486  -0.63555
 Alpha  occ. eigenvalues --   -0.63414  -0.62581  -0.62268  -0.60494  -0.60378
 Alpha  occ. eigenvalues --   -0.60210  -0.60046  -0.59169  -0.59003  -0.58291
 Alpha  occ. eigenvalues --   -0.57799  -0.57392  -0.56705  -0.56229  -0.54547
 Alpha  occ. eigenvalues --   -0.53912  -0.53756  -0.53186  -0.52830  -0.52457
 Alpha  occ. eigenvalues --   -0.51706  -0.51261  -0.50731  -0.50612  -0.50331
 Alpha  occ. eigenvalues --   -0.49479  -0.49280  -0.48899  -0.48774  -0.48460
 Alpha  occ. eigenvalues --   -0.47780  -0.47736  -0.47368  -0.47174  -0.47027
 Alpha  occ. eigenvalues --   -0.46826  -0.46652  -0.46390  -0.46311  -0.46265
 Alpha  occ. eigenvalues --   -0.45994  -0.45802  -0.45462  -0.45276  -0.45095
 Alpha  occ. eigenvalues --   -0.44967  -0.44620  -0.44362  -0.44286  -0.44120
 Alpha  occ. eigenvalues --   -0.44043  -0.43762  -0.43647  -0.43600  -0.43392
 Alpha  occ. eigenvalues --   -0.43206  -0.42900  -0.42746  -0.42537  -0.42267
 Alpha  occ. eigenvalues --   -0.42139  -0.41741  -0.41600  -0.41560  -0.41298
 Alpha  occ. eigenvalues --   -0.41261  -0.40834  -0.40689  -0.40562  -0.40441
 Alpha  occ. eigenvalues --   -0.40167  -0.40097  -0.39921  -0.39796  -0.39435
 Alpha  occ. eigenvalues --   -0.39244  -0.39182  -0.38908  -0.38896  -0.38736
 Alpha  occ. eigenvalues --   -0.38531  -0.38454  -0.38308  -0.38283  -0.37952
 Alpha  occ. eigenvalues --   -0.37701  -0.37655  -0.37327  -0.37167  -0.37038
 Alpha  occ. eigenvalues --   -0.36975  -0.36844  -0.36569  -0.36262  -0.35926
 Alpha  occ. eigenvalues --   -0.35829  -0.35464  -0.35107  -0.34842  -0.34804
 Alpha  occ. eigenvalues --   -0.34660  -0.34239  -0.34215  -0.33827  -0.33533
 Alpha  occ. eigenvalues --   -0.33388  -0.33301  -0.33208  -0.32898  -0.32461
 Alpha  occ. eigenvalues --   -0.32285  -0.32121  -0.31880  -0.31751  -0.31218
 Alpha  occ. eigenvalues --   -0.31082  -0.30861  -0.30279  -0.29823  -0.29514
 Alpha  occ. eigenvalues --   -0.28444  -0.28203  -0.27710  -0.27298  -0.26501
 Alpha  occ. eigenvalues --   -0.26008  -0.25929  -0.25730  -0.24052  -0.21244
 Alpha  occ. eigenvalues --   -0.18998
 Alpha virt. eigenvalues --   -0.11626  -0.05564  -0.04262  -0.02847  -0.01017
 Alpha virt. eigenvalues --    0.00120   0.00572   0.00759   0.01840   0.02475
 Alpha virt. eigenvalues --    0.03740   0.04363   0.05023   0.05472   0.05683

 Mulliken charges:
               1
     1  Mg   0.963120
     2  C    0.036902
     3  C   -0.048857
     4  C   -0.075819
     5  C   -0.041564
     6  N   -0.370771
     7  C   -0.019173
     8  C   -0.054402
     9  C   -0.138060
    10  C    0.133272
    11  C    0.023669
    12  C   -0.010441
    13  C   -0.039044
    14  C    0.226384
    15  O   -0.262699
    16  O   -0.391622
    17  N   -0.519067
    18  C    0.110485
    19  C   -0.164626
    20  C   -0.034246
    21  C    0.168593
    22  C    0.083185
    23  C    0.020543
    24  O   -0.254663
    25  C   -0.016934
    26  N   -0.400541
    27  C    0.086494
    28  C   -0.093518
    29  C   -0.112116
    30  C    0.052932
    31  C    0.006704
    32  C    0.000229
    33  C   -0.080611
    34  N   -0.417773
    35  C    0.097789
    36  C   -0.176357
    37  C   -0.046791
    38  C    0.106078
    39  C    0.050689
    40  C    0.147180
    41  O   -0.196883
    42  C   -0.120723
    43  C    0.244542
    44  O   -0.237510
    45  O   -0.358584
    46  C    0.116411
    47  C    0.268959
    48  C   -0.124851
    49  C   -0.256278
    50  C    0.016406
    51  C   -0.013080
    52  C   -0.039632
    53  C   -0.016507
    54  C   -0.187452
    55  C   -0.027701
    56  C    0.015572
    57  C   -0.039455
    58  C   -0.029912
    59  C   -0.245341
    60  C   -0.000698
    61  C   -0.010306
    62  C   -0.035265
    63  C    0.006665
    64  C   -0.212196
    65  C    0.002006
    66  C   -0.045014
    67  H    0.005974
    68  H   -0.014365
    69  H   -0.005220
    70  H    0.053395
    71  H    0.041519
    72  H    0.047418
    73  H    0.047890
    74  H    0.035090
    75  H    0.066666
    76  H    0.049519
    77  H    0.077902
    78  H    0.066476
    79  H    0.067563
    80  H    0.066623
    81  H    0.016923
    82  H    0.067911
    83  H    0.058701
    84  H    0.057600
    85  H    0.053012
    86  H    0.049856
    87  H    0.041933
    88  H    0.055650
    89  H    0.045080
    90  H    0.046435
    91  H    0.030797
    92  H    0.034070
    93  H    0.047445
    94  H    0.040352
    95  H    0.061151
    96  H    0.058746
    97  H    0.055207
    98  H    0.080666
    99  H    0.060590
   100  H    0.065861
   101  H    0.058941
   102  H    0.064127
   103  H    0.077241
   104  H    0.035345
   105  H    0.035062
   106  H    0.055585
   107  H    0.048253
   108  H    0.043788
   109  H    0.026456
   110  H    0.033479
   111  H    0.035755
   112  H    0.022499
   113  H    0.027187
   114  H    0.030890
   115  H    0.029035
   116  H    0.031762
   117  H    0.042969
   118  H    0.012352
   119  H    0.023263
   120  H    0.042383
   121  H    0.024565
   122  H    0.029407
   123  H    0.018061
   124  H    0.032862
   125  H    0.031482
   126  H    0.033102
   127  H    0.030790
   128  H    0.018025
   129  H    0.024183
   130  H    0.032910
   131  H    0.033777
   132  H    0.024680
   133  H    0.020700
   134  H    0.036999
   135  H    0.027934
   136  H    0.026588
   137  H    0.035303
   138  H    0.029632
   139  H    0.035054
   140  H    0.025411
 Sum of Mulliken charges =  -0.00000

 Dipole moment (field-independent basis, Debye):
    X=             -0.3139    Y=              6.2835    Z=              0.4939  Tot=              6.3106
 Quadrupole moment (field-independent basis, Debye-Ang):
   XX=           -389.2777   YY=           -436.8429   ZZ=           -382.3866
   XY=             59.4681   XZ=            -11.0270   YZ=             32.5461

 Normal termination of Gaussian 16 at Thu May  5 04:16:48 2022.
