 Gaussian 16, Revision A.03,
 Gaussian 16:  ES64L-G16RevA.03 25-Dec-2016

 --------------------------------
 #p wB97XD/Def2SVP td=(nstates=5)
 --------------------------------

 ---------------------------------------------------
 step_601_chromophore_2 TDDFT with wB97XD functional
 ---------------------------------------------------
 Symbolic Z-matrix:
 Charge =  0 Multiplicity = 1

                         Standard orientation:
 ---------------------------------------------------------------------
 Center     Atomic      Atomic             Coordinates (Angstroms)
 Number     Number       Type             X           Y           Z
 ---------------------------------------------------------------------
      1         12           0        4.610331    1.225919   -0.383124
      2          6           0        5.309814   -2.243062   -0.401438
      3          6           0        2.273603    0.665702   -2.850320
      4          6           0        3.872767    4.482266   -0.165174
      5          6           0        6.790688    1.593223    2.277731
      6          7           0        3.743339   -0.672299   -1.280856
      7          6           0        4.244800   -1.916561   -1.232502
      8          6           0        3.517932   -2.899539   -2.178612
      9          6           0        2.923752   -1.876012   -3.224328
     10          6           0        2.959595   -0.509689   -2.453939
     11          6           0        3.696250   -1.949125   -4.567634
     12          6           0        2.446366   -3.861640   -1.536531
     13          6           0        2.165462   -3.551795    0.011903
     14          6           0        0.968567   -4.335504    0.525508
     15          8           0        0.911775   -5.517891    0.750141
     16          8           0       -0.039857   -3.501276    0.929244
     17          7           0        3.218706    2.388016   -1.387526
     18          6           0        2.302360    2.024965   -2.350303
     19          6           0        1.601952    3.275282   -2.880203
     20          6           0        2.123829    4.365012   -2.194507
     21          6           0        3.091397    3.811746   -1.181752
     22          6           0        0.549308    3.231000   -3.963283
     23          6           0        1.782093    5.794962   -2.506352
     24          8           0        1.046057    6.026410   -3.471785
     25          6           0        2.316656    7.096175   -1.847261
     26          7           0        5.029656    2.770987    1.043109
     27          6           0        4.765860    4.073909    0.784700
     28          6           0        5.337986    4.986120    1.892058
     29          6           0        6.238793    4.050952    2.751874
     30          6           0        5.993171    2.723301    2.030211
     31          6           0        5.869441    6.359029    1.427788
     32          6           0        5.883261    3.906764    4.294621
     33          6           0        7.064923    4.138707    5.160246
     34          7           0        5.784622   -0.040149    0.844275
     35          6           0        6.660929    0.207804    1.814147
     36          6           0        7.457800   -0.947407    2.227600
     37          6           0        6.970204   -1.930347    1.343446
     38          6           0        5.922683   -1.357884    0.536514
     39          6           0        8.619995   -0.919826    3.212448
     40          6           0        7.088767   -3.333073    0.906587
     41          8           0        7.881663   -4.162458    1.319151
     42          6           0        6.009158   -3.570550   -0.233577
     43          6           0        6.636977   -4.109640   -1.482568
     44          8           0        6.798024   -5.294628   -1.696164
     45          8           0        7.123758   -3.119368   -2.267959
     46          6           0        8.033706   -3.514025   -3.340058
     47          6           0       -1.261805   -4.196916    1.601336
     48          6           0       -2.333141   -3.180014    1.513245
     49          6           0       -3.285445   -2.771400    2.420792
     50          6           0       -3.647286   -3.489854    3.687234
     51          6           0       -4.192661   -1.585864    1.887146
     52          6           0       -5.395422   -1.988070    0.940235
     53          6           0       -6.779237   -1.480399    1.510091
     54          6           0       -7.107462   -0.157328    0.796221
     55          6           0       -7.571405    0.851986    1.884993
     56          6           0       -8.132896   -0.328853   -0.347736
     57          6           0       -9.482606   -0.895818    0.118970
     58          6           0      -10.612045    0.223997    0.111748
     59          6           0      -11.640282   -0.025147   -0.987393
     60          6           0      -11.052833    0.362911   -2.348796
     61          6           0      -12.812177    0.912767   -0.624696
     62          6           0      -13.798961    0.283581    0.365284
     63          6           0      -15.244140    0.043438   -0.155440
     64          6           0      -16.381678    0.731750    0.716466
     65          6           0      -17.620432   -0.091908    0.878002
     66          6           0      -16.780449    2.077502    0.086446
     67          1           0        1.593045    0.663144   -3.704181
     68          1           0        3.584680    5.527354   -0.035969
     69          1           0        7.450310    1.797378    3.123584
     70          1           0        4.344890   -3.497186   -2.561449
     71          1           0        1.899995   -2.179965   -3.443428
     72          1           0        4.617410   -1.369572   -4.620243
     73          1           0        3.004181   -1.816070   -5.399252
     74          1           0        4.063193   -2.968370   -4.682493
     75          1           0        2.766107   -4.901375   -1.469615
     76          1           0        1.535654   -3.831846   -2.133805
     77          1           0        2.002847   -2.510632    0.289941
     78          1           0        3.039507   -3.915521    0.551958
     79          1           0        0.998376    3.527764   -4.911502
     80          1           0       -0.424926    3.689263   -3.792510
     81          1           0        0.293472    2.175326   -4.050565
     82          1           0        3.371255    7.183149   -2.110725
     83          1           0        2.174555    7.138015   -0.766799
     84          1           0        1.744204    7.943833   -2.223830
     85          1           0        4.486153    5.305652    2.491879
     86          1           0        7.276492    4.381777    2.710414
     87          1           0        6.620116    6.663055    2.156185
     88          1           0        5.033518    7.055347    1.354256
     89          1           0        6.399003    6.215881    0.485775
     90          1           0        5.461728    2.925514    4.513134
     91          1           0        5.074284    4.536594    4.663679
     92          1           0        7.570683    5.013109    4.751947
     93          1           0        7.695487    3.249421    5.166067
     94          1           0        6.911829    4.444641    6.195121
     95          1           0        9.541468   -0.519464    2.788320
     96          1           0        8.818600   -1.987523    3.304248
     97          1           0        8.453774   -0.530237    4.217299
     98          1           0        5.406095   -4.410260    0.112155
     99          1           0        7.550760   -3.595497   -4.312814
    100          1           0        8.544666   -4.461864   -3.171907
    101          1           0        8.849833   -2.793282   -3.294672
    102          1           0       -0.950034   -4.400567    2.625018
    103          1           0       -1.652358   -5.065617    1.071661
    104          1           0       -2.211255   -2.339928    0.829314
    105          1           0       -4.709378   -3.390743    3.911376
    106          1           0       -3.187230   -3.079520    4.585705
    107          1           0       -3.383551   -4.540894    3.571280
    108          1           0       -3.542565   -0.860749    1.396465
    109          1           0       -4.568913   -1.143056    2.808835
    110          1           0       -5.526668   -3.024651    0.632253
    111          1           0       -5.160219   -1.441996    0.026710
    112          1           0       -6.778698   -1.441558    2.599435
    113          1           0       -7.412864   -2.351727    1.348033
    114          1           0       -6.224681    0.337905    0.391290
    115          1           0       -7.361357    1.867475    1.548125
    116          1           0       -6.969391    0.705053    2.781998
    117          1           0       -8.624396    0.690950    2.116189
    118          1           0       -7.747155   -0.906644   -1.188841
    119          1           0       -8.245689    0.620005   -0.872392
    120          1           0       -9.454580   -1.416346    1.076580
    121          1           0       -9.794788   -1.604243   -0.648409
    122          1           0      -10.238000    1.243246    0.010948
    123          1           0      -11.089194    0.186640    1.091658
    124          1           0      -11.821972   -1.098780   -1.035831
    125          1           0      -11.142903   -0.518088   -2.985627
    126          1           0      -10.005683    0.652275   -2.431507
    127          1           0      -11.644808    1.204273   -2.707924
    128          1           0      -13.300517    1.199001   -1.555573
    129          1           0      -12.469995    1.875983   -0.245315
    130          1           0      -13.753997    0.890932    1.268301
    131          1           0      -13.395426   -0.710572    0.558671
    132          1           0      -15.344799   -1.023348   -0.357985
    133          1           0      -15.276549    0.461357   -1.161755
    134          1           0      -15.962404    0.973443    1.694126
    135          1           0      -18.543920    0.487598    0.865937
    136          1           0      -17.633119   -0.539662    1.872264
    137          1           0      -17.654843   -0.906138    0.154136
    138          1           0      -17.619188    2.626444    0.513452
    139          1           0      -17.059264    2.007657   -0.964486
    140          1           0      -15.971369    2.798228    0.212003
 ---------------------------------------------------------------------

 SCF Done:  E(RwB97XD) =  -3007.86003597     A.U. after   18 cycles

 Excitation energies and oscillator strengths:

 Excited State   1:      Singlet-A      1.5861 eV  781.69 nm  f=0.3823  <S**2>=0.000
     245 -> 248        0.17881
     246 -> 247        0.68563
     245 <- 248        0.11769
 This state for optimization and/or second-order correction.
 Total Energy, E(TD-HF/TD-DFT) =  -3007.80174745
 Copying the excited state density for this state as the 1-particle RhoCI density.

 Excited State   2:      Singlet-A      2.1268 eV  582.96 nm  f=0.1032  <S**2>=0.000
     245 -> 247        0.63942
     246 -> 248       -0.29009

 Excited State   3:      Singlet-A      3.4779 eV  356.49 nm  f=0.3796  <S**2>=0.000
     240 -> 247        0.14185
     241 -> 247        0.14192
     241 -> 249       -0.12193
     242 -> 247       -0.28381
     243 -> 247        0.10937
     245 -> 247        0.21489
     246 -> 248        0.52580

 Excited State   4:      Singlet-A      3.5032 eV  353.92 nm  f=0.0610  <S**2>=0.000
     241 -> 247        0.19405
     241 -> 249       -0.14433
     243 -> 247        0.59412
     245 -> 247       -0.10147
     246 -> 248       -0.20755

 Excited State   5:      Singlet-A      3.5204 eV  352.18 nm  f=0.0066  <S**2>=0.000
     240 -> 247       -0.21628
     240 -> 249        0.15641
     241 -> 247        0.39283
     241 -> 248       -0.13619
     241 -> 249       -0.30849
     241 -> 250       -0.23181
     243 -> 247       -0.26024

 The electronic state is 1-A.
 Alpha  occ. eigenvalues --  -46.96289 -19.30848 -19.28898 -19.24509 -19.24472
 Alpha  occ. eigenvalues --  -19.23930 -19.23363 -14.47333 -14.46707 -14.45507
 Alpha  occ. eigenvalues --  -14.44258 -10.43113 -10.41718 -10.39720 -10.39600
 Alpha  occ. eigenvalues --  -10.36533 -10.36525 -10.36044 -10.35733 -10.35542
 Alpha  occ. eigenvalues --  -10.35213 -10.35016 -10.34938 -10.33941 -10.33848
 Alpha  occ. eigenvalues --  -10.33200 -10.32925 -10.32776 -10.32681 -10.32659
 Alpha  occ. eigenvalues --  -10.32525 -10.32429 -10.32350 -10.32303 -10.32294
 Alpha  occ. eigenvalues --  -10.31981 -10.31239 -10.31144 -10.31088 -10.30821
 Alpha  occ. eigenvalues --  -10.30791 -10.30666 -10.30566 -10.30301 -10.30290
 Alpha  occ. eigenvalues --  -10.30196 -10.30069 -10.29844 -10.29664 -10.29664
 Alpha  occ. eigenvalues --  -10.29587 -10.29503 -10.29146 -10.29051 -10.28773
 Alpha  occ. eigenvalues --  -10.28753 -10.28637 -10.28576 -10.28571 -10.28327
 Alpha  occ. eigenvalues --  -10.28195 -10.28150 -10.27957 -10.27889 -10.27802
 Alpha  occ. eigenvalues --  -10.27577  -3.22126  -1.95700  -1.95239  -1.95106
 Alpha  occ. eigenvalues --   -1.19340  -1.17066  -1.12451  -1.12000  -1.10312
 Alpha  occ. eigenvalues --   -1.08129  -1.06660  -1.05747  -1.04971  -1.03321
 Alpha  occ. eigenvalues --   -0.94649  -0.91996  -0.91498  -0.91170  -0.90627
 Alpha  occ. eigenvalues --   -0.90375  -0.90112  -0.89298  -0.89181  -0.88678
 Alpha  occ. eigenvalues --   -0.88031  -0.87061  -0.86252  -0.85646  -0.85192
 Alpha  occ. eigenvalues --   -0.84186  -0.83769  -0.82824  -0.82671  -0.82238
 Alpha  occ. eigenvalues --   -0.81282  -0.80081  -0.80055  -0.79754  -0.78803
 Alpha  occ. eigenvalues --   -0.77491  -0.77265  -0.77019  -0.76911  -0.75787
 Alpha  occ. eigenvalues --   -0.75043  -0.73963  -0.73325  -0.72104  -0.71084
 Alpha  occ. eigenvalues --   -0.70916  -0.70256  -0.69875  -0.68042  -0.68007
 Alpha  occ. eigenvalues --   -0.67748  -0.67708  -0.66591  -0.66423  -0.65692
 Alpha  occ. eigenvalues --   -0.65475  -0.65068  -0.64143  -0.63855  -0.61983
 Alpha  occ. eigenvalues --   -0.61341  -0.61155  -0.60701  -0.60235  -0.59861
 Alpha  occ. eigenvalues --   -0.59168  -0.58660  -0.58226  -0.58050  -0.57704
 Alpha  occ. eigenvalues --   -0.56874  -0.56813  -0.56374  -0.56106  -0.55869
 Alpha  occ. eigenvalues --   -0.55084  -0.55015  -0.54700  -0.54486  -0.54433
 Alpha  occ. eigenvalues --   -0.54232  -0.54051  -0.54016  -0.53685  -0.53612
 Alpha  occ. eigenvalues --   -0.53366  -0.53137  -0.52858  -0.52649  -0.52318
 Alpha  occ. eigenvalues --   -0.52276  -0.51961  -0.51878  -0.51618  -0.51476
 Alpha  occ. eigenvalues --   -0.51329  -0.51086  -0.50979  -0.50944  -0.50703
 Alpha  occ. eigenvalues --   -0.50509  -0.50157  -0.50012  -0.49803  -0.49539
 Alpha  occ. eigenvalues --   -0.49413  -0.48983  -0.48912  -0.48809  -0.48677
 Alpha  occ. eigenvalues --   -0.48443  -0.47990  -0.47863  -0.47791  -0.47706
 Alpha  occ. eigenvalues --   -0.47382  -0.47198  -0.47183  -0.46991  -0.46581
 Alpha  occ. eigenvalues --   -0.46383  -0.46290  -0.46087  -0.46032  -0.45956
 Alpha  occ. eigenvalues --   -0.45678  -0.45592  -0.45502  -0.45458  -0.45060
 Alpha  occ. eigenvalues --   -0.44862  -0.44737  -0.44498  -0.44314  -0.44150
 Alpha  occ. eigenvalues --   -0.44086  -0.43975  -0.43601  -0.43297  -0.42958
 Alpha  occ. eigenvalues --   -0.42801  -0.42453  -0.42201  -0.41903  -0.41828
 Alpha  occ. eigenvalues --   -0.41659  -0.41302  -0.41173  -0.40908  -0.40618
 Alpha  occ. eigenvalues --   -0.40470  -0.40298  -0.40234  -0.39972  -0.39445
 Alpha  occ. eigenvalues --   -0.39291  -0.39202  -0.38875  -0.38692  -0.38286
 Alpha  occ. eigenvalues --   -0.38152  -0.37884  -0.37084  -0.36731  -0.36540
 Alpha  occ. eigenvalues --   -0.35103  -0.35095  -0.34809  -0.33915  -0.33118
 Alpha  occ. eigenvalues --   -0.33017  -0.32926  -0.32515  -0.30771  -0.26262
 Alpha  occ. eigenvalues --   -0.23127
 Alpha virt. eigenvalues --   -0.07519  -0.00132   0.02032   0.03695   0.04874
 Alpha virt. eigenvalues --    0.06856   0.07350   0.07436   0.08691   0.08988
 Alpha virt. eigenvalues --    0.10556   0.10868   0.11755   0.12236   0.12426

 Mulliken charges:
               1
     1  Mg   0.953823
     2  C    0.042387
     3  C   -0.058453
     4  C   -0.083302
     5  C   -0.055178
     6  N   -0.337255
     7  C   -0.057591
     8  C   -0.028399
     9  C   -0.107659
    10  C    0.118241
    11  C    0.031354
    12  C   -0.005260
    13  C   -0.012902
    14  C    0.214470
    15  O   -0.260372
    16  O   -0.391272
    17  N   -0.493117
    18  C    0.100989
    19  C   -0.153491
    20  C   -0.025780
    21  C    0.166015
    22  C    0.093644
    23  C    0.014506
    24  O   -0.251136
    25  C   -0.004609
    26  N   -0.371582
    27  C    0.077667
    28  C   -0.074247
    29  C   -0.082904
    30  C    0.044168
    31  C    0.019503
    32  C    0.008339
    33  C   -0.060860
    34  N   -0.379893
    35  C    0.088512
    36  C   -0.177582
    37  C   -0.038733
    38  C    0.086322
    39  C    0.062332
    40  C    0.125284
    41  O   -0.187820
    42  C   -0.084045
    43  C    0.222269
    44  O   -0.231878
    45  O   -0.357378
    46  C    0.131731
    47  C    0.280763
    48  C   -0.130833
    49  C   -0.245511
    50  C    0.028540
    51  C    0.009747
    52  C   -0.023614
    53  C   -0.007342
    54  C   -0.151952
    55  C   -0.013069
    56  C    0.026914
    57  C   -0.021699
    58  C   -0.016726
    59  C   -0.208628
    60  C    0.007522
    61  C    0.008363
    62  C   -0.022098
    63  C    0.019545
    64  C   -0.180353
    65  C    0.011900
    66  C   -0.032325
    67  H   -0.000797
    68  H   -0.031535
    69  H   -0.016180
    70  H    0.034488
    71  H    0.032490
    72  H    0.042585
    73  H    0.043185
    74  H    0.028602
    75  H    0.061026
    76  H    0.042152
    77  H    0.069536
    78  H    0.054956
    79  H    0.064598
    80  H    0.064637
    81  H    0.010504
    82  H    0.063529
    83  H    0.055449
    84  H    0.056669
    85  H    0.041943
    86  H    0.038262
    87  H    0.036119
    88  H    0.050634
    89  H    0.038416
    90  H    0.038351
    91  H    0.023602
    92  H    0.024940
    93  H    0.040652
    94  H    0.035633
    95  H    0.056038
    96  H    0.053306
    97  H    0.050826
    98  H    0.074059
    99  H    0.056984
   100  H    0.061837
   101  H    0.055320
   102  H    0.060337
   103  H    0.073383
   104  H    0.029988
   105  H    0.028939
   106  H    0.051002
   107  H    0.042948
   108  H    0.036678
   109  H    0.015267
   110  H    0.027263
   111  H    0.025228
   112  H    0.012834
   113  H    0.019368
   114  H    0.019020
   115  H    0.023993
   116  H    0.024350
   117  H    0.033178
   118  H    0.005110
   119  H    0.011834
   120  H    0.033986
   121  H    0.014470
   122  H    0.017390
   123  H    0.007837
   124  H    0.020801
   125  H    0.026498
   126  H    0.025711
   127  H    0.024807
   128  H    0.005993
   129  H    0.015739
   130  H    0.025018
   131  H    0.023525
   132  H    0.018428
   133  H    0.008945
   134  H    0.026260
   135  H    0.022280
   136  H    0.021126
   137  H    0.029343
   138  H    0.023655
   139  H    0.028357
   140  H    0.018294
 Sum of Mulliken charges =  -0.00000

 Dipole moment (field-independent basis, Debye):
    X=             -0.5330    Y=              6.5155    Z=              0.2442  Tot=              6.5418
 Quadrupole moment (field-independent basis, Debye-Ang):
   XX=           -390.1637   YY=           -435.8566   ZZ=           -382.0391
   XY=             59.7505   XZ=            -12.4186   YZ=             31.6947

 Normal termination of Gaussian 16 at Thu May  5 04:52:40 2022.
