 Gaussian 16, Revision A.03,
 Gaussian 16:  ES64L-G16RevA.03 25-Dec-2016

 --------------------
 #p ZINDO=(nstates=5)
 --------------------

 ----------------------------
 step_601_chromophore_2 ZINDO
 ----------------------------
 Symbolic Z-matrix:
 Charge =  0 Multiplicity = 1

                         Standard orientation:
 ---------------------------------------------------------------------
 Center     Atomic      Atomic             Coordinates (Angstroms)
 Number     Number       Type             X           Y           Z
 ---------------------------------------------------------------------
      1         12           0        4.610331    1.225919   -0.383124
      2          6           0        5.309814   -2.243062   -0.401438
      3          6           0        2.273603    0.665702   -2.850320
      4          6           0        3.872767    4.482266   -0.165174
      5          6           0        6.790688    1.593223    2.277731
      6          7           0        3.743339   -0.672299   -1.280856
      7          6           0        4.244800   -1.916561   -1.232502
      8          6           0        3.517932   -2.899539   -2.178612
      9          6           0        2.923752   -1.876012   -3.224328
     10          6           0        2.959595   -0.509689   -2.453939
     11          6           0        3.696250   -1.949125   -4.567634
     12          6           0        2.446366   -3.861640   -1.536531
     13          6           0        2.165462   -3.551795    0.011903
     14          6           0        0.968567   -4.335504    0.525508
     15          8           0        0.911775   -5.517891    0.750141
     16          8           0       -0.039857   -3.501276    0.929244
     17          7           0        3.218706    2.388016   -1.387526
     18          6           0        2.302360    2.024965   -2.350303
     19          6           0        1.601952    3.275282   -2.880203
     20          6           0        2.123829    4.365012   -2.194507
     21          6           0        3.091397    3.811746   -1.181752
     22          6           0        0.549308    3.231000   -3.963283
     23          6           0        1.782093    5.794962   -2.506352
     24          8           0        1.046057    6.026410   -3.471785
     25          6           0        2.316656    7.096175   -1.847261
     26          7           0        5.029656    2.770987    1.043109
     27          6           0        4.765860    4.073909    0.784700
     28          6           0        5.337986    4.986120    1.892058
     29          6           0        6.238793    4.050952    2.751874
     30          6           0        5.993171    2.723301    2.030211
     31          6           0        5.869441    6.359029    1.427788
     32          6           0        5.883261    3.906764    4.294621
     33          6           0        7.064923    4.138707    5.160246
     34          7           0        5.784622   -0.040149    0.844275
     35          6           0        6.660929    0.207804    1.814147
     36          6           0        7.457800   -0.947407    2.227600
     37          6           0        6.970204   -1.930347    1.343446
     38          6           0        5.922683   -1.357884    0.536514
     39          6           0        8.619995   -0.919826    3.212448
     40          6           0        7.088767   -3.333073    0.906587
     41          8           0        7.881663   -4.162458    1.319151
     42          6           0        6.009158   -3.570550   -0.233577
     43          6           0        6.636977   -4.109640   -1.482568
     44          8           0        6.798024   -5.294628   -1.696164
     45          8           0        7.123758   -3.119368   -2.267959
     46          6           0        8.033706   -3.514025   -3.340058
     47          6           0       -1.261805   -4.196916    1.601336
     48          6           0       -2.333141   -3.180014    1.513245
     49          6           0       -3.285445   -2.771400    2.420792
     50          6           0       -3.647286   -3.489854    3.687234
     51          6           0       -4.192661   -1.585864    1.887146
     52          6           0       -5.395422   -1.988070    0.940235
     53          6           0       -6.779237   -1.480399    1.510091
     54          6           0       -7.107462   -0.157328    0.796221
     55          6           0       -7.571405    0.851986    1.884993
     56          6           0       -8.132896   -0.328853   -0.347736
     57          6           0       -9.482606   -0.895818    0.118970
     58          6           0      -10.612045    0.223997    0.111748
     59          6           0      -11.640282   -0.025147   -0.987393
     60          6           0      -11.052833    0.362911   -2.348796
     61          6           0      -12.812177    0.912767   -0.624696
     62          6           0      -13.798961    0.283581    0.365284
     63          6           0      -15.244140    0.043438   -0.155440
     64          6           0      -16.381678    0.731750    0.716466
     65          6           0      -17.620432   -0.091908    0.878002
     66          6           0      -16.780449    2.077502    0.086446
     67          1           0        1.593045    0.663144   -3.704181
     68          1           0        3.584680    5.527354   -0.035969
     69          1           0        7.450310    1.797378    3.123584
     70          1           0        4.344890   -3.497186   -2.561449
     71          1           0        1.899995   -2.179965   -3.443428
     72          1           0        4.617410   -1.369572   -4.620243
     73          1           0        3.004181   -1.816070   -5.399252
     74          1           0        4.063193   -2.968370   -4.682493
     75          1           0        2.766107   -4.901375   -1.469615
     76          1           0        1.535654   -3.831846   -2.133805
     77          1           0        2.002847   -2.510632    0.289941
     78          1           0        3.039507   -3.915521    0.551958
     79          1           0        0.998376    3.527764   -4.911502
     80          1           0       -0.424926    3.689263   -3.792510
     81          1           0        0.293472    2.175326   -4.050565
     82          1           0        3.371255    7.183149   -2.110725
     83          1           0        2.174555    7.138015   -0.766799
     84          1           0        1.744204    7.943833   -2.223830
     85          1           0        4.486153    5.305652    2.491879
     86          1           0        7.276492    4.381777    2.710414
     87          1           0        6.620116    6.663055    2.156185
     88          1           0        5.033518    7.055347    1.354256
     89          1           0        6.399003    6.215881    0.485775
     90          1           0        5.461728    2.925514    4.513134
     91          1           0        5.074284    4.536594    4.663679
     92          1           0        7.570683    5.013109    4.751947
     93          1           0        7.695487    3.249421    5.166067
     94          1           0        6.911829    4.444641    6.195121
     95          1           0        9.541468   -0.519464    2.788320
     96          1           0        8.818600   -1.987523    3.304248
     97          1           0        8.453774   -0.530237    4.217299
     98          1           0        5.406095   -4.410260    0.112155
     99          1           0        7.550760   -3.595497   -4.312814
    100          1           0        8.544666   -4.461864   -3.171907
    101          1           0        8.849833   -2.793282   -3.294672
    102          1           0       -0.950034   -4.400567    2.625018
    103          1           0       -1.652358   -5.065617    1.071661
    104          1           0       -2.211255   -2.339928    0.829314
    105          1           0       -4.709378   -3.390743    3.911376
    106          1           0       -3.187230   -3.079520    4.585705
    107          1           0       -3.383551   -4.540894    3.571280
    108          1           0       -3.542565   -0.860749    1.396465
    109          1           0       -4.568913   -1.143056    2.808835
    110          1           0       -5.526668   -3.024651    0.632253
    111          1           0       -5.160219   -1.441996    0.026710
    112          1           0       -6.778698   -1.441558    2.599435
    113          1           0       -7.412864   -2.351727    1.348033
    114          1           0       -6.224681    0.337905    0.391290
    115          1           0       -7.361357    1.867475    1.548125
    116          1           0       -6.969391    0.705053    2.781998
    117          1           0       -8.624396    0.690950    2.116189
    118          1           0       -7.747155   -0.906644   -1.188841
    119          1           0       -8.245689    0.620005   -0.872392
    120          1           0       -9.454580   -1.416346    1.076580
    121          1           0       -9.794788   -1.604243   -0.648409
    122          1           0      -10.238000    1.243246    0.010948
    123          1           0      -11.089194    0.186640    1.091658
    124          1           0      -11.821972   -1.098780   -1.035831
    125          1           0      -11.142903   -0.518088   -2.985627
    126          1           0      -10.005683    0.652275   -2.431507
    127          1           0      -11.644808    1.204273   -2.707924
    128          1           0      -13.300517    1.199001   -1.555573
    129          1           0      -12.469995    1.875983   -0.245315
    130          1           0      -13.753997    0.890932    1.268301
    131          1           0      -13.395426   -0.710572    0.558671
    132          1           0      -15.344799   -1.023348   -0.357985
    133          1           0      -15.276549    0.461357   -1.161755
    134          1           0      -15.962404    0.973443    1.694126
    135          1           0      -18.543920    0.487598    0.865937
    136          1           0      -17.633119   -0.539662    1.872264
    137          1           0      -17.654843   -0.906138    0.154136
    138          1           0      -17.619188    2.626444    0.513452
    139          1           0      -17.059264    2.007657   -0.964486
    140          1           0      -15.971369    2.798228    0.212003
 ---------------------------------------------------------------------

 SCF Done:  E(RZINDO/S) =  -473.924608708     A.U. after   20 cycles

 Excitation energies and oscillator strengths:

 Excited State   1:      Singlet-A      1.2110 eV 1023.81 nm  f=0.6039  <S**2>=0.000
     175 ->178         0.18589
     176 ->177         0.66373
 This state for optimization and/or second-order correction.
 Total Energy, E(CIS/TDA) =  -473.880104783
 Copying the excited state density for this state as the 1-particle RhoCI density.

 Excited State   2:      Singlet-A      1.8714 eV  662.52 nm  f=0.0256  <S**2>=0.000
     175 ->177         0.53503
     176 ->178        -0.43552

 Excited State   3:      Singlet-A      2.8790 eV  430.64 nm  f=0.0171  <S**2>=0.000
     168 ->177         0.26043
     168 ->178        -0.17658
     168 ->179        -0.45057
     168 ->180         0.28962
     168 ->186        -0.22224
     168 ->194         0.11416

 Excited State   4:      Singlet-A      2.9289 eV  423.31 nm  f=0.9603  <S**2>=0.000
     175 ->177         0.38304
     176 ->178         0.50834
     176 ->181         0.15382

 Excited State   5:      Singlet-A      2.9808 eV  415.94 nm  f=0.0183  <S**2>=0.000
     169 ->177         0.15914
     169 ->179         0.16645
     169 ->180         0.18987
     170 ->177         0.26654
     170 ->179         0.23557
     170 ->180         0.30586
     170 ->186         0.13022
     170 ->188         0.12368
     176 ->179         0.19045

 The electronic state is 1-A.
 Alpha  occ. eigenvalues --   -1.83627  -1.79979  -1.76969  -1.73088  -1.71009
 Alpha  occ. eigenvalues --   -1.68924  -1.67021  -1.60773  -1.59402  -1.57694
 Alpha  occ. eigenvalues --   -1.55002  -1.50733  -1.49243  -1.46976  -1.45912
 Alpha  occ. eigenvalues --   -1.45199  -1.42179  -1.40870  -1.38176  -1.37045
 Alpha  occ. eigenvalues --   -1.36107  -1.32809  -1.31889  -1.30823  -1.28874
 Alpha  occ. eigenvalues --   -1.25446  -1.25178  -1.21967  -1.20994  -1.18233
 Alpha  occ. eigenvalues --   -1.16714  -1.16330  -1.15177  -1.14879  -1.13529
 Alpha  occ. eigenvalues --   -1.12618  -1.10836  -1.10303  -1.06155  -1.04739
 Alpha  occ. eigenvalues --   -1.01894  -1.00737  -0.99315  -0.97486  -0.96736
 Alpha  occ. eigenvalues --   -0.96482  -0.94447  -0.94179  -0.93117  -0.92473
 Alpha  occ. eigenvalues --   -0.91825  -0.91206  -0.89240  -0.88900  -0.86074
 Alpha  occ. eigenvalues --   -0.85862  -0.84624  -0.83250  -0.82768  -0.80810
 Alpha  occ. eigenvalues --   -0.80170  -0.78887  -0.78476  -0.77373  -0.76324
 Alpha  occ. eigenvalues --   -0.75977  -0.74309  -0.73981  -0.73614  -0.73356
 Alpha  occ. eigenvalues --   -0.72714  -0.72223  -0.71679  -0.70886  -0.70380
 Alpha  occ. eigenvalues --   -0.70227  -0.69837  -0.68819  -0.68333  -0.67884
 Alpha  occ. eigenvalues --   -0.67567  -0.66860  -0.66664  -0.65918  -0.65470
 Alpha  occ. eigenvalues --   -0.65285  -0.65148  -0.65017  -0.64148  -0.63697
 Alpha  occ. eigenvalues --   -0.63188  -0.63038  -0.62926  -0.62440  -0.62057
 Alpha  occ. eigenvalues --   -0.61737  -0.61471  -0.60884  -0.60270  -0.59858
 Alpha  occ. eigenvalues --   -0.59771  -0.59654  -0.58653  -0.58258  -0.58179
 Alpha  occ. eigenvalues --   -0.57608  -0.57450  -0.56978  -0.56566  -0.56206
 Alpha  occ. eigenvalues --   -0.56131  -0.55930  -0.55396  -0.55065  -0.54491
 Alpha  occ. eigenvalues --   -0.54460  -0.54190  -0.53976  -0.53662  -0.53497
 Alpha  occ. eigenvalues --   -0.53249  -0.52788  -0.52528  -0.51855  -0.51671
 Alpha  occ. eigenvalues --   -0.51593  -0.50935  -0.50331  -0.50178  -0.49922
 Alpha  occ. eigenvalues --   -0.49722  -0.49566  -0.49440  -0.49332  -0.49069
 Alpha  occ. eigenvalues --   -0.48580  -0.48381  -0.48105  -0.47913  -0.47719
 Alpha  occ. eigenvalues --   -0.47594  -0.47392  -0.47368  -0.47288  -0.46870
 Alpha  occ. eigenvalues --   -0.46751  -0.46642  -0.46218  -0.46116  -0.45940
 Alpha  occ. eigenvalues --   -0.45778  -0.45619  -0.44760  -0.44725  -0.44653
 Alpha  occ. eigenvalues --   -0.44020  -0.43775  -0.43748  -0.43181  -0.42545
 Alpha  occ. eigenvalues --   -0.42098  -0.41926  -0.40565  -0.39138  -0.38492
 Alpha  occ. eigenvalues --   -0.38159  -0.37813  -0.36027  -0.35098  -0.34814
 Alpha  occ. eigenvalues --   -0.34124  -0.33215  -0.32899  -0.31431  -0.27237
 Alpha  occ. eigenvalues --   -0.22046
 Alpha virt. eigenvalues --   -0.09052  -0.02787  -0.00848   0.00738   0.01287
 Alpha virt. eigenvalues --    0.02043   0.02542   0.02832   0.04233   0.04307
 Alpha virt. eigenvalues --    0.05639   0.05921   0.06720   0.07128   0.07370

 Mulliken charges:
               1
     1  Mg   0.438798
     2  C   -0.041740
     3  C   -0.069815
     4  C   -0.087258
     5  C   -0.091174
     6  N   -0.290927
     7  C    0.122751
     8  C   -0.003899
     9  C    0.010507
    10  C    0.127344
    11  C   -0.049778
    12  C   -0.019424
    13  C    0.002174
    14  C    0.462387
    15  O   -0.516637
    16  O   -0.288718
    17  N   -0.327002
    18  C    0.109390
    19  C    0.061905
    20  C   -0.026842
    21  C    0.116786
    22  C   -0.031171
    23  C    0.321856
    24  O   -0.525191
    25  C   -0.023877
    26  N   -0.281279
    27  C    0.154707
    28  C    0.000872
    29  C    0.007974
    30  C    0.114403
    31  C   -0.051254
    32  C   -0.022803
    33  C   -0.053170
    34  N   -0.302326
    35  C    0.103062
    36  C    0.012590
    37  C   -0.049566
    38  C    0.082442
    39  C   -0.038848
    40  C    0.330663
    41  O   -0.503282
    42  C    0.055668
    43  C    0.486174
    44  O   -0.515340
    45  O   -0.268938
    46  C    0.074216
    47  C    0.114243
    48  C   -0.100053
    49  C   -0.022875
    50  C   -0.037797
    51  C   -0.024948
    52  C   -0.039157
    53  C   -0.036978
    54  C   -0.002262
    55  C   -0.062171
    56  C   -0.028480
    57  C   -0.041173
    58  C   -0.036781
    59  C   -0.009002
    60  C   -0.064340
    61  C   -0.031453
    62  C   -0.040052
    63  C   -0.037881
    64  C    0.001457
    65  C   -0.051210
    66  C   -0.055889
    67  H    0.028167
    68  H    0.012884
    69  H    0.015608
    70  H    0.035132
    71  H    0.029931
    72  H    0.031777
    73  H    0.023529
    74  H    0.015079
    75  H    0.036719
    76  H    0.031716
    77  H    0.042144
    78  H    0.043934
    79  H    0.045298
    80  H    0.048296
    81  H    0.008514
    82  H    0.040499
    83  H    0.029521
    84  H    0.040026
    85  H    0.027741
    86  H    0.037100
    87  H    0.020555
    88  H    0.028586
    89  H    0.021767
    90  H    0.020396
    91  H    0.017970
    92  H    0.012213
    93  H    0.022341
    94  H    0.017328
    95  H    0.035152
    96  H    0.024847
    97  H    0.035112
    98  H    0.061994
    99  H    0.042667
   100  H    0.048506
   101  H    0.032176
   102  H    0.054815
   103  H    0.065318
   104  H    0.031997
   105  H    0.019091
   106  H    0.033114
   107  H    0.026016
   108  H    0.026682
   109  H    0.016229
   110  H    0.027016
   111  H    0.015929
   112  H    0.022467
   113  H    0.016602
   114  H    0.019903
   115  H    0.013995
   116  H    0.014941
   117  H    0.024693
   118  H    0.011161
   119  H    0.012802
   120  H    0.028102
   121  H    0.014030
   122  H    0.023676
   123  H    0.006675
   124  H    0.031823
   125  H    0.012019
   126  H    0.021565
   127  H    0.019245
   128  H    0.010161
   129  H    0.019095
   130  H    0.022387
   131  H    0.015650
   132  H    0.021621
   133  H    0.015757
   134  H    0.022339
   135  H    0.019229
   136  H    0.008673
   137  H    0.021092
   138  H    0.012834
   139  H    0.019045
   140  H    0.007381
 Sum of Mulliken charges =  -0.00000

 Dipole moment (field-independent basis, Debye):
    X=             -1.1328    Y=              9.1246    Z=             -0.4236  Tot=              9.2044
 N-N= 4.287840878227D+03 E-N= 0.000000000000D+00  KE=-9.249151000724D+03
 Leave Link  601 at Thu May  5 05:06:34 2022, MaxMem=  6710886400 cpu:               1.3 elap:               0.1
 (Enter /sw/apps/gaussian-16.0/g16/l9999.exe)
 1\1\GINC-BP1-COMPUTE179\SP\RZINDO CIS\STO-3G\C55H74Mg1N4O6\OF15641\05-
 May-2022\0\\#p ZINDO=(nstates=5)\\step_601_chromophore_2 ZINDO\\0,1\Mg
 ,0,3.307,-0.378,43.982\C,0,6.257,1.57,44.144\C,0,1.714,2.333,42.577\C,
 0,0.618,-2.347,43.686\C,0,5.105,-3.094,45.148\N,0,4.06,1.623,43.214\C,
 0,5.226,2.23,43.486\C,0,5.275,3.695,42.995\C,0,3.729,4.014,42.947\C,0,
 3.067,2.592,42.911\C,0,3.323,4.952,44.114\C,0,6.035,3.979,41.643\C,0,6
 .517,2.644,40.896\C,0,7.029,2.946,39.497\O,0,8.063,3.488,39.199\O,0,6.

 Normal termination of Gaussian 16 at Thu May  5 05:06:34 2022.
