 Gaussian 16, Revision A.03,
 Gaussian 16:  ES64L-G16RevA.03 25-Dec-2016

 ------------------------------
 #p blyp/Def2SVP td=(nstates=5)
 ------------------------------

 ---------------------------------------------------
 step_1151_chromophore_19 TDDFT with blyp functional
 ---------------------------------------------------
 Symbolic Z-matrix:
 Charge =  0 Multiplicity = 1

                         Standard orientation:
 ---------------------------------------------------------------------
 Center     Atomic      Atomic             Coordinates (Angstroms)
 Number     Number       Type             X           Y           Z
 ---------------------------------------------------------------------
      1         12           0       -5.931191    0.422173   -0.240619
      2          6           0       -3.546965   -2.293323   -0.327550
      3          6           0       -3.392325    2.606422    0.226572
      4          6           0       -8.202523    2.807814    0.408908
      5          6           0       -8.483574   -1.996301   -0.259022
      6          7           0       -3.765193    0.171556    0.043279
      7          6           0       -2.998937   -0.996152   -0.110719
      8          6           0       -1.520816   -0.709386    0.024988
      9          6           0       -1.471552    0.833269    0.362186
     10          6           0       -2.957198    1.250833    0.072747
     11          6           0       -1.071922    1.153619    1.827994
     12          6           0       -0.831744   -1.003611   -1.345793
     13          6           0        0.653014   -1.141650   -1.373020
     14          6           0        1.621258   -0.774932   -0.232829
     15          8           0        1.379453   -0.758992    0.966633
     16          8           0        2.935293   -0.848988   -0.732868
     17          7           0       -5.830575    2.483861    0.157554
     18          6           0       -4.675222    3.214963    0.252699
     19          6           0       -5.078700    4.581258    0.451565
     20          6           0       -6.490234    4.698970    0.348001
     21          6           0       -6.923819    3.273328    0.265303
     22          6           0       -4.060615    5.647622    0.559272
     23          6           0       -7.352261    5.870784    0.420654
     24          8           0       -8.564823    5.732762    0.250278
     25          6           0       -6.761028    7.255418    0.609423
     26          7           0       -8.103599    0.357846    0.134066
     27          6           0       -8.742399    1.493388    0.367225
     28          6           0      -10.232218    1.193447    0.383121
     29          6           0      -10.372360   -0.321528    0.179579
     30          6           0       -8.939562   -0.682773   -0.098213
     31          6           0      -11.022583    1.702463    1.477155
     32          6           0      -11.435483   -0.804502   -0.828738
     33          6           0      -11.081373   -1.103135   -2.312758
     34          7           0       -6.051534   -1.668346   -0.297188
     35          6           0       -7.218782   -2.490504   -0.344655
     36          6           0       -6.811365   -3.898944   -0.593264
     37          6           0       -5.393494   -3.860861   -0.551415
     38          6           0       -4.960459   -2.519419   -0.280422
     39          6           0       -7.789898   -5.032038   -0.870582
     40          6           0       -4.160855   -4.635441   -0.718294
     41          8           0       -3.973537   -5.816220   -0.885276
     42          6           0       -2.899543   -3.651450   -0.552997
     43          6           0       -2.239722   -4.029499    0.733679
     44          8           0       -2.387283   -3.441310    1.830037
     45          8           0       -1.311099   -5.061073    0.534134
     46          6           0       -0.536647   -5.349747    1.661509
     47          6           0        3.958361   -0.611955    0.356932
     48          6           0        5.290622   -0.531766   -0.278016
     49          6           0        6.454977   -0.459519    0.315579
     50          6           0        6.612445   -0.313658    1.770123
     51          6           0        7.712449   -0.316599   -0.463075
     52          6           0        7.835413    0.995154   -1.292568
     53          6           0        8.490334    0.876805   -2.637289
     54          6           0        9.845030    1.622102   -2.730934
     55          6           0        9.789189    2.703244   -3.859172
     56          6           0       11.021156    0.647827   -2.891956
     57          6           0       11.710073    0.229760   -1.590280
     58          6           0       13.202893    0.055649   -1.734911
     59          6           0       14.027898    1.004380   -0.802403
     60          6           0       15.146776    1.843025   -1.535780
     61          6           0       14.603612    0.302855    0.529953
     62          6           0       13.642830    0.651107    1.713505
     63          6           0       13.134799   -0.625202    2.437200
     64          6           0       11.670373   -0.306695    2.914249
     65          6           0       11.589863    0.594319    4.209658
     66          6           0       10.927468   -1.617376    3.214230
     67          1           0       -2.607480    3.364797    0.200614
     68          1           0       -8.971286    3.572687    0.538185
     69          1           0       -9.314662   -2.703616   -0.296210
     70          1           0       -1.154490   -1.413902    0.771053
     71          1           0       -0.828248    1.339024   -0.358045
     72          1           0       -1.902531    1.580356    2.390655
     73          1           0       -0.225119    1.836570    1.766971
     74          1           0       -0.829920    0.288889    2.446046
     75          1           0       -1.137697   -0.346444   -2.159881
     76          1           0       -1.247445   -1.925239   -1.752654
     77          1           0        0.877044   -0.435787   -2.173526
     78          1           0        0.803670   -2.171608   -1.698248
     79          1           0       -4.236240    6.170156    1.500440
     80          1           0       -4.055556    6.211850   -0.372963
     81          1           0       -3.094850    5.229846    0.844146
     82          1           0       -7.403710    8.053439    0.236188
     83          1           0       -5.877176    7.339548   -0.023708
     84          1           0       -6.539896    7.381271    1.668574
     85          1           0      -10.606642    1.640758   -0.537626
     86          1           0      -10.611980   -0.911804    1.063761
     87          1           0      -10.374532    2.335520    2.084122
     88          1           0      -11.506682    0.926955    2.069844
     89          1           0      -11.888017    2.270607    1.133501
     90          1           0      -12.209174   -0.038645   -0.773541
     91          1           0      -11.842075   -1.754068   -0.481615
     92          1           0      -11.973883   -0.918201   -2.911515
     93          1           0      -10.700365   -2.121708   -2.383826
     94          1           0      -10.270387   -0.439954   -2.612849
     95          1           0       -8.675876   -4.759629   -1.443503
     96          1           0       -8.077151   -5.398488    0.114467
     97          1           0       -7.244904   -5.774423   -1.453617
     98          1           0       -2.128313   -3.707502   -1.322063
     99          1           0        0.086170   -6.223461    1.471744
    100          1           0       -1.163055   -5.410836    2.552147
    101          1           0        0.190606   -4.546166    1.777863
    102          1           0        3.935596   -1.462353    1.036781
    103          1           0        3.751964    0.310343    0.900517
    104          1           0        5.245845   -0.609740   -1.364569
    105          1           0        7.560319   -0.794852    2.012241
    106          1           0        5.824120   -0.823027    2.323939
    107          1           0        6.619300    0.754075    1.990342
    108          1           0        7.880915   -1.224304   -1.042955
    109          1           0        8.530386   -0.383605    0.253011
    110          1           0        8.295317    1.701152   -0.602256
    111          1           0        6.834133    1.331312   -1.562367
    112          1           0        7.740235    1.283978   -3.315636
    113          1           0        8.615273   -0.167685   -2.924539
    114          1           0       10.011564    2.119665   -1.775265
    115          1           0        9.739740    2.123438   -4.780297
    116          1           0       10.604052    3.424251   -3.927446
    117          1           0        8.854910    3.261246   -3.903683
    118          1           0       11.755302    1.093252   -3.563146
    119          1           0       10.734273   -0.223593   -3.481667
    120          1           0       11.163136   -0.666548   -1.299515
    121          1           0       11.433378    0.856511   -0.741895
    122          1           0       13.464517    0.406810   -2.733240
    123          1           0       13.383574   -1.012045   -1.610394
    124          1           0       13.342046    1.801192   -0.514339
    125          1           0       16.124566    1.471174   -1.231509
    126          1           0       15.209083    2.848319   -1.120037
    127          1           0       14.903343    1.897985   -2.596821
    128          1           0       15.601175    0.674890    0.764274
    129          1           0       14.640266   -0.755094    0.270374
    130          1           0       12.877491    1.416759    1.580224
    131          1           0       14.356937    0.982740    2.467379
    132          1           0       13.788766   -0.902468    3.264383
    133          1           0       12.983654   -1.468286    1.763066
    134          1           0       11.160111    0.214744    2.104348
    135          1           0       12.542847    1.119453    4.274369
    136          1           0       11.463647   -0.059889    5.072311
    137          1           0       10.772340    1.308170    4.109397
    138          1           0       11.681503   -2.359474    3.477073
    139          1           0       10.097288   -1.832339    2.541228
    140          1           0       10.317589   -1.318023    4.067225
 ---------------------------------------------------------------------

 SCF Done:  E(RB-LYP) =  -3007.35023646     A.U. after   21 cycles

 Excitation energies and oscillator strengths:

 Excited State   1:      Singlet-A      1.7786 eV  697.10 nm  f=0.2906  <S**2>=0.000
     245 -> 248       -0.19375
     246 -> 247        0.68486
     246 <- 247       -0.14197
 This state for optimization and/or second-order correction.
 Total Energy, E(TD-HF/TD-DFT) =  -3007.28487521
 Copying the excited state density for this state as the 1-particle RhoCI density.

 Excited State   2:      Singlet-A      1.9631 eV  631.58 nm  f=0.0332  <S**2>=0.000
     244 -> 247       -0.38538
     245 -> 247        0.54490
     246 -> 248        0.19987

 Excited State   3:      Singlet-A      2.0149 eV  615.34 nm  f=0.0162  <S**2>=0.000
     244 -> 247        0.59130
     245 -> 247        0.34138
     246 -> 248        0.15484

 Excited State   4:      Singlet-A      2.1574 eV  574.70 nm  f=0.0003  <S**2>=0.000
     243 -> 247        0.70518

 Excited State   5:      Singlet-A      2.4944 eV  497.05 nm  f=0.0000  <S**2>=0.000
     241 -> 247        0.70613

 The electronic state is 1-A.
 Alpha  occ. eigenvalues --  -46.27034 -18.82372 -18.81631 -18.78158 -18.76856
 Alpha  occ. eigenvalues --  -18.75839 -18.74845 -14.03107 -14.02397 -14.00606
 Alpha  occ. eigenvalues --  -14.00539 -10.05191 -10.03945 -10.00057  -9.99218
 Alpha  occ. eigenvalues --   -9.98118  -9.96562  -9.96490  -9.96289  -9.95698
 Alpha  occ. eigenvalues --   -9.95504  -9.95271  -9.95177  -9.95124  -9.94629
 Alpha  occ. eigenvalues --   -9.94506  -9.94169  -9.94050  -9.93809  -9.93536
 Alpha  occ. eigenvalues --   -9.93471  -9.93122  -9.93112  -9.92880  -9.92736
 Alpha  occ. eigenvalues --   -9.92674  -9.92645  -9.92557  -9.92347  -9.92223
 Alpha  occ. eigenvalues --   -9.92141  -9.92035  -9.91983  -9.91944  -9.91892
 Alpha  occ. eigenvalues --   -9.91833  -9.91792  -9.91703  -9.91657  -9.91642
 Alpha  occ. eigenvalues --   -9.91565  -9.91465  -9.91386  -9.91245  -9.91155
 Alpha  occ. eigenvalues --   -9.91130  -9.91103  -9.91027  -9.91026  -9.90967
 Alpha  occ. eigenvalues --   -9.90952  -9.90918  -9.90840  -9.90839  -9.90834
 Alpha  occ. eigenvalues --   -9.90593  -2.91543  -1.71972  -1.71420  -1.71255
 Alpha  occ. eigenvalues --   -0.97367  -0.97299  -0.92170  -0.90752  -0.89900
 Alpha  occ. eigenvalues --   -0.89139  -0.86730  -0.85428  -0.84781  -0.83264
 Alpha  occ. eigenvalues --   -0.74818  -0.74741  -0.73205  -0.72982  -0.72816
 Alpha  occ. eigenvalues --   -0.72181  -0.71849  -0.70839  -0.70796  -0.69944
 Alpha  occ. eigenvalues --   -0.69300  -0.68908  -0.68260  -0.67673  -0.67335
 Alpha  occ. eigenvalues --   -0.66700  -0.65795  -0.65480  -0.65024  -0.64439
 Alpha  occ. eigenvalues --   -0.64270  -0.62356  -0.62005  -0.61879  -0.60786
 Alpha  occ. eigenvalues --   -0.60221  -0.59706  -0.59592  -0.59545  -0.58979
 Alpha  occ. eigenvalues --   -0.58305  -0.57099  -0.56368  -0.55425  -0.55215
 Alpha  occ. eigenvalues --   -0.53881  -0.53622  -0.52718  -0.52193  -0.51571
 Alpha  occ. eigenvalues --   -0.51129  -0.50708  -0.50399  -0.50351  -0.49883
 Alpha  occ. eigenvalues --   -0.49420  -0.49262  -0.48343  -0.48060  -0.46208
 Alpha  occ. eigenvalues --   -0.46062  -0.45579  -0.45170  -0.44493  -0.44347
 Alpha  occ. eigenvalues --   -0.43736  -0.43428  -0.43076  -0.42769  -0.42438
 Alpha  occ. eigenvalues --   -0.42087  -0.41810  -0.41760  -0.41532  -0.41234
 Alpha  occ. eigenvalues --   -0.40844  -0.40616  -0.40565  -0.40550  -0.40415
 Alpha  occ. eigenvalues --   -0.39959  -0.39839  -0.39758  -0.39560  -0.39101
 Alpha  occ. eigenvalues --   -0.39050  -0.38682  -0.38614  -0.38466  -0.38359
 Alpha  occ. eigenvalues --   -0.38198  -0.38095  -0.37952  -0.37822  -0.37801
 Alpha  occ. eigenvalues --   -0.37319  -0.36980  -0.36802  -0.36758  -0.36460
 Alpha  occ. eigenvalues --   -0.36374  -0.36054  -0.36028  -0.35676  -0.35491
 Alpha  occ. eigenvalues --   -0.35372  -0.34965  -0.34832  -0.34731  -0.34357
 Alpha  occ. eigenvalues --   -0.34305  -0.34192  -0.33931  -0.33779  -0.33517
 Alpha  occ. eigenvalues --   -0.33493  -0.33382  -0.33298  -0.33102  -0.33081
 Alpha  occ. eigenvalues --   -0.33017  -0.32707  -0.32475  -0.32393  -0.32322
 Alpha  occ. eigenvalues --   -0.32183  -0.32125  -0.31999  -0.31647  -0.31417
 Alpha  occ. eigenvalues --   -0.31201  -0.31080  -0.30933  -0.30804  -0.30594
 Alpha  occ. eigenvalues --   -0.30463  -0.30327  -0.30041  -0.29700  -0.29406
 Alpha  occ. eigenvalues --   -0.29349  -0.29221  -0.29198  -0.29064  -0.28715
 Alpha  occ. eigenvalues --   -0.28319  -0.28155  -0.28151  -0.27877  -0.27495
 Alpha  occ. eigenvalues --   -0.27262  -0.26888  -0.26690  -0.26448  -0.26172
 Alpha  occ. eigenvalues --   -0.26023  -0.25887  -0.25490  -0.25305  -0.25203
 Alpha  occ. eigenvalues --   -0.24975  -0.24294  -0.24291  -0.23687  -0.23571
 Alpha  occ. eigenvalues --   -0.22755  -0.22710  -0.21891  -0.21412  -0.20502
 Alpha  occ. eigenvalues --   -0.20166  -0.19856  -0.18808  -0.18230  -0.16839
 Alpha  occ. eigenvalues --   -0.15290
 Alpha virt. eigenvalues --   -0.10999  -0.07048  -0.06112  -0.04754  -0.04535
 Alpha virt. eigenvalues --   -0.02984  -0.02413  -0.01501  -0.01340   0.00325
 Alpha virt. eigenvalues --    0.00420   0.01520   0.01816   0.02012   0.02375

 Mulliken charges:
               1
     1  Mg   0.677359
     2  C    0.003386
     3  C   -0.046185
     4  C   -0.055930
     5  C   -0.073951
     6  N   -0.222659
     7  C   -0.018187
     8  C    0.038403
     9  C    0.030848
    10  C    0.010662
    11  C    0.154459
    12  C    0.063873
    13  C    0.135730
    14  C    0.121910
    15  O   -0.189351
    16  O   -0.309889
    17  N   -0.284905
    18  C    0.121396
    19  C   -0.165005
    20  C    0.074306
    21  C    0.106759
    22  C    0.188403
    23  C   -0.112618
    24  O   -0.177340
    25  C    0.144204
    26  N   -0.176199
    27  C   -0.003745
    28  C    0.041925
    29  C    0.055870
    30  C   -0.057433
    31  C    0.169369
    32  C    0.041891
    33  C    0.091245
    34  N   -0.302914
    35  C    0.174578
    36  C   -0.191575
    37  C    0.097916
    38  C    0.055718
    39  C    0.175941
    40  C   -0.049705
    41  O   -0.106874
    42  C    0.043963
    43  C    0.131446
    44  O   -0.211239
    45  O   -0.254538
    46  C    0.233411
    47  C    0.324704
    48  C   -0.122707
    49  C   -0.180082
    50  C    0.167923
    51  C    0.133509
    52  C    0.078331
    53  C    0.138768
    54  C   -0.053802
    55  C    0.093449
    56  C    0.089142
    57  C    0.049500
    58  C    0.156326
    59  C   -0.110203
    60  C    0.097114
    61  C    0.122272
    62  C    0.072084
    63  C    0.080809
    64  C   -0.181489
    65  C    0.111399
    66  C    0.147759
    67  H   -0.062440
    68  H   -0.045399
    69  H   -0.074487
    70  H    0.002327
    71  H   -0.038690
    72  H   -0.013246
    73  H   -0.010961
    74  H    0.007167
    75  H   -0.038058
    76  H   -0.054144
    77  H   -0.002153
    78  H    0.024829
    79  H   -0.011710
    80  H    0.033109
    81  H   -0.028515
    82  H   -0.011783
    83  H   -0.011307
    84  H    0.016633
    85  H   -0.022678
    86  H   -0.023150
    87  H   -0.003349
    88  H   -0.022984
    89  H   -0.022882
    90  H   -0.025965
    91  H   -0.026052
    92  H   -0.000240
    93  H   -0.007261
    94  H   -0.009433
    95  H   -0.002183
    96  H    0.011198
    97  H    0.010743
    98  H    0.009641
    99  H    0.002706
   100  H    0.015216
   101  H   -0.008656
   102  H    0.011923
   103  H    0.008698
   104  H   -0.039262
   105  H   -0.010074
   106  H   -0.012710
   107  H    0.009279
   108  H   -0.024334
   109  H   -0.050452
   110  H   -0.027597
   111  H   -0.029784
   112  H   -0.044426
   113  H   -0.037106
   114  H   -0.040625
   115  H   -0.023405
   116  H   -0.009621
   117  H   -0.023989
   118  H   -0.049422
   119  H   -0.037096
   120  H   -0.041897
   121  H   -0.027179
   122  H   -0.037536
   123  H   -0.026906
   124  H   -0.034214
   125  H   -0.018908
   126  H   -0.025672
   127  H   -0.012114
   128  H   -0.033295
   129  H   -0.024153
   130  H   -0.006207
   131  H   -0.034556
   132  H   -0.023333
   133  H   -0.025615
   134  H   -0.031064
   135  H   -0.022390
   136  H   -0.010438
   137  H   -0.011165
   138  H   -0.002511
   139  H   -0.019054
   140  H   -0.047169
 Sum of Mulliken charges =  -0.00000

 Dipole moment (field-independent basis, Debye):
    X=              3.3160    Y=              2.4654    Z=             -1.4182  Tot=              4.3687
 Quadrupole moment (field-independent basis, Debye-Ang):
   XX=           -380.1883   YY=           -424.2206   ZZ=           -407.1671
   XY=             11.9325   XZ=             12.4125   YZ=             -0.5841

 Normal termination of Gaussian 16 at Wed Apr 27 12:05:41 2022.
