 Gaussian 16, Revision A.03,
 Gaussian 16:  ES64L-G16RevA.03 25-Dec-2016

 -----------------------------------
 #p cam-b3lyp/Def2SVP td=(nstates=5)
 -----------------------------------

 --------------------------------------------------------
 step_1151_chromophore_19 TDDFT with cam-b3lyp functional
 --------------------------------------------------------
 Symbolic Z-matrix:
 Charge =  0 Multiplicity = 1

                         Standard orientation:
 ---------------------------------------------------------------------
 Center     Atomic      Atomic             Coordinates (Angstroms)
 Number     Number       Type             X           Y           Z
 ---------------------------------------------------------------------
      1         12           0       -5.931191    0.422173   -0.240619
      2          6           0       -3.546965   -2.293323   -0.327550
      3          6           0       -3.392325    2.606422    0.226572
      4          6           0       -8.202523    2.807814    0.408908
      5          6           0       -8.483574   -1.996301   -0.259022
      6          7           0       -3.765193    0.171556    0.043279
      7          6           0       -2.998937   -0.996152   -0.110719
      8          6           0       -1.520816   -0.709386    0.024988
      9          6           0       -1.471552    0.833269    0.362186
     10          6           0       -2.957198    1.250833    0.072747
     11          6           0       -1.071922    1.153619    1.827994
     12          6           0       -0.831744   -1.003611   -1.345793
     13          6           0        0.653014   -1.141650   -1.373020
     14          6           0        1.621258   -0.774932   -0.232829
     15          8           0        1.379453   -0.758992    0.966633
     16          8           0        2.935293   -0.848988   -0.732868
     17          7           0       -5.830575    2.483861    0.157554
     18          6           0       -4.675222    3.214963    0.252699
     19          6           0       -5.078700    4.581258    0.451565
     20          6           0       -6.490234    4.698970    0.348001
     21          6           0       -6.923819    3.273328    0.265303
     22          6           0       -4.060615    5.647622    0.559272
     23          6           0       -7.352261    5.870784    0.420654
     24          8           0       -8.564823    5.732762    0.250278
     25          6           0       -6.761028    7.255418    0.609423
     26          7           0       -8.103599    0.357846    0.134066
     27          6           0       -8.742399    1.493388    0.367225
     28          6           0      -10.232218    1.193447    0.383121
     29          6           0      -10.372360   -0.321528    0.179579
     30          6           0       -8.939562   -0.682773   -0.098213
     31          6           0      -11.022583    1.702463    1.477155
     32          6           0      -11.435483   -0.804502   -0.828738
     33          6           0      -11.081373   -1.103135   -2.312758
     34          7           0       -6.051534   -1.668346   -0.297188
     35          6           0       -7.218782   -2.490504   -0.344655
     36          6           0       -6.811365   -3.898944   -0.593264
     37          6           0       -5.393494   -3.860861   -0.551415
     38          6           0       -4.960459   -2.519419   -0.280422
     39          6           0       -7.789898   -5.032038   -0.870582
     40          6           0       -4.160855   -4.635441   -0.718294
     41          8           0       -3.973537   -5.816220   -0.885276
     42          6           0       -2.899543   -3.651450   -0.552997
     43          6           0       -2.239722   -4.029499    0.733679
     44          8           0       -2.387283   -3.441310    1.830037
     45          8           0       -1.311099   -5.061073    0.534134
     46          6           0       -0.536647   -5.349747    1.661509
     47          6           0        3.958361   -0.611955    0.356932
     48          6           0        5.290622   -0.531766   -0.278016
     49          6           0        6.454977   -0.459519    0.315579
     50          6           0        6.612445   -0.313658    1.770123
     51          6           0        7.712449   -0.316599   -0.463075
     52          6           0        7.835413    0.995154   -1.292568
     53          6           0        8.490334    0.876805   -2.637289
     54          6           0        9.845030    1.622102   -2.730934
     55          6           0        9.789189    2.703244   -3.859172
     56          6           0       11.021156    0.647827   -2.891956
     57          6           0       11.710073    0.229760   -1.590280
     58          6           0       13.202893    0.055649   -1.734911
     59          6           0       14.027898    1.004380   -0.802403
     60          6           0       15.146776    1.843025   -1.535780
     61          6           0       14.603612    0.302855    0.529953
     62          6           0       13.642830    0.651107    1.713505
     63          6           0       13.134799   -0.625202    2.437200
     64          6           0       11.670373   -0.306695    2.914249
     65          6           0       11.589863    0.594319    4.209658
     66          6           0       10.927468   -1.617376    3.214230
     67          1           0       -2.607480    3.364797    0.200614
     68          1           0       -8.971286    3.572687    0.538185
     69          1           0       -9.314662   -2.703616   -0.296210
     70          1           0       -1.154490   -1.413902    0.771053
     71          1           0       -0.828248    1.339024   -0.358045
     72          1           0       -1.902531    1.580356    2.390655
     73          1           0       -0.225119    1.836570    1.766971
     74          1           0       -0.829920    0.288889    2.446046
     75          1           0       -1.137697   -0.346444   -2.159881
     76          1           0       -1.247445   -1.925239   -1.752654
     77          1           0        0.877044   -0.435787   -2.173526
     78          1           0        0.803670   -2.171608   -1.698248
     79          1           0       -4.236240    6.170156    1.500440
     80          1           0       -4.055556    6.211850   -0.372963
     81          1           0       -3.094850    5.229846    0.844146
     82          1           0       -7.403710    8.053439    0.236188
     83          1           0       -5.877176    7.339548   -0.023708
     84          1           0       -6.539896    7.381271    1.668574
     85          1           0      -10.606642    1.640758   -0.537626
     86          1           0      -10.611980   -0.911804    1.063761
     87          1           0      -10.374532    2.335520    2.084122
     88          1           0      -11.506682    0.926955    2.069844
     89          1           0      -11.888017    2.270607    1.133501
     90          1           0      -12.209174   -0.038645   -0.773541
     91          1           0      -11.842075   -1.754068   -0.481615
     92          1           0      -11.973883   -0.918201   -2.911515
     93          1           0      -10.700365   -2.121708   -2.383826
     94          1           0      -10.270387   -0.439954   -2.612849
     95          1           0       -8.675876   -4.759629   -1.443503
     96          1           0       -8.077151   -5.398488    0.114467
     97          1           0       -7.244904   -5.774423   -1.453617
     98          1           0       -2.128313   -3.707502   -1.322063
     99          1           0        0.086170   -6.223461    1.471744
    100          1           0       -1.163055   -5.410836    2.552147
    101          1           0        0.190606   -4.546166    1.777863
    102          1           0        3.935596   -1.462353    1.036781
    103          1           0        3.751964    0.310343    0.900517
    104          1           0        5.245845   -0.609740   -1.364569
    105          1           0        7.560319   -0.794852    2.012241
    106          1           0        5.824120   -0.823027    2.323939
    107          1           0        6.619300    0.754075    1.990342
    108          1           0        7.880915   -1.224304   -1.042955
    109          1           0        8.530386   -0.383605    0.253011
    110          1           0        8.295317    1.701152   -0.602256
    111          1           0        6.834133    1.331312   -1.562367
    112          1           0        7.740235    1.283978   -3.315636
    113          1           0        8.615273   -0.167685   -2.924539
    114          1           0       10.011564    2.119665   -1.775265
    115          1           0        9.739740    2.123438   -4.780297
    116          1           0       10.604052    3.424251   -3.927446
    117          1           0        8.854910    3.261246   -3.903683
    118          1           0       11.755302    1.093252   -3.563146
    119          1           0       10.734273   -0.223593   -3.481667
    120          1           0       11.163136   -0.666548   -1.299515
    121          1           0       11.433378    0.856511   -0.741895
    122          1           0       13.464517    0.406810   -2.733240
    123          1           0       13.383574   -1.012045   -1.610394
    124          1           0       13.342046    1.801192   -0.514339
    125          1           0       16.124566    1.471174   -1.231509
    126          1           0       15.209083    2.848319   -1.120037
    127          1           0       14.903343    1.897985   -2.596821
    128          1           0       15.601175    0.674890    0.764274
    129          1           0       14.640266   -0.755094    0.270374
    130          1           0       12.877491    1.416759    1.580224
    131          1           0       14.356937    0.982740    2.467379
    132          1           0       13.788766   -0.902468    3.264383
    133          1           0       12.983654   -1.468286    1.763066
    134          1           0       11.160111    0.214744    2.104348
    135          1           0       12.542847    1.119453    4.274369
    136          1           0       11.463647   -0.059889    5.072311
    137          1           0       10.772340    1.308170    4.109397
    138          1           0       11.681503   -2.359474    3.477073
    139          1           0       10.097288   -1.832339    2.541228
    140          1           0       10.317589   -1.318023    4.067225
 ---------------------------------------------------------------------

 SCF Done:  E(RCAM-B3LYP) =  -3007.14653799     A.U. after   19 cycles

 Excitation energies and oscillator strengths:

 Excited State   1:      Singlet-A      1.7004 eV  729.16 nm  f=0.3674  <S**2>=0.000
     245 -> 248       -0.19171
     246 -> 247        0.68112
     245 <- 248       -0.10807
 This state for optimization and/or second-order correction.
 Total Energy, E(TD-HF/TD-DFT) =  -3007.08405022
 Copying the excited state density for this state as the 1-particle RhoCI density.

 Excited State   2:      Singlet-A      2.2277 eV  556.55 nm  f=0.0554  <S**2>=0.000
     245 -> 247        0.61318
     246 -> 248        0.33833

 Excited State   3:      Singlet-A      3.3543 eV  369.62 nm  f=0.6552  <S**2>=0.000
     243 -> 247       -0.16670
     245 -> 247       -0.31356
     246 -> 248        0.59699
     245 <- 247        0.10699

 Excited State   4:      Singlet-A      3.4668 eV  357.63 nm  f=0.0014  <S**2>=0.000
     244 -> 247        0.67771

 Excited State   5:      Singlet-A      3.5413 eV  350.11 nm  f=0.0030  <S**2>=0.000
     239 -> 247        0.38967
     239 -> 248       -0.13650
     239 -> 249        0.21476
     239 -> 250        0.18438
     240 -> 247        0.36605
     240 -> 248       -0.11775
     240 -> 249        0.18435
     240 -> 250        0.15223

 The electronic state is 1-A.
 Alpha  occ. eigenvalues --  -46.88600 -19.25217 -19.24504 -19.21195 -19.19998
 Alpha  occ. eigenvalues --  -19.18937 -19.18312 -14.41909 -14.41303 -14.39124
 Alpha  occ. eigenvalues --  -14.38885 -10.40578 -10.39550 -10.35347 -10.34642
 Alpha  occ. eigenvalues --  -10.32153 -10.31218 -10.30764 -10.30263 -10.30153
 Alpha  occ. eigenvalues --  -10.29827 -10.29669 -10.29617 -10.29121 -10.28893
 Alpha  occ. eigenvalues --  -10.28886 -10.28583 -10.28330 -10.27976 -10.27861
 Alpha  occ. eigenvalues --  -10.27634 -10.27106 -10.26994 -10.26792 -10.26720
 Alpha  occ. eigenvalues --  -10.26703 -10.26640 -10.26323 -10.26217 -10.26119
 Alpha  occ. eigenvalues --  -10.26117 -10.26093 -10.25840 -10.25731 -10.25705
 Alpha  occ. eigenvalues --  -10.25704 -10.25653 -10.25593 -10.25560 -10.25395
 Alpha  occ. eigenvalues --  -10.25334 -10.25276 -10.25099 -10.24928 -10.24825
 Alpha  occ. eigenvalues --  -10.24768 -10.24725 -10.24712 -10.24660 -10.24658
 Alpha  occ. eigenvalues --  -10.24598 -10.24533 -10.24529 -10.24482 -10.24450
 Alpha  occ. eigenvalues --  -10.24191  -3.17007  -1.91914  -1.91450  -1.91307
 Alpha  occ. eigenvalues --   -1.15818  -1.15727  -1.10529  -1.09388  -1.07668
 Alpha  occ. eigenvalues --   -1.07081  -1.04466  -1.03158  -1.02404  -1.00609
 Alpha  occ. eigenvalues --   -0.91812  -0.91731  -0.89994  -0.89753  -0.89476
 Alpha  occ. eigenvalues --   -0.88901  -0.88663  -0.87560  -0.87399  -0.86557
 Alpha  occ. eigenvalues --   -0.85713  -0.85206  -0.84535  -0.83821  -0.83507
 Alpha  occ. eigenvalues --   -0.82757  -0.82036  -0.81446  -0.80914  -0.80281
 Alpha  occ. eigenvalues --   -0.80152  -0.78198  -0.77567  -0.77415  -0.76156
 Alpha  occ. eigenvalues --   -0.75522  -0.75036  -0.74869  -0.74779  -0.74224
 Alpha  occ. eigenvalues --   -0.73339  -0.72049  -0.71262  -0.70197  -0.69848
 Alpha  occ. eigenvalues --   -0.68528  -0.68305  -0.67198  -0.66553  -0.65838
 Alpha  occ. eigenvalues --   -0.65270  -0.64613  -0.64465  -0.64375  -0.63844
 Alpha  occ. eigenvalues --   -0.63399  -0.63040  -0.62205  -0.61707  -0.59950
 Alpha  occ. eigenvalues --   -0.59611  -0.59093  -0.58632  -0.58065  -0.57743
 Alpha  occ. eigenvalues --   -0.56958  -0.56844  -0.56232  -0.56023  -0.55487
 Alpha  occ. eigenvalues --   -0.55117  -0.54872  -0.54646  -0.54515  -0.53998
 Alpha  occ. eigenvalues --   -0.53817  -0.53655  -0.53503  -0.53266  -0.53171
 Alpha  occ. eigenvalues --   -0.52774  -0.52477  -0.52384  -0.52168  -0.51915
 Alpha  occ. eigenvalues --   -0.51418  -0.51169  -0.50996  -0.50942  -0.50765
 Alpha  occ. eigenvalues --   -0.50634  -0.50479  -0.50330  -0.50158  -0.50005
 Alpha  occ. eigenvalues --   -0.49641  -0.49522  -0.49258  -0.49142  -0.48787
 Alpha  occ. eigenvalues --   -0.48575  -0.48416  -0.48241  -0.48005  -0.47814
 Alpha  occ. eigenvalues --   -0.47581  -0.46959  -0.46855  -0.46749  -0.46466
 Alpha  occ. eigenvalues --   -0.46170  -0.46023  -0.45762  -0.45565  -0.45442
 Alpha  occ. eigenvalues --   -0.45283  -0.45171  -0.45063  -0.44821  -0.44623
 Alpha  occ. eigenvalues --   -0.44594  -0.44548  -0.44113  -0.44012  -0.43928
 Alpha  occ. eigenvalues --   -0.43852  -0.43744  -0.43566  -0.43279  -0.42887
 Alpha  occ. eigenvalues --   -0.42694  -0.42625  -0.42505  -0.42425  -0.42232
 Alpha  occ. eigenvalues --   -0.42065  -0.41577  -0.41502  -0.41384  -0.40830
 Alpha  occ. eigenvalues --   -0.40527  -0.40463  -0.40261  -0.40151  -0.39980
 Alpha  occ. eigenvalues --   -0.39507  -0.39063  -0.39015  -0.38732  -0.38336
 Alpha  occ. eigenvalues --   -0.38181  -0.37859  -0.37544  -0.37483  -0.37151
 Alpha  occ. eigenvalues --   -0.37025  -0.36836  -0.36319  -0.36015  -0.35899
 Alpha  occ. eigenvalues --   -0.35843  -0.35760  -0.34804  -0.34594  -0.34239
 Alpha  occ. eigenvalues --   -0.33918  -0.33626  -0.33020  -0.30935  -0.30751
 Alpha  occ. eigenvalues --   -0.30557  -0.29845  -0.29834  -0.29052  -0.23635
 Alpha  occ. eigenvalues --   -0.20451
 Alpha virt. eigenvalues --   -0.07936  -0.02020   0.00231   0.02198   0.02472
 Alpha virt. eigenvalues --    0.03272   0.04737   0.05828   0.05852   0.06233
 Alpha virt. eigenvalues --    0.07322   0.07672   0.08306   0.08680   0.08748

 Mulliken charges:
               1
     1  Mg   0.808247
     2  C   -0.028604
     3  C   -0.069580
     4  C   -0.073321
     5  C   -0.080375
     6  N   -0.292056
     7  C    0.027368
     8  C   -0.019739
     9  C   -0.023819
    10  C    0.038475
    11  C    0.094797
    12  C    0.016964
    13  C    0.067963
    14  C    0.196539
    15  O   -0.228311
    16  O   -0.374737
    17  N   -0.374563
    18  C    0.132398
    19  C   -0.165861
    20  C    0.006083
    21  C    0.134893
    22  C    0.119568
    23  C   -0.034021
    24  O   -0.218071
    25  C    0.065888
    26  N   -0.246815
    27  C    0.023721
    28  C   -0.025185
    29  C    0.002717
    30  C   -0.037243
    31  C    0.101455
    32  C   -0.009464
    33  C    0.032710
    34  N   -0.385926
    35  C    0.170852
    36  C   -0.180993
    37  C    0.012706
    38  C    0.096082
    39  C    0.125508
    40  C    0.047542
    41  O   -0.145566
    42  C   -0.033737
    43  C    0.224440
    44  O   -0.246477
    45  O   -0.316149
    46  C    0.187188
    47  C    0.291579
    48  C   -0.138069
    49  C   -0.205976
    50  C    0.105993
    51  C    0.080638
    52  C    0.022801
    53  C    0.080902
    54  C   -0.113507
    55  C    0.037816
    56  C    0.037730
    57  C    0.003675
    58  C    0.098638
    59  C   -0.166043
    60  C    0.044162
    61  C    0.073245
    62  C    0.008589
    63  C    0.032420
    64  C   -0.230882
    65  C    0.050811
    66  C    0.084106
    67  H   -0.029758
    68  H   -0.003362
    69  H   -0.038687
    70  H    0.037377
    71  H   -0.004602
    72  H    0.013641
    73  H    0.012037
    74  H    0.033760
    75  H   -0.005415
    76  H   -0.023780
    77  H    0.030135
    78  H    0.055677
    79  H    0.017882
    80  H    0.058737
    81  H    0.003166
    82  H    0.024446
    83  H    0.017154
    84  H    0.045226
    85  H    0.012431
    86  H    0.012812
    87  H    0.022290
    88  H    0.004407
    89  H    0.003796
    90  H    0.001446
    91  H    0.001692
    92  H    0.023513
    93  H    0.013336
    94  H    0.012621
    95  H    0.021233
    96  H    0.037192
    97  H    0.036709
    98  H    0.051369
    99  H    0.027196
   100  H    0.040334
   101  H    0.013254
   102  H    0.038907
   103  H    0.035734
   104  H   -0.002234
   105  H    0.010679
   106  H    0.012088
   107  H    0.033469
   108  H    0.006300
   109  H   -0.024385
   110  H    0.000516
   111  H    0.000343
   112  H   -0.012694
   113  H   -0.008208
   114  H   -0.009002
   115  H   -0.000747
   116  H    0.014872
   117  H    0.000900
   118  H   -0.019853
   119  H   -0.008337
   120  H   -0.014676
   121  H   -0.005615
   122  H   -0.009269
   123  H    0.001967
   124  H   -0.002709
   125  H    0.003825
   126  H   -0.001161
   127  H    0.010571
   128  H   -0.003744
   129  H    0.002762
   130  H    0.019248
   131  H   -0.004949
   132  H    0.004076
   133  H    0.001191
   134  H   -0.003697
   135  H    0.000968
   136  H    0.013636
   137  H    0.013188
   138  H    0.021837
   139  H    0.002891
   140  H   -0.020078
 Sum of Mulliken charges =  -0.00000

 Dipole moment (field-independent basis, Debye):
    X=              3.2876    Y=              3.4134    Z=             -1.4455  Tot=              4.9547
 Quadrupole moment (field-independent basis, Debye-Ang):
   XX=           -379.2524   YY=           -419.0712   ZZ=           -406.9199
   XY=              7.7913   XZ=             12.5722   YZ=             -0.1600

 Normal termination of Gaussian 16 at Wed Apr 27 10:58:00 2022.
