 Gaussian 16, Revision A.03,
 Gaussian 16:  ES64L-G16RevA.03 25-Dec-2016

 ---------------------------------
 #p PBE1PBE/Def2SVP td=(nstates=5)
 ---------------------------------

 ------------------------------------------------------
 step_1151_chromophore_19 TDDFT with PBE1PBE functional
 ------------------------------------------------------
 Symbolic Z-matrix:
 Charge =  0 Multiplicity = 1

                         Standard orientation:
 ---------------------------------------------------------------------
 Center     Atomic      Atomic             Coordinates (Angstroms)
 Number     Number       Type             X           Y           Z
 ---------------------------------------------------------------------
      1         12           0       -5.931191    0.422173   -0.240619
      2          6           0       -3.546965   -2.293323   -0.327550
      3          6           0       -3.392325    2.606422    0.226572
      4          6           0       -8.202523    2.807814    0.408908
      5          6           0       -8.483574   -1.996301   -0.259022
      6          7           0       -3.765193    0.171556    0.043279
      7          6           0       -2.998937   -0.996152   -0.110719
      8          6           0       -1.520816   -0.709386    0.024988
      9          6           0       -1.471552    0.833269    0.362186
     10          6           0       -2.957198    1.250833    0.072747
     11          6           0       -1.071922    1.153619    1.827994
     12          6           0       -0.831744   -1.003611   -1.345793
     13          6           0        0.653014   -1.141650   -1.373020
     14          6           0        1.621258   -0.774932   -0.232829
     15          8           0        1.379453   -0.758992    0.966633
     16          8           0        2.935293   -0.848988   -0.732868
     17          7           0       -5.830575    2.483861    0.157554
     18          6           0       -4.675222    3.214963    0.252699
     19          6           0       -5.078700    4.581258    0.451565
     20          6           0       -6.490234    4.698970    0.348001
     21          6           0       -6.923819    3.273328    0.265303
     22          6           0       -4.060615    5.647622    0.559272
     23          6           0       -7.352261    5.870784    0.420654
     24          8           0       -8.564823    5.732762    0.250278
     25          6           0       -6.761028    7.255418    0.609423
     26          7           0       -8.103599    0.357846    0.134066
     27          6           0       -8.742399    1.493388    0.367225
     28          6           0      -10.232218    1.193447    0.383121
     29          6           0      -10.372360   -0.321528    0.179579
     30          6           0       -8.939562   -0.682773   -0.098213
     31          6           0      -11.022583    1.702463    1.477155
     32          6           0      -11.435483   -0.804502   -0.828738
     33          6           0      -11.081373   -1.103135   -2.312758
     34          7           0       -6.051534   -1.668346   -0.297188
     35          6           0       -7.218782   -2.490504   -0.344655
     36          6           0       -6.811365   -3.898944   -0.593264
     37          6           0       -5.393494   -3.860861   -0.551415
     38          6           0       -4.960459   -2.519419   -0.280422
     39          6           0       -7.789898   -5.032038   -0.870582
     40          6           0       -4.160855   -4.635441   -0.718294
     41          8           0       -3.973537   -5.816220   -0.885276
     42          6           0       -2.899543   -3.651450   -0.552997
     43          6           0       -2.239722   -4.029499    0.733679
     44          8           0       -2.387283   -3.441310    1.830037
     45          8           0       -1.311099   -5.061073    0.534134
     46          6           0       -0.536647   -5.349747    1.661509
     47          6           0        3.958361   -0.611955    0.356932
     48          6           0        5.290622   -0.531766   -0.278016
     49          6           0        6.454977   -0.459519    0.315579
     50          6           0        6.612445   -0.313658    1.770123
     51          6           0        7.712449   -0.316599   -0.463075
     52          6           0        7.835413    0.995154   -1.292568
     53          6           0        8.490334    0.876805   -2.637289
     54          6           0        9.845030    1.622102   -2.730934
     55          6           0        9.789189    2.703244   -3.859172
     56          6           0       11.021156    0.647827   -2.891956
     57          6           0       11.710073    0.229760   -1.590280
     58          6           0       13.202893    0.055649   -1.734911
     59          6           0       14.027898    1.004380   -0.802403
     60          6           0       15.146776    1.843025   -1.535780
     61          6           0       14.603612    0.302855    0.529953
     62          6           0       13.642830    0.651107    1.713505
     63          6           0       13.134799   -0.625202    2.437200
     64          6           0       11.670373   -0.306695    2.914249
     65          6           0       11.589863    0.594319    4.209658
     66          6           0       10.927468   -1.617376    3.214230
     67          1           0       -2.607480    3.364797    0.200614
     68          1           0       -8.971286    3.572687    0.538185
     69          1           0       -9.314662   -2.703616   -0.296210
     70          1           0       -1.154490   -1.413902    0.771053
     71          1           0       -0.828248    1.339024   -0.358045
     72          1           0       -1.902531    1.580356    2.390655
     73          1           0       -0.225119    1.836570    1.766971
     74          1           0       -0.829920    0.288889    2.446046
     75          1           0       -1.137697   -0.346444   -2.159881
     76          1           0       -1.247445   -1.925239   -1.752654
     77          1           0        0.877044   -0.435787   -2.173526
     78          1           0        0.803670   -2.171608   -1.698248
     79          1           0       -4.236240    6.170156    1.500440
     80          1           0       -4.055556    6.211850   -0.372963
     81          1           0       -3.094850    5.229846    0.844146
     82          1           0       -7.403710    8.053439    0.236188
     83          1           0       -5.877176    7.339548   -0.023708
     84          1           0       -6.539896    7.381271    1.668574
     85          1           0      -10.606642    1.640758   -0.537626
     86          1           0      -10.611980   -0.911804    1.063761
     87          1           0      -10.374532    2.335520    2.084122
     88          1           0      -11.506682    0.926955    2.069844
     89          1           0      -11.888017    2.270607    1.133501
     90          1           0      -12.209174   -0.038645   -0.773541
     91          1           0      -11.842075   -1.754068   -0.481615
     92          1           0      -11.973883   -0.918201   -2.911515
     93          1           0      -10.700365   -2.121708   -2.383826
     94          1           0      -10.270387   -0.439954   -2.612849
     95          1           0       -8.675876   -4.759629   -1.443503
     96          1           0       -8.077151   -5.398488    0.114467
     97          1           0       -7.244904   -5.774423   -1.453617
     98          1           0       -2.128313   -3.707502   -1.322063
     99          1           0        0.086170   -6.223461    1.471744
    100          1           0       -1.163055   -5.410836    2.552147
    101          1           0        0.190606   -4.546166    1.777863
    102          1           0        3.935596   -1.462353    1.036781
    103          1           0        3.751964    0.310343    0.900517
    104          1           0        5.245845   -0.609740   -1.364569
    105          1           0        7.560319   -0.794852    2.012241
    106          1           0        5.824120   -0.823027    2.323939
    107          1           0        6.619300    0.754075    1.990342
    108          1           0        7.880915   -1.224304   -1.042955
    109          1           0        8.530386   -0.383605    0.253011
    110          1           0        8.295317    1.701152   -0.602256
    111          1           0        6.834133    1.331312   -1.562367
    112          1           0        7.740235    1.283978   -3.315636
    113          1           0        8.615273   -0.167685   -2.924539
    114          1           0       10.011564    2.119665   -1.775265
    115          1           0        9.739740    2.123438   -4.780297
    116          1           0       10.604052    3.424251   -3.927446
    117          1           0        8.854910    3.261246   -3.903683
    118          1           0       11.755302    1.093252   -3.563146
    119          1           0       10.734273   -0.223593   -3.481667
    120          1           0       11.163136   -0.666548   -1.299515
    121          1           0       11.433378    0.856511   -0.741895
    122          1           0       13.464517    0.406810   -2.733240
    123          1           0       13.383574   -1.012045   -1.610394
    124          1           0       13.342046    1.801192   -0.514339
    125          1           0       16.124566    1.471174   -1.231509
    126          1           0       15.209083    2.848319   -1.120037
    127          1           0       14.903343    1.897985   -2.596821
    128          1           0       15.601175    0.674890    0.764274
    129          1           0       14.640266   -0.755094    0.270374
    130          1           0       12.877491    1.416759    1.580224
    131          1           0       14.356937    0.982740    2.467379
    132          1           0       13.788766   -0.902468    3.264383
    133          1           0       12.983654   -1.468286    1.763066
    134          1           0       11.160111    0.214744    2.104348
    135          1           0       12.542847    1.119453    4.274369
    136          1           0       11.463647   -0.059889    5.072311
    137          1           0       10.772340    1.308170    4.109397
    138          1           0       11.681503   -2.359474    3.477073
    139          1           0       10.097288   -1.832339    2.541228
    140          1           0       10.317589   -1.318023    4.067225
 ---------------------------------------------------------------------

 SCF Done:  E(RPBE1PBE) =  -3005.33670680     A.U. after   15 cycles

 Excitation energies and oscillator strengths:

 Excited State   1:      Singlet-A      1.8428 eV  672.81 nm  f=0.3586  <S**2>=0.000
     245 -> 248       -0.18102
     246 -> 247        0.68857
 This state for optimization and/or second-order correction.
 Total Energy, E(TD-HF/TD-DFT) =  -3005.26898564
 Copying the excited state density for this state as the 1-particle RhoCI density.

 Excited State   2:      Singlet-A      2.2197 eV  558.57 nm  f=0.0629  <S**2>=0.000
     245 -> 247        0.63347
     246 -> 248        0.29668

 Excited State   3:      Singlet-A      3.0723 eV  403.55 nm  f=0.0032  <S**2>=0.000
     241 -> 247        0.52265
     241 -> 248       -0.10626
     241 -> 249       -0.12293
     241 -> 250       -0.10993
     242 -> 247       -0.20391
     244 -> 247        0.35817

 Excited State   4:      Singlet-A      3.1000 eV  399.95 nm  f=0.0070  <S**2>=0.000
     241 -> 247       -0.27712
     242 -> 247        0.18361
     244 -> 247        0.58487
     246 -> 248       -0.14017

 Excited State   5:      Singlet-A      3.1725 eV  390.80 nm  f=0.3392  <S**2>=0.000
     240 -> 247        0.16542
     241 -> 247       -0.14369
     245 -> 247       -0.23693
     245 -> 250        0.10883
     246 -> 248        0.57699
     246 -> 249        0.17047

 The electronic state is 1-A.
 Alpha  occ. eigenvalues --  -46.92001 -19.25950 -19.25171 -19.21456 -19.20275
 Alpha  occ. eigenvalues --  -19.19251 -19.18395 -14.41501 -14.40743 -14.38718
 Alpha  occ. eigenvalues --  -14.38659 -10.37636 -10.36608 -10.32594 -10.31600
 Alpha  occ. eigenvalues --  -10.29573 -10.28861 -10.28615 -10.27825 -10.27530
 Alpha  occ. eigenvalues --  -10.27482 -10.27336 -10.27243 -10.27056 -10.26724
 Alpha  occ. eigenvalues --  -10.26600 -10.26406 -10.25796 -10.25660 -10.25617
 Alpha  occ. eigenvalues --  -10.25486 -10.24975 -10.24663 -10.24532 -10.24515
 Alpha  occ. eigenvalues --  -10.24263 -10.24018 -10.23908 -10.23888 -10.23832
 Alpha  occ. eigenvalues --  -10.23704 -10.23497 -10.23490 -10.23419 -10.23351
 Alpha  occ. eigenvalues --  -10.23318 -10.23234 -10.23215 -10.23124 -10.22895
 Alpha  occ. eigenvalues --  -10.22876 -10.22863 -10.22657 -10.22499 -10.22408
 Alpha  occ. eigenvalues --  -10.22334 -10.22247 -10.22164 -10.22131 -10.22116
 Alpha  occ. eigenvalues --  -10.22061 -10.22051 -10.22041 -10.21971 -10.21869
 Alpha  occ. eigenvalues --  -10.21605  -3.13991  -1.86838  -1.86352  -1.86213
 Alpha  occ. eigenvalues --   -1.10610  -1.10514  -1.05380  -1.03965  -1.02548
 Alpha  occ. eigenvalues --   -1.01891  -0.99101  -0.97739  -0.97018  -0.95355
 Alpha  occ. eigenvalues --   -0.86206  -0.85914  -0.84159  -0.83940  -0.83808
 Alpha  occ. eigenvalues --   -0.83000  -0.82925  -0.81784  -0.81523  -0.80868
 Alpha  occ. eigenvalues --   -0.80096  -0.79467  -0.78733  -0.78151  -0.77807
 Alpha  occ. eigenvalues --   -0.76979  -0.76178  -0.75632  -0.75227  -0.74511
 Alpha  occ. eigenvalues --   -0.74377  -0.72435  -0.71882  -0.71758  -0.70340
 Alpha  occ. eigenvalues --   -0.69880  -0.69180  -0.69124  -0.69016  -0.68397
 Alpha  occ. eigenvalues --   -0.67680  -0.66522  -0.65710  -0.64513  -0.64233
 Alpha  occ. eigenvalues --   -0.62878  -0.62597  -0.61691  -0.60779  -0.60024
 Alpha  occ. eigenvalues --   -0.59727  -0.59165  -0.58926  -0.58571  -0.58429
 Alpha  occ. eigenvalues --   -0.57552  -0.57518  -0.56422  -0.56317  -0.54402
 Alpha  occ. eigenvalues --   -0.54078  -0.53691  -0.53124  -0.52557  -0.52302
 Alpha  occ. eigenvalues --   -0.51476  -0.51349  -0.50749  -0.50595  -0.50095
 Alpha  occ. eigenvalues --   -0.49619  -0.49433  -0.49198  -0.48906  -0.48537
 Alpha  occ. eigenvalues --   -0.48350  -0.48073  -0.47917  -0.47800  -0.47677
 Alpha  occ. eigenvalues --   -0.47272  -0.47071  -0.47002  -0.46716  -0.46486
 Alpha  occ. eigenvalues --   -0.45946  -0.45735  -0.45498  -0.45447  -0.45400
 Alpha  occ. eigenvalues --   -0.45133  -0.45076  -0.44909  -0.44770  -0.44530
 Alpha  occ. eigenvalues --   -0.44181  -0.44119  -0.43880  -0.43742  -0.43450
 Alpha  occ. eigenvalues --   -0.43176  -0.43078  -0.42872  -0.42547  -0.42439
 Alpha  occ. eigenvalues --   -0.42296  -0.41532  -0.41522  -0.41347  -0.41147
 Alpha  occ. eigenvalues --   -0.40868  -0.40688  -0.40469  -0.40250  -0.40201
 Alpha  occ. eigenvalues --   -0.40073  -0.39894  -0.39814  -0.39637  -0.39347
 Alpha  occ. eigenvalues --   -0.39312  -0.39254  -0.38929  -0.38832  -0.38782
 Alpha  occ. eigenvalues --   -0.38585  -0.38525  -0.38252  -0.38139  -0.37616
 Alpha  occ. eigenvalues --   -0.37510  -0.37415  -0.37246  -0.37149  -0.37045
 Alpha  occ. eigenvalues --   -0.36846  -0.36446  -0.36268  -0.36157  -0.35585
 Alpha  occ. eigenvalues --   -0.35337  -0.35246  -0.35097  -0.35059  -0.34898
 Alpha  occ. eigenvalues --   -0.34425  -0.33980  -0.33866  -0.33499  -0.33148
 Alpha  occ. eigenvalues --   -0.33129  -0.32838  -0.32484  -0.32287  -0.32045
 Alpha  occ. eigenvalues --   -0.31992  -0.31669  -0.31406  -0.31068  -0.30762
 Alpha  occ. eigenvalues --   -0.30677  -0.30673  -0.29701  -0.29490  -0.29103
 Alpha  occ. eigenvalues --   -0.28929  -0.28841  -0.28582  -0.26446  -0.25710
 Alpha  occ. eigenvalues --   -0.25444  -0.25359  -0.25105  -0.24749  -0.20555
 Alpha  occ. eigenvalues --   -0.18154
 Alpha virt. eigenvalues --   -0.10506  -0.05457  -0.03926  -0.02167  -0.01317
 Alpha virt. eigenvalues --   -0.00293   0.00147   0.01467   0.01479   0.03006
 Alpha virt. eigenvalues --    0.03375   0.04365   0.04755   0.04920   0.05331

 Mulliken charges:
               1
     1  Mg   0.951504
     2  C   -0.042567
     3  C   -0.071184
     4  C   -0.062018
     5  C   -0.079589
     6  N   -0.390379
     7  C    0.095386
     8  C   -0.100403
     9  C   -0.099321
    10  C    0.076426
    11  C    0.040851
    12  C   -0.028199
    13  C   -0.002234
    14  C    0.252240
    15  O   -0.258350
    16  O   -0.402786
    17  N   -0.491240
    18  C    0.162994
    19  C   -0.201878
    20  C   -0.041598
    21  C    0.168845
    22  C    0.057699
    23  C    0.015464
    24  O   -0.256570
    25  C   -0.004932
    26  N   -0.360305
    27  C    0.071141
    28  C   -0.117841
    29  C   -0.067700
    30  C    0.014981
    31  C    0.044112
    32  C   -0.069034
    33  C   -0.043461
    34  N   -0.498579
    35  C    0.185114
    36  C   -0.189487
    37  C   -0.039493
    38  C    0.158759
    39  C    0.069969
    40  C    0.142870
    41  O   -0.189303
    42  C   -0.157246
    43  C    0.313571
    44  O   -0.275764
    45  O   -0.348201
    46  C    0.131897
    47  C    0.251744
    48  C   -0.141146
    49  C   -0.254445
    50  C    0.035331
    51  C    0.018373
    52  C   -0.042261
    53  C    0.032318
    54  C   -0.204350
    55  C   -0.025501
    56  C   -0.013401
    57  C   -0.056501
    58  C    0.042128
    59  C   -0.248336
    60  C   -0.016548
    61  C    0.024086
    62  C   -0.060307
    63  C   -0.021106
    64  C   -0.321102
    65  C   -0.013453
    66  C    0.015895
    67  H    0.003399
    68  H    0.028263
    69  H   -0.006274
    70  H    0.076431
    71  H    0.032277
    72  H    0.042157
    73  H    0.038996
    74  H    0.059822
    75  H    0.027167
    76  H    0.014076
    77  H    0.061626
    78  H    0.085710
    79  H    0.046997
    80  H    0.084789
    81  H    0.029681
    82  H    0.051252
    83  H    0.044079
    84  H    0.071382
    85  H    0.052419
    86  H    0.051540
    87  H    0.050385
    88  H    0.031648
    89  H    0.031306
    90  H    0.035391
    91  H    0.034096
    92  H    0.051910
    93  H    0.041220
    94  H    0.042924
    95  H    0.047484
    96  H    0.065912
    97  H    0.064813
    98  H    0.085303
    99  H    0.049926
   100  H    0.062345
   101  H    0.036738
   102  H    0.065013
   103  H    0.062178
   104  H    0.028193
   105  H    0.041353
   106  H    0.039379
   107  H    0.061845
   108  H    0.038191
   109  H    0.010819
   110  H    0.032092
   111  H    0.033587
   112  H    0.019420
   113  H    0.023128
   114  H    0.029779
   115  H    0.028109
   116  H    0.042472
   117  H    0.029415
   118  H    0.012966
   119  H    0.023640
   120  H    0.019674
   121  H    0.026292
   122  H    0.023231
   123  H    0.033176
   124  H    0.036499
   125  H    0.031300
   126  H    0.027132
   127  H    0.037031
   128  H    0.027872
   129  H    0.033948
   130  H    0.047246
   131  H    0.030006
   132  H    0.035659
   133  H    0.035155
   134  H    0.037433
   135  H    0.029781
   136  H    0.040835
   137  H    0.040984
   138  H    0.049652
   139  H    0.033383
   140  H    0.009363
 Sum of Mulliken charges =  -0.00000

 Dipole moment (field-independent basis, Debye):
    X=              3.2443    Y=              3.0853    Z=             -1.4941  Tot=              4.7198
 Quadrupole moment (field-independent basis, Debye-Ang):
   XX=           -372.7608   YY=           -417.4897   ZZ=           -404.2748
   XY=             10.6232   XZ=             12.9972   YZ=             -0.1069

 Normal termination of Gaussian 16 at Wed Apr 27 11:22:11 2022.
