 Gaussian 16, Revision A.03,
 Gaussian 16:  ES64L-G16RevA.03 25-Dec-2016

 --------------------------------
 #p wB97XD/Def2SVP td=(nstates=5)
 --------------------------------

 -----------------------------------------------------
 step_1151_chromophore_19 TDDFT with wB97XD functional
 -----------------------------------------------------
 Symbolic Z-matrix:
 Charge =  0 Multiplicity = 1

                         Standard orientation:
 ---------------------------------------------------------------------
 Center     Atomic      Atomic             Coordinates (Angstroms)
 Number     Number       Type             X           Y           Z
 ---------------------------------------------------------------------
      1         12           0       -5.931191    0.422173   -0.240619
      2          6           0       -3.546965   -2.293323   -0.327550
      3          6           0       -3.392325    2.606422    0.226572
      4          6           0       -8.202523    2.807814    0.408908
      5          6           0       -8.483574   -1.996301   -0.259022
      6          7           0       -3.765193    0.171556    0.043279
      7          6           0       -2.998937   -0.996152   -0.110719
      8          6           0       -1.520816   -0.709386    0.024988
      9          6           0       -1.471552    0.833269    0.362186
     10          6           0       -2.957198    1.250833    0.072747
     11          6           0       -1.071922    1.153619    1.827994
     12          6           0       -0.831744   -1.003611   -1.345793
     13          6           0        0.653014   -1.141650   -1.373020
     14          6           0        1.621258   -0.774932   -0.232829
     15          8           0        1.379453   -0.758992    0.966633
     16          8           0        2.935293   -0.848988   -0.732868
     17          7           0       -5.830575    2.483861    0.157554
     18          6           0       -4.675222    3.214963    0.252699
     19          6           0       -5.078700    4.581258    0.451565
     20          6           0       -6.490234    4.698970    0.348001
     21          6           0       -6.923819    3.273328    0.265303
     22          6           0       -4.060615    5.647622    0.559272
     23          6           0       -7.352261    5.870784    0.420654
     24          8           0       -8.564823    5.732762    0.250278
     25          6           0       -6.761028    7.255418    0.609423
     26          7           0       -8.103599    0.357846    0.134066
     27          6           0       -8.742399    1.493388    0.367225
     28          6           0      -10.232218    1.193447    0.383121
     29          6           0      -10.372360   -0.321528    0.179579
     30          6           0       -8.939562   -0.682773   -0.098213
     31          6           0      -11.022583    1.702463    1.477155
     32          6           0      -11.435483   -0.804502   -0.828738
     33          6           0      -11.081373   -1.103135   -2.312758
     34          7           0       -6.051534   -1.668346   -0.297188
     35          6           0       -7.218782   -2.490504   -0.344655
     36          6           0       -6.811365   -3.898944   -0.593264
     37          6           0       -5.393494   -3.860861   -0.551415
     38          6           0       -4.960459   -2.519419   -0.280422
     39          6           0       -7.789898   -5.032038   -0.870582
     40          6           0       -4.160855   -4.635441   -0.718294
     41          8           0       -3.973537   -5.816220   -0.885276
     42          6           0       -2.899543   -3.651450   -0.552997
     43          6           0       -2.239722   -4.029499    0.733679
     44          8           0       -2.387283   -3.441310    1.830037
     45          8           0       -1.311099   -5.061073    0.534134
     46          6           0       -0.536647   -5.349747    1.661509
     47          6           0        3.958361   -0.611955    0.356932
     48          6           0        5.290622   -0.531766   -0.278016
     49          6           0        6.454977   -0.459519    0.315579
     50          6           0        6.612445   -0.313658    1.770123
     51          6           0        7.712449   -0.316599   -0.463075
     52          6           0        7.835413    0.995154   -1.292568
     53          6           0        8.490334    0.876805   -2.637289
     54          6           0        9.845030    1.622102   -2.730934
     55          6           0        9.789189    2.703244   -3.859172
     56          6           0       11.021156    0.647827   -2.891956
     57          6           0       11.710073    0.229760   -1.590280
     58          6           0       13.202893    0.055649   -1.734911
     59          6           0       14.027898    1.004380   -0.802403
     60          6           0       15.146776    1.843025   -1.535780
     61          6           0       14.603612    0.302855    0.529953
     62          6           0       13.642830    0.651107    1.713505
     63          6           0       13.134799   -0.625202    2.437200
     64          6           0       11.670373   -0.306695    2.914249
     65          6           0       11.589863    0.594319    4.209658
     66          6           0       10.927468   -1.617376    3.214230
     67          1           0       -2.607480    3.364797    0.200614
     68          1           0       -8.971286    3.572687    0.538185
     69          1           0       -9.314662   -2.703616   -0.296210
     70          1           0       -1.154490   -1.413902    0.771053
     71          1           0       -0.828248    1.339024   -0.358045
     72          1           0       -1.902531    1.580356    2.390655
     73          1           0       -0.225119    1.836570    1.766971
     74          1           0       -0.829920    0.288889    2.446046
     75          1           0       -1.137697   -0.346444   -2.159881
     76          1           0       -1.247445   -1.925239   -1.752654
     77          1           0        0.877044   -0.435787   -2.173526
     78          1           0        0.803670   -2.171608   -1.698248
     79          1           0       -4.236240    6.170156    1.500440
     80          1           0       -4.055556    6.211850   -0.372963
     81          1           0       -3.094850    5.229846    0.844146
     82          1           0       -7.403710    8.053439    0.236188
     83          1           0       -5.877176    7.339548   -0.023708
     84          1           0       -6.539896    7.381271    1.668574
     85          1           0      -10.606642    1.640758   -0.537626
     86          1           0      -10.611980   -0.911804    1.063761
     87          1           0      -10.374532    2.335520    2.084122
     88          1           0      -11.506682    0.926955    2.069844
     89          1           0      -11.888017    2.270607    1.133501
     90          1           0      -12.209174   -0.038645   -0.773541
     91          1           0      -11.842075   -1.754068   -0.481615
     92          1           0      -11.973883   -0.918201   -2.911515
     93          1           0      -10.700365   -2.121708   -2.383826
     94          1           0      -10.270387   -0.439954   -2.612849
     95          1           0       -8.675876   -4.759629   -1.443503
     96          1           0       -8.077151   -5.398488    0.114467
     97          1           0       -7.244904   -5.774423   -1.453617
     98          1           0       -2.128313   -3.707502   -1.322063
     99          1           0        0.086170   -6.223461    1.471744
    100          1           0       -1.163055   -5.410836    2.552147
    101          1           0        0.190606   -4.546166    1.777863
    102          1           0        3.935596   -1.462353    1.036781
    103          1           0        3.751964    0.310343    0.900517
    104          1           0        5.245845   -0.609740   -1.364569
    105          1           0        7.560319   -0.794852    2.012241
    106          1           0        5.824120   -0.823027    2.323939
    107          1           0        6.619300    0.754075    1.990342
    108          1           0        7.880915   -1.224304   -1.042955
    109          1           0        8.530386   -0.383605    0.253011
    110          1           0        8.295317    1.701152   -0.602256
    111          1           0        6.834133    1.331312   -1.562367
    112          1           0        7.740235    1.283978   -3.315636
    113          1           0        8.615273   -0.167685   -2.924539
    114          1           0       10.011564    2.119665   -1.775265
    115          1           0        9.739740    2.123438   -4.780297
    116          1           0       10.604052    3.424251   -3.927446
    117          1           0        8.854910    3.261246   -3.903683
    118          1           0       11.755302    1.093252   -3.563146
    119          1           0       10.734273   -0.223593   -3.481667
    120          1           0       11.163136   -0.666548   -1.299515
    121          1           0       11.433378    0.856511   -0.741895
    122          1           0       13.464517    0.406810   -2.733240
    123          1           0       13.383574   -1.012045   -1.610394
    124          1           0       13.342046    1.801192   -0.514339
    125          1           0       16.124566    1.471174   -1.231509
    126          1           0       15.209083    2.848319   -1.120037
    127          1           0       14.903343    1.897985   -2.596821
    128          1           0       15.601175    0.674890    0.764274
    129          1           0       14.640266   -0.755094    0.270374
    130          1           0       12.877491    1.416759    1.580224
    131          1           0       14.356937    0.982740    2.467379
    132          1           0       13.788766   -0.902468    3.264383
    133          1           0       12.983654   -1.468286    1.763066
    134          1           0       11.160111    0.214744    2.104348
    135          1           0       12.542847    1.119453    4.274369
    136          1           0       11.463647   -0.059889    5.072311
    137          1           0       10.772340    1.308170    4.109397
    138          1           0       11.681503   -2.359474    3.477073
    139          1           0       10.097288   -1.832339    2.541228
    140          1           0       10.317589   -1.318023    4.067225
 ---------------------------------------------------------------------

 SCF Done:  E(RwB97XD) =  -3007.84498390     A.U. after   19 cycles

 Excitation energies and oscillator strengths:

 Excited State   1:      Singlet-A      1.6458 eV  753.35 nm  f=0.3652  <S**2>=0.000
     245 -> 248       -0.19788
     246 -> 247        0.67890
     245 <- 248       -0.11786
 This state for optimization and/or second-order correction.
 Total Energy, E(TD-HF/TD-DFT) =  -3007.78450292
 Copying the excited state density for this state as the 1-particle RhoCI density.

 Excited State   2:      Singlet-A      2.1734 eV  570.47 nm  f=0.0549  <S**2>=0.000
     245 -> 247        0.61253
     246 -> 248        0.33815

 Excited State   3:      Singlet-A      3.3678 eV  368.15 nm  f=0.6600  <S**2>=0.000
     242 -> 247       -0.20089
     245 -> 247       -0.30852
     246 -> 248        0.59340
     245 <- 247        0.11251

 Excited State   4:      Singlet-A      3.4831 eV  355.96 nm  f=0.0014  <S**2>=0.000
     242 -> 247       -0.13330
     244 -> 247        0.66245

 Excited State   5:      Singlet-A      3.5423 eV  350.01 nm  f=0.0025  <S**2>=0.000
     239 -> 247       -0.15662
     239 -> 249       -0.10511
     240 -> 247        0.50539
     240 -> 248       -0.17127
     240 -> 249        0.28780
     240 -> 250       -0.22998

 The electronic state is 1-A.
 Alpha  occ. eigenvalues --  -46.94943 -19.30474 -19.29705 -19.26099 -19.24910
 Alpha  occ. eigenvalues --  -19.23950 -19.23393 -14.46491 -14.45882 -14.43744
 Alpha  occ. eigenvalues --  -14.43495 -10.44384 -10.43380 -10.39339 -10.38636
 Alpha  occ. eigenvalues --  -10.36051 -10.35297 -10.34797 -10.34173 -10.33943
 Alpha  occ. eigenvalues --  -10.33923 -10.33736 -10.33563 -10.33095 -10.32927
 Alpha  occ. eigenvalues --  -10.32887 -10.32698 -10.32517 -10.31923 -10.31865
 Alpha  occ. eigenvalues --  -10.31740 -10.31180 -10.30968 -10.30869 -10.30862
 Alpha  occ. eigenvalues --  -10.30677 -10.30655 -10.30181 -10.30136 -10.30125
 Alpha  occ. eigenvalues --  -10.30110 -10.29983 -10.29735 -10.29695 -10.29661
 Alpha  occ. eigenvalues --  -10.29655 -10.29642 -10.29619 -10.29600 -10.29257
 Alpha  occ. eigenvalues --  -10.29220 -10.29213 -10.29024 -10.28847 -10.28762
 Alpha  occ. eigenvalues --  -10.28692 -10.28630 -10.28550 -10.28527 -10.28524
 Alpha  occ. eigenvalues --  -10.28480 -10.28421 -10.28405 -10.28362 -10.28283
 Alpha  occ. eigenvalues --  -10.28008  -3.20804  -1.94398  -1.93909  -1.93773
 Alpha  occ. eigenvalues --   -1.17964  -1.17870  -1.12745  -1.11640  -1.09868
 Alpha  occ. eigenvalues --   -1.09228  -1.06459  -1.05212  -1.04421  -1.02606
 Alpha  occ. eigenvalues --   -0.93743  -0.93557  -0.91786  -0.91569  -0.91325
 Alpha  occ. eigenvalues --   -0.90659  -0.90616  -0.89515  -0.89176  -0.88512
 Alpha  occ. eigenvalues --   -0.87637  -0.87074  -0.86370  -0.85698  -0.85425
 Alpha  occ. eigenvalues --   -0.84613  -0.83978  -0.83308  -0.82838  -0.82165
 Alpha  occ. eigenvalues --   -0.82041  -0.80181  -0.79470  -0.79325  -0.77999
 Alpha  occ. eigenvalues --   -0.77451  -0.76825  -0.76726  -0.76688  -0.76059
 Alpha  occ. eigenvalues --   -0.75260  -0.74026  -0.73237  -0.72114  -0.71748
 Alpha  occ. eigenvalues --   -0.70508  -0.70214  -0.69215  -0.68413  -0.67671
 Alpha  occ. eigenvalues --   -0.67232  -0.66564  -0.66350  -0.66258  -0.65831
 Alpha  occ. eigenvalues --   -0.65212  -0.64986  -0.64045  -0.63679  -0.61972
 Alpha  occ. eigenvalues --   -0.61543  -0.61065  -0.60580  -0.59999  -0.59716
 Alpha  occ. eigenvalues --   -0.58855  -0.58808  -0.58132  -0.57973  -0.57454
 Alpha  occ. eigenvalues --   -0.57041  -0.56817  -0.56555  -0.56361  -0.55882
 Alpha  occ. eigenvalues --   -0.55747  -0.55555  -0.55425  -0.55169  -0.55065
 Alpha  occ. eigenvalues --   -0.54688  -0.54357  -0.54323  -0.54072  -0.53823
 Alpha  occ. eigenvalues --   -0.53300  -0.53111  -0.52951  -0.52816  -0.52695
 Alpha  occ. eigenvalues --   -0.52495  -0.52374  -0.52230  -0.52051  -0.51868
 Alpha  occ. eigenvalues --   -0.51596  -0.51410  -0.51155  -0.51073  -0.50688
 Alpha  occ. eigenvalues --   -0.50495  -0.50321  -0.50186  -0.49855  -0.49806
 Alpha  occ. eigenvalues --   -0.49479  -0.48912  -0.48780  -0.48596  -0.48415
 Alpha  occ. eigenvalues --   -0.48069  -0.47889  -0.47688  -0.47441  -0.47375
 Alpha  occ. eigenvalues --   -0.47217  -0.47036  -0.46978  -0.46741  -0.46525
 Alpha  occ. eigenvalues --   -0.46490  -0.46448  -0.46063  -0.45936  -0.45843
 Alpha  occ. eigenvalues --   -0.45724  -0.45627  -0.45419  -0.45211  -0.44756
 Alpha  occ. eigenvalues --   -0.44642  -0.44552  -0.44442  -0.44287  -0.44226
 Alpha  occ. eigenvalues --   -0.44007  -0.43561  -0.43356  -0.43308  -0.42691
 Alpha  occ. eigenvalues --   -0.42369  -0.42357  -0.42116  -0.42072  -0.41883
 Alpha  occ. eigenvalues --   -0.41392  -0.40930  -0.40866  -0.40563  -0.40174
 Alpha  occ. eigenvalues --   -0.40077  -0.39817  -0.39502  -0.39333  -0.38997
 Alpha  occ. eigenvalues --   -0.38988  -0.38683  -0.38439  -0.37918  -0.37740
 Alpha  occ. eigenvalues --   -0.37716  -0.37679  -0.36647  -0.36503  -0.36123
 Alpha  occ. eigenvalues --   -0.35766  -0.35637  -0.35264  -0.33067  -0.32785
 Alpha  occ. eigenvalues --   -0.32567  -0.32034  -0.31869  -0.31202  -0.25565
 Alpha  occ. eigenvalues --   -0.22253
 Alpha virt. eigenvalues --   -0.06287  -0.00094   0.02286   0.04314   0.05555
 Alpha virt. eigenvalues --    0.05645   0.06938   0.08176   0.08235   0.09720
 Alpha virt. eigenvalues --    0.10104   0.10814   0.11490   0.11605   0.12010

 Mulliken charges:
               1
     1  Mg   0.943765
     2  C   -0.041012
     3  C   -0.086489
     4  C   -0.080466
     5  C   -0.090142
     6  N   -0.360884
     7  C    0.069027
     8  C   -0.070750
     9  C   -0.075523
    10  C    0.065231
    11  C    0.047478
    12  C   -0.014908
    13  C    0.010411
    14  C    0.243761
    15  O   -0.255593
    16  O   -0.402869
    17  N   -0.458233
    18  C    0.154258
    19  C   -0.186165
    20  C   -0.035348
    21  C    0.158524
    22  C    0.069109
    23  C    0.011206
    24  O   -0.249539
    25  C    0.005886
    26  N   -0.319958
    27  C    0.054197
    28  C   -0.085382
    29  C   -0.043953
    30  C   -0.006281
    31  C    0.051541
    32  C   -0.057511
    33  C   -0.022984
    34  N   -0.467697
    35  C    0.178284
    36  C   -0.188863
    37  C   -0.036287
    38  C    0.135588
    39  C    0.080931
    40  C    0.124982
    41  O   -0.181837
    42  C   -0.115770
    43  C    0.292253
    44  O   -0.272237
    45  O   -0.348003
    46  C    0.146977
    47  C    0.263610
    48  C   -0.154290
    49  C   -0.235887
    50  C    0.052834
    51  C    0.036458
    52  C   -0.022715
    53  C    0.041671
    54  C   -0.171229
    55  C   -0.010646
    56  C    0.001362
    57  C   -0.034577
    58  C    0.058520
    59  C   -0.219097
    60  C   -0.001142
    61  C    0.036477
    62  C   -0.041426
    63  C   -0.007623
    64  C   -0.288761
    65  C   -0.000017
    66  C    0.031951
    67  H   -0.005235
    68  H    0.023675
    69  H   -0.013932
    70  H    0.062143
    71  H    0.022099
    72  H    0.035316
    73  H    0.034445
    74  H    0.056577
    75  H    0.019801
    76  H   -0.000239
    77  H    0.055790
    78  H    0.081534
    79  H    0.041577
    80  H    0.081261
    81  H    0.026444
    82  H    0.050877
    83  H    0.037709
    84  H    0.068207
    85  H    0.039809
    86  H    0.039781
    87  H    0.043391
    88  H    0.026592
    89  H    0.026589
    90  H    0.026330
    91  H    0.026937
    92  H    0.047053
    93  H    0.033806
    94  H    0.033383
    95  H    0.041873
    96  H    0.060711
    97  H    0.060584
    98  H    0.080832
    99  H    0.046567
   100  H    0.057771
   101  H    0.031437
   102  H    0.059316
   103  H    0.057093
   104  H    0.025460
   105  H    0.033377
   106  H    0.033780
   107  H    0.055992
   108  H    0.030309
   109  H   -0.000834
   110  H    0.023976
   111  H    0.023721
   112  H    0.012290
   113  H    0.013087
   114  H    0.014721
   115  H    0.019772
   116  H    0.037869
   117  H    0.023054
   118  H    0.001829
   119  H    0.015434
   120  H    0.010017
   121  H    0.009170
   122  H    0.010061
   123  H    0.026767
   124  H    0.020680
   125  H    0.024063
   126  H    0.021140
   127  H    0.031203
   128  H    0.020788
   129  H    0.024291
   130  H    0.037585
   131  H    0.020668
   132  H    0.028577
   133  H    0.023341
   134  H    0.022216
   135  H    0.022438
   136  H    0.033826
   137  H    0.036005
   138  H    0.043818
   139  H    0.026594
   140  H    0.000820
 Sum of Mulliken charges =  -0.00000

 Dipole moment (field-independent basis, Debye):
    X=              3.3019    Y=              3.6035    Z=             -1.4698  Tot=              5.1037
 Quadrupole moment (field-independent basis, Debye-Ang):
   XX=           -374.0531   YY=           -414.7508   ZZ=           -403.8650
   XY=              7.3970   XZ=             12.9149   YZ=             -0.0068

 Normal termination of Gaussian 16 at Wed Apr 27 11:53:49 2022.
