 Gaussian 16, Revision A.03,
 Gaussian 16:  ES64L-G16RevA.03 25-Dec-2016

 --------------------
 #p ZINDO=(nstates=5)
 --------------------

 ------------------------------
 step_1151_chromophore_19 ZINDO
 ------------------------------
 Symbolic Z-matrix:
 Charge =  0 Multiplicity = 1

                         Standard orientation:
 ---------------------------------------------------------------------
 Center     Atomic      Atomic             Coordinates (Angstroms)
 Number     Number       Type             X           Y           Z
 ---------------------------------------------------------------------
      1         12           0       -5.931191    0.422173   -0.240619
      2          6           0       -3.546965   -2.293323   -0.327550
      3          6           0       -3.392325    2.606422    0.226572
      4          6           0       -8.202523    2.807814    0.408908
      5          6           0       -8.483574   -1.996301   -0.259022
      6          7           0       -3.765193    0.171556    0.043279
      7          6           0       -2.998937   -0.996152   -0.110719
      8          6           0       -1.520816   -0.709386    0.024988
      9          6           0       -1.471552    0.833269    0.362186
     10          6           0       -2.957198    1.250833    0.072747
     11          6           0       -1.071922    1.153619    1.827994
     12          6           0       -0.831744   -1.003611   -1.345793
     13          6           0        0.653014   -1.141650   -1.373020
     14          6           0        1.621258   -0.774932   -0.232829
     15          8           0        1.379453   -0.758992    0.966633
     16          8           0        2.935293   -0.848988   -0.732868
     17          7           0       -5.830575    2.483861    0.157554
     18          6           0       -4.675222    3.214963    0.252699
     19          6           0       -5.078700    4.581258    0.451565
     20          6           0       -6.490234    4.698970    0.348001
     21          6           0       -6.923819    3.273328    0.265303
     22          6           0       -4.060615    5.647622    0.559272
     23          6           0       -7.352261    5.870784    0.420654
     24          8           0       -8.564823    5.732762    0.250278
     25          6           0       -6.761028    7.255418    0.609423
     26          7           0       -8.103599    0.357846    0.134066
     27          6           0       -8.742399    1.493388    0.367225
     28          6           0      -10.232218    1.193447    0.383121
     29          6           0      -10.372360   -0.321528    0.179579
     30          6           0       -8.939562   -0.682773   -0.098213
     31          6           0      -11.022583    1.702463    1.477155
     32          6           0      -11.435483   -0.804502   -0.828738
     33          6           0      -11.081373   -1.103135   -2.312758
     34          7           0       -6.051534   -1.668346   -0.297188
     35          6           0       -7.218782   -2.490504   -0.344655
     36          6           0       -6.811365   -3.898944   -0.593264
     37          6           0       -5.393494   -3.860861   -0.551415
     38          6           0       -4.960459   -2.519419   -0.280422
     39          6           0       -7.789898   -5.032038   -0.870582
     40          6           0       -4.160855   -4.635441   -0.718294
     41          8           0       -3.973537   -5.816220   -0.885276
     42          6           0       -2.899543   -3.651450   -0.552997
     43          6           0       -2.239722   -4.029499    0.733679
     44          8           0       -2.387283   -3.441310    1.830037
     45          8           0       -1.311099   -5.061073    0.534134
     46          6           0       -0.536647   -5.349747    1.661509
     47          6           0        3.958361   -0.611955    0.356932
     48          6           0        5.290622   -0.531766   -0.278016
     49          6           0        6.454977   -0.459519    0.315579
     50          6           0        6.612445   -0.313658    1.770123
     51          6           0        7.712449   -0.316599   -0.463075
     52          6           0        7.835413    0.995154   -1.292568
     53          6           0        8.490334    0.876805   -2.637289
     54          6           0        9.845030    1.622102   -2.730934
     55          6           0        9.789189    2.703244   -3.859172
     56          6           0       11.021156    0.647827   -2.891956
     57          6           0       11.710073    0.229760   -1.590280
     58          6           0       13.202893    0.055649   -1.734911
     59          6           0       14.027898    1.004380   -0.802403
     60          6           0       15.146776    1.843025   -1.535780
     61          6           0       14.603612    0.302855    0.529953
     62          6           0       13.642830    0.651107    1.713505
     63          6           0       13.134799   -0.625202    2.437200
     64          6           0       11.670373   -0.306695    2.914249
     65          6           0       11.589863    0.594319    4.209658
     66          6           0       10.927468   -1.617376    3.214230
     67          1           0       -2.607480    3.364797    0.200614
     68          1           0       -8.971286    3.572687    0.538185
     69          1           0       -9.314662   -2.703616   -0.296210
     70          1           0       -1.154490   -1.413902    0.771053
     71          1           0       -0.828248    1.339024   -0.358045
     72          1           0       -1.902531    1.580356    2.390655
     73          1           0       -0.225119    1.836570    1.766971
     74          1           0       -0.829920    0.288889    2.446046
     75          1           0       -1.137697   -0.346444   -2.159881
     76          1           0       -1.247445   -1.925239   -1.752654
     77          1           0        0.877044   -0.435787   -2.173526
     78          1           0        0.803670   -2.171608   -1.698248
     79          1           0       -4.236240    6.170156    1.500440
     80          1           0       -4.055556    6.211850   -0.372963
     81          1           0       -3.094850    5.229846    0.844146
     82          1           0       -7.403710    8.053439    0.236188
     83          1           0       -5.877176    7.339548   -0.023708
     84          1           0       -6.539896    7.381271    1.668574
     85          1           0      -10.606642    1.640758   -0.537626
     86          1           0      -10.611980   -0.911804    1.063761
     87          1           0      -10.374532    2.335520    2.084122
     88          1           0      -11.506682    0.926955    2.069844
     89          1           0      -11.888017    2.270607    1.133501
     90          1           0      -12.209174   -0.038645   -0.773541
     91          1           0      -11.842075   -1.754068   -0.481615
     92          1           0      -11.973883   -0.918201   -2.911515
     93          1           0      -10.700365   -2.121708   -2.383826
     94          1           0      -10.270387   -0.439954   -2.612849
     95          1           0       -8.675876   -4.759629   -1.443503
     96          1           0       -8.077151   -5.398488    0.114467
     97          1           0       -7.244904   -5.774423   -1.453617
     98          1           0       -2.128313   -3.707502   -1.322063
     99          1           0        0.086170   -6.223461    1.471744
    100          1           0       -1.163055   -5.410836    2.552147
    101          1           0        0.190606   -4.546166    1.777863
    102          1           0        3.935596   -1.462353    1.036781
    103          1           0        3.751964    0.310343    0.900517
    104          1           0        5.245845   -0.609740   -1.364569
    105          1           0        7.560319   -0.794852    2.012241
    106          1           0        5.824120   -0.823027    2.323939
    107          1           0        6.619300    0.754075    1.990342
    108          1           0        7.880915   -1.224304   -1.042955
    109          1           0        8.530386   -0.383605    0.253011
    110          1           0        8.295317    1.701152   -0.602256
    111          1           0        6.834133    1.331312   -1.562367
    112          1           0        7.740235    1.283978   -3.315636
    113          1           0        8.615273   -0.167685   -2.924539
    114          1           0       10.011564    2.119665   -1.775265
    115          1           0        9.739740    2.123438   -4.780297
    116          1           0       10.604052    3.424251   -3.927446
    117          1           0        8.854910    3.261246   -3.903683
    118          1           0       11.755302    1.093252   -3.563146
    119          1           0       10.734273   -0.223593   -3.481667
    120          1           0       11.163136   -0.666548   -1.299515
    121          1           0       11.433378    0.856511   -0.741895
    122          1           0       13.464517    0.406810   -2.733240
    123          1           0       13.383574   -1.012045   -1.610394
    124          1           0       13.342046    1.801192   -0.514339
    125          1           0       16.124566    1.471174   -1.231509
    126          1           0       15.209083    2.848319   -1.120037
    127          1           0       14.903343    1.897985   -2.596821
    128          1           0       15.601175    0.674890    0.764274
    129          1           0       14.640266   -0.755094    0.270374
    130          1           0       12.877491    1.416759    1.580224
    131          1           0       14.356937    0.982740    2.467379
    132          1           0       13.788766   -0.902468    3.264383
    133          1           0       12.983654   -1.468286    1.763066
    134          1           0       11.160111    0.214744    2.104348
    135          1           0       12.542847    1.119453    4.274369
    136          1           0       11.463647   -0.059889    5.072311
    137          1           0       10.772340    1.308170    4.109397
    138          1           0       11.681503   -2.359474    3.477073
    139          1           0       10.097288   -1.832339    2.541228
    140          1           0       10.317589   -1.318023    4.067225
 ---------------------------------------------------------------------

 SCF Done:  E(RZINDO/S) =  -474.417870142     A.U. after   19 cycles

 Excitation energies and oscillator strengths:

 Excited State   1:      Singlet-A      1.2464 eV  994.71 nm  f=0.5600  <S**2>=0.000
     175 ->178        -0.20273
     176 ->177         0.65978
 This state for optimization and/or second-order correction.
 Total Energy, E(CIS/TDA) =  -474.372064702
 Copying the excited state density for this state as the 1-particle RhoCI density.

 Excited State   2:      Singlet-A      1.8881 eV  656.67 nm  f=0.0064  <S**2>=0.000
     175 ->177         0.50345
     176 ->178         0.47550

 Excited State   3:      Singlet-A      2.8541 eV  434.41 nm  f=0.0281  <S**2>=0.000
     176 ->179         0.65612
     176 ->183         0.10302

 Excited State   4:      Singlet-A      2.8826 eV  430.11 nm  f=0.0367  <S**2>=0.000
     168 ->177         0.33286
     168 ->178        -0.11903
     168 ->179        -0.30998
     168 ->181        -0.31690
     168 ->185        -0.19492
     168 ->187        -0.12118
     176 ->179        -0.14907

 Excited State   5:      Singlet-A      2.9512 eV  420.12 nm  f=1.1559  <S**2>=0.000
     171 ->177        -0.11224
     175 ->177        -0.43373
     176 ->178         0.47695
     176 ->181         0.14903

 The electronic state is 1-A.
 Alpha  occ. eigenvalues --   -1.83280  -1.80303  -1.79743  -1.72722  -1.71444
 Alpha  occ. eigenvalues --   -1.69481  -1.65732  -1.61352  -1.59044  -1.58349
 Alpha  occ. eigenvalues --   -1.57242  -1.52249  -1.50168  -1.48968  -1.47619
 Alpha  occ. eigenvalues --   -1.43379  -1.42787  -1.40831  -1.39902  -1.39190
 Alpha  occ. eigenvalues --   -1.34904  -1.33554  -1.32324  -1.31843  -1.29412
 Alpha  occ. eigenvalues --   -1.28780  -1.25329  -1.23395  -1.21917  -1.18532
 Alpha  occ. eigenvalues --   -1.16173  -1.14942  -1.13878  -1.13757  -1.13013
 Alpha  occ. eigenvalues --   -1.12951  -1.11295  -1.10610  -1.04005  -1.02978
 Alpha  occ. eigenvalues --   -1.02627  -1.00716  -0.97802  -0.97329  -0.96902
 Alpha  occ. eigenvalues --   -0.95631  -0.94735  -0.93909  -0.93182  -0.92763
 Alpha  occ. eigenvalues --   -0.92121  -0.90010  -0.89564  -0.87778  -0.85874
 Alpha  occ. eigenvalues --   -0.85146  -0.84552  -0.82962  -0.81124  -0.80794
 Alpha  occ. eigenvalues --   -0.78749  -0.78167  -0.76784  -0.76166  -0.75597
 Alpha  occ. eigenvalues --   -0.75143  -0.74853  -0.74177  -0.73437  -0.72914
 Alpha  occ. eigenvalues --   -0.72002  -0.71852  -0.71647  -0.71442  -0.71136
 Alpha  occ. eigenvalues --   -0.69494  -0.69433  -0.68581  -0.68333  -0.68107
 Alpha  occ. eigenvalues --   -0.67648  -0.67386  -0.66905  -0.66681  -0.66020
 Alpha  occ. eigenvalues --   -0.65256  -0.64662  -0.64457  -0.64188  -0.63862
 Alpha  occ. eigenvalues --   -0.63369  -0.63263  -0.63100  -0.62885  -0.62431
 Alpha  occ. eigenvalues --   -0.61929  -0.61542  -0.60888  -0.60600  -0.60094
 Alpha  occ. eigenvalues --   -0.60038  -0.59752  -0.58623  -0.58324  -0.58145
 Alpha  occ. eigenvalues --   -0.58025  -0.57233  -0.56944  -0.56691  -0.56414
 Alpha  occ. eigenvalues --   -0.56269  -0.54881  -0.54760  -0.54657  -0.54488
 Alpha  occ. eigenvalues --   -0.54207  -0.53994  -0.53891  -0.52968  -0.52874
 Alpha  occ. eigenvalues --   -0.52328  -0.52145  -0.51734  -0.51386  -0.51147
 Alpha  occ. eigenvalues --   -0.51052  -0.50924  -0.50146  -0.49896  -0.49745
 Alpha  occ. eigenvalues --   -0.49500  -0.49052  -0.48955  -0.48725  -0.48471
 Alpha  occ. eigenvalues --   -0.48131  -0.48010  -0.47749  -0.47610  -0.47325
 Alpha  occ. eigenvalues --   -0.47063  -0.46682  -0.46513  -0.46427  -0.46089
 Alpha  occ. eigenvalues --   -0.45664  -0.45595  -0.45258  -0.45097  -0.44733
 Alpha  occ. eigenvalues --   -0.44623  -0.44223  -0.44147  -0.44002  -0.43129
 Alpha  occ. eigenvalues --   -0.43094  -0.42927  -0.42770  -0.42225  -0.42047
 Alpha  occ. eigenvalues --   -0.41787  -0.41771  -0.40908  -0.39333  -0.38534
 Alpha  occ. eigenvalues --   -0.37969  -0.36421  -0.35124  -0.34728  -0.34590
 Alpha  occ. eigenvalues --   -0.33083  -0.32044  -0.31894  -0.31418  -0.26084
 Alpha  occ. eigenvalues --   -0.21026
 Alpha virt. eigenvalues --   -0.07668  -0.02123  -0.00664   0.00416   0.00984
 Alpha virt. eigenvalues --    0.02241   0.02883   0.03078   0.05353   0.05568
 Alpha virt. eigenvalues --    0.06676   0.07336   0.07907   0.08229   0.08603

 Mulliken charges:
               1
     1  Mg   0.422422
     2  C   -0.045149
     3  C   -0.095252
     4  C   -0.059553
     5  C   -0.043419
     6  N   -0.277564
     7  C    0.116983
     8  C    0.008196
     9  C    0.012906
    10  C    0.145439
    11  C   -0.045416
    12  C   -0.025998
    13  C    0.005760
    14  C    0.458230
    15  O   -0.498561
    16  O   -0.285111
    17  N   -0.325418
    18  C    0.115697
    19  C    0.026638
    20  C   -0.046895
    21  C    0.142509
    22  C   -0.049890
    23  C    0.331956
    24  O   -0.533477
    25  C   -0.030979
    26  N   -0.249904
    27  C    0.143298
    28  C    0.022343
    29  C    0.003400
    30  C    0.090146
    31  C   -0.044140
    32  C   -0.033845
    33  C   -0.055654
    34  N   -0.339207
    35  C    0.074082
    36  C    0.028081
    37  C   -0.058565
    38  C    0.106464
    39  C   -0.035048
    40  C    0.336194
    41  O   -0.515444
    42  C    0.057486
    43  C    0.481944
    44  O   -0.527685
    45  O   -0.263230
    46  C    0.080546
    47  C    0.106807
    48  C   -0.087489
    49  C   -0.002878
    50  C   -0.042237
    51  C   -0.024871
    52  C   -0.028846
    53  C   -0.029577
    54  C   -0.007883
    55  C   -0.061034
    56  C   -0.031622
    57  C   -0.034648
    58  C   -0.029659
    59  C   -0.030420
    60  C   -0.068000
    61  C   -0.037921
    62  C   -0.047371
    63  C   -0.036116
    64  C   -0.026757
    65  C   -0.060714
    66  C   -0.074630
    67  H    0.016629
    68  H    0.044754
    69  H    0.018504
    70  H    0.061036
    71  H    0.027240
    72  H    0.022401
    73  H    0.021611
    74  H    0.035387
    75  H    0.020001
    76  H    0.011038
    77  H    0.031602
    78  H    0.052713
    79  H    0.028131
    80  H    0.045549
    81  H    0.020748
    82  H    0.036423
    83  H    0.028822
    84  H    0.045038
    85  H    0.028731
    86  H    0.031587
    87  H    0.024854
    88  H    0.017238
    89  H    0.014940
    90  H    0.016012
    91  H    0.013901
    92  H    0.023692
    93  H    0.024174
    94  H    0.019855
    95  H    0.028284
    96  H    0.038588
    97  H    0.031470
    98  H    0.066700
    99  H    0.028336
   100  H    0.053013
   101  H    0.029787
   102  H    0.053772
   103  H    0.053680
   104  H    0.025255
   105  H    0.022839
   106  H    0.021941
   107  H    0.035623
   108  H    0.023432
   109  H    0.009093
   110  H    0.024188
   111  H    0.017212
   112  H    0.015368
   113  H    0.021108
   114  H    0.018856
   115  H    0.011924
   116  H    0.022535
   117  H    0.014337
   118  H    0.009572
   119  H    0.016869
   120  H    0.008848
   121  H    0.019701
   122  H    0.022115
   123  H    0.026108
   124  H    0.017031
   125  H    0.022148
   126  H    0.012388
   127  H    0.027587
   128  H    0.024343
   129  H    0.026388
   130  H    0.042418
   131  H    0.008554
   132  H    0.028484
   133  H    0.017549
   134  H    0.019145
   135  H    0.014517
   136  H    0.025902
   137  H    0.021922
   138  H    0.035101
   139  H    0.025500
   140  H    0.008404
 Sum of Mulliken charges =  -0.00000

 Dipole moment (field-independent basis, Debye):
    X=              4.4032    Y=              5.8406    Z=             -2.6508  Tot=              7.7800
 N-N= 4.279340030975D+03 E-N= 0.000000000000D+00  KE=-9.233829558139D+03
 Leave Link  601 at Wed Apr 27 12:05:48 2022, MaxMem=  6710886400 cpu:               0.8 elap:               0.1
 (Enter /sw/apps/gaussian-16.0/g16/l9999.exe)
 1\1\GINC-BP1-COMPUTE196\SP\RZINDO CIS\STO-3G\C55H74Mg1N4O6\OF15641\27-
 Apr-2022\0\\#p ZINDO=(nstates=5)\\step_1151_chromophore_19 ZINDO\\0,1\
 Mg,0,25.68,50.965,26.654\C,0,23.388,51.928,29.278\C,0,27.922,50.004,28
 .996\C,0,27.969,50.636,24.22\C,0,23.456,52.43,24.358\N,0,25.701,51.075
 ,28.85\C,0,24.646,51.419,29.712\C,0,25.029,51.221,31.161\C,0,26.537,50
 .756,31.086\C,0,26.689,50.479,29.548\C,0,27.558,51.821,31.57\C,0,24.12
 7,50.096,31.762\C,0,24.061,49.963,33.246\C,0,24.987,50.656,34.263\O,0,

 Normal termination of Gaussian 16 at Wed Apr 27 12:05:49 2022.
