 Gaussian 16, Revision A.03,
 Gaussian 16:  ES64L-G16RevA.03 25-Dec-2016

 ------------------------------
 #p blyp/Def2SVP td=(nstates=5)
 ------------------------------

 --------------------------------------------------
 step_901_chromophore_27 TDDFT with blyp functional
 --------------------------------------------------
 Symbolic Z-matrix:
 Charge =  0 Multiplicity = 1

                         Standard orientation:
 ---------------------------------------------------------------------
 Center     Atomic      Atomic             Coordinates (Angstroms)
 Number     Number       Type             X           Y           Z
 ---------------------------------------------------------------------
      1         12           0       -4.667459    0.870003    0.007068
      2          6           0       -3.871969   -2.533898    0.238101
      3          6           0       -1.178333    1.392248    0.186900
      4          6           0       -5.145640    4.034138   -0.101638
      5          6           0       -7.954082    0.106254    0.111014
      6          7           0       -2.713567   -0.480960    0.178795
      7          6           0       -2.642833   -1.832603    0.116893
      8          6           0       -1.227057   -2.362144   -0.023409
      9          6           0       -0.373460   -1.104923    0.200054
     10          6           0       -1.492039    0.020343    0.110713
     11          6           0        0.486130   -0.899931    1.577365
     12          6           0       -1.006718   -3.062399   -1.314047
     13          6           0       -0.217234   -4.391683   -1.218899
     14          6           0        1.254138   -4.267347   -1.741671
     15          8           0        1.593203   -4.542996   -2.877730
     16          8           0        2.098389   -3.780290   -0.750025
     17          7           0       -3.335961    2.504842    0.183966
     18          6           0       -1.979245    2.532211    0.147231
     19          6           0       -1.525014    3.906732    0.279514
     20          6           0       -2.605437    4.784464    0.198315
     21          6           0       -3.776074    3.767816   -0.003223
     22          6           0       -0.048604    4.247178    0.383680
     23          6           0       -2.680406    6.274585    0.158709
     24          8           0       -3.716886    6.956673    0.085828
     25          6           0       -1.381929    6.988675    0.532784
     26          7           0       -6.379603    1.950395    0.052449
     27          6           0       -6.300417    3.296958   -0.033117
     28          6           0       -7.705616    3.926562   -0.194281
     29          6           0       -8.611763    2.642498   -0.050696
     30          6           0       -7.619880    1.498950    0.038229
     31          6           0       -7.970888    5.147687    0.801092
     32          6           0       -9.754628    2.645214   -1.141443
     33          6           0      -11.207406    2.281784   -0.766837
     34          7           0       -5.785439   -0.841489    0.048076
     35          6           0       -7.109354   -0.963831    0.119985
     36          6           0       -7.397937   -2.397277    0.262949
     37          6           0       -6.160767   -3.009923    0.331488
     38          6           0       -5.169765   -2.062855    0.167175
     39          6           0       -8.777271   -2.897930    0.103297
     40          6           0       -5.532707   -4.320051    0.405743
     41          8           0       -5.983898   -5.445327    0.410721
     42          6           0       -4.000757   -4.063987    0.363553
     43          6           0       -3.317119   -4.662707    1.504554
     44          8           0       -3.497772   -4.422598    2.726663
     45          8           0       -2.576371   -5.754844    1.006102
     46          6           0       -1.997835   -6.668045    1.957643
     47          6           0        3.518620   -3.846474   -1.002674
     48          6           0        4.103945   -2.660389   -1.553080
     49          6           0        5.411134   -2.335902   -1.609664
     50          6           0        6.496286   -3.362789   -1.160993
     51          6           0        5.775447   -0.883745   -1.917665
     52          6           0        6.219767   -0.416400   -3.281591
     53          6           0        7.744660    0.076589   -3.284317
     54          6           0        7.932939    1.434281   -4.040490
     55          6           0        8.174907    1.299129   -5.556146
     56          6           0        9.126977    2.212518   -3.435446
     57          6           0        8.967873    2.723637   -1.977280
     58          6           0       10.175230    2.368022   -1.042883
     59          6           0        9.767047    1.470658    0.191721
     60          6           0        9.764586   -0.058251   -0.153259
     61          6           0       10.460489    1.899390    1.450338
     62          6           0        9.477066    1.879614    2.658013
     63          6           0        9.667857    0.586892    3.503447
     64          6           0        9.896151    0.965073    5.017152
     65          6           0       11.296262    0.530544    5.534862
     66          6           0        8.876377    0.244450    5.805234
     67          1           0       -0.105984    1.581485    0.266721
     68          1           0       -5.227001    5.121576   -0.040727
     69          1           0       -9.008676   -0.166886    0.188501
     70          1           0       -0.943303   -3.079936    0.745201
     71          1           0        0.384130   -1.032448   -0.581006
     72          1           0        0.549481   -1.894211    2.020539
     73          1           0       -0.062353   -0.255523    2.264601
     74          1           0        1.520714   -0.641687    1.351770
     75          1           0       -0.390320   -2.467154   -1.987084
     76          1           0       -1.942602   -3.539920   -1.603130
     77          1           0       -0.763746   -5.178633   -1.737254
     78          1           0       -0.039446   -4.739393   -0.201216
     79          1           0        0.282654    4.956388   -0.375005
     80          1           0        0.639053    3.429474    0.597397
     81          1           0        0.018525    4.776153    1.334337
     82          1           0       -1.033119    6.683414    1.519642
     83          1           0       -1.670780    8.030576    0.671538
     84          1           0       -0.567679    6.987955   -0.191529
     85          1           0       -7.821472    4.289714   -1.215855
     86          1           0       -9.150320    2.580258    0.895108
     87          1           0       -8.861908    4.961669    1.401020
     88          1           0       -8.007710    6.164897    0.412180
     89          1           0       -7.228997    4.999426    1.586731
     90          1           0       -9.544528    2.185195   -2.106808
     91          1           0       -9.820382    3.708214   -1.375300
     92          1           0      -11.907997    3.115524   -0.801009
     93          1           0      -11.155487    1.834205    0.226101
     94          1           0      -11.552516    1.527381   -1.474230
     95          1           0       -8.743700   -3.983842    0.191181
     96          1           0       -9.159740   -2.603057   -0.873256
     97          1           0       -9.419665   -2.505086    0.891929
     98          1           0       -3.648759   -4.490241   -0.575529
     99          1           0       -2.179632   -7.706693    1.684628
    100          1           0       -2.190275   -6.543163    3.023158
    101          1           0       -0.926837   -6.470616    1.906323
    102          1           0        3.760831   -4.717502   -1.612547
    103          1           0        4.032794   -4.078221   -0.070492
    104          1           0        3.412244   -1.843681   -1.760343
    105          1           0        6.733563   -3.257484   -0.102823
    106          1           0        7.360778   -3.229604   -1.811744
    107          1           0        5.982000   -4.321527   -1.242353
    108          1           0        6.597278   -0.696519   -1.226579
    109          1           0        5.052296   -0.195532   -1.478955
    110          1           0        5.557437    0.370035   -3.642168
    111          1           0        6.314962   -1.334980   -3.861411
    112          1           0        8.413093   -0.626498   -3.782245
    113          1           0        8.108111    0.266273   -2.274730
    114          1           0        7.091694    2.104843   -3.864786
    115          1           0        7.322301    1.824830   -5.987163
    116          1           0        8.126776    0.229428   -5.757308
    117          1           0        9.080675    1.703988   -6.008113
    118          1           0        9.289999    3.123855   -4.010809
    119          1           0       10.061624    1.662103   -3.548767
    120          1           0        8.018394    2.336863   -1.606475
    121          1           0        9.003846    3.809246   -2.075392
    122          1           0       10.587745    3.349541   -0.809343
    123          1           0       10.880462    1.776063   -1.627179
    124          1           0        8.720898    1.775095    0.208464
    125          1           0        9.886575   -0.305240   -1.208655
    126          1           0        8.807469   -0.455837    0.184900
    127          1           0       10.536168   -0.592676    0.399956
    128          1           0       10.852462    2.915881    1.420104
    129          1           0       11.292096    1.219326    1.634842
    130          1           0        8.446964    1.786642    2.315204
    131          1           0        9.516536    2.834701    3.182992
    132          1           0       10.511268   -0.012847    3.161375
    133          1           0        8.781816   -0.020969    3.320302
    134          1           0        9.746334    2.027930    5.206308
    135          1           0       11.493873    1.159337    6.402817
    136          1           0       12.007148    0.947933    4.821825
    137          1           0       11.559082   -0.494035    5.795898
    138          1           0        9.216469   -0.026562    6.804936
    139          1           0        8.572085   -0.712929    5.379980
    140          1           0        8.000171    0.891552    5.832518
 ---------------------------------------------------------------------

 SCF Done:  E(RB-LYP) =  -3007.33107873     A.U. after   20 cycles

 Excitation energies and oscillator strengths:

 Excited State   1:      Singlet-A      1.8629 eV  665.53 nm  f=0.2913  <S**2>=0.000
     245 -> 248        0.20765
     246 -> 247        0.67631
     246 <- 247       -0.13036
 This state for optimization and/or second-order correction.
 Total Energy, E(TD-HF/TD-DFT) =  -3007.26261723
 Copying the excited state density for this state as the 1-particle RhoCI density.

 Excited State   2:      Singlet-A      2.0634 eV  600.89 nm  f=0.0431  <S**2>=0.000
     245 -> 247        0.62856
     246 -> 248       -0.27922
     246 -> 249        0.12480

 Excited State   3:      Singlet-A      2.2656 eV  547.26 nm  f=0.0003  <S**2>=0.000
     244 -> 247        0.70604

 Excited State   4:      Singlet-A      2.2746 eV  545.08 nm  f=0.0002  <S**2>=0.000
     243 -> 247        0.70592

 Excited State   5:      Singlet-A      2.4743 eV  501.08 nm  f=0.0001  <S**2>=0.000
     242 -> 247        0.70703

 The electronic state is 1-A.
 Alpha  occ. eigenvalues --  -46.27401 -18.82847 -18.82423 -18.77403 -18.77090
 Alpha  occ. eigenvalues --  -18.76278 -18.76193 -14.03370 -14.03066 -14.01525
 Alpha  occ. eigenvalues --  -14.00560 -10.04535 -10.04325 -10.00478  -9.99987
 Alpha  occ. eigenvalues --   -9.98113  -9.97334  -9.96866  -9.96549  -9.96269
 Alpha  occ. eigenvalues --   -9.96236  -9.96155  -9.95457  -9.94796  -9.94556
 Alpha  occ. eigenvalues --   -9.94436  -9.94410  -9.94320  -9.94248  -9.93960
 Alpha  occ. eigenvalues --   -9.93857  -9.93811  -9.93651  -9.93585  -9.93439
 Alpha  occ. eigenvalues --   -9.93239  -9.93213  -9.93154  -9.92996  -9.92992
 Alpha  occ. eigenvalues --   -9.92803  -9.92597  -9.92467  -9.92342  -9.92185
 Alpha  occ. eigenvalues --   -9.92042  -9.92036  -9.91863  -9.91857  -9.91855
 Alpha  occ. eigenvalues --   -9.91813  -9.91731  -9.91632  -9.91554  -9.91459
 Alpha  occ. eigenvalues --   -9.91316  -9.91062  -9.91002  -9.90958  -9.90934
 Alpha  occ. eigenvalues --   -9.90859  -9.90852  -9.90811  -9.90770  -9.90517
 Alpha  occ. eigenvalues --   -9.90090  -2.92105  -1.72534  -1.72006  -1.71796
 Alpha  occ. eigenvalues --   -0.98128  -0.96569  -0.92329  -0.90921  -0.90749
 Alpha  occ. eigenvalues --   -0.88764  -0.87721  -0.87221  -0.86538  -0.85903
 Alpha  occ. eigenvalues --   -0.76409  -0.74400  -0.73763  -0.73121  -0.72298
 Alpha  occ. eigenvalues --   -0.72268  -0.71769  -0.71114  -0.71045  -0.70728
 Alpha  occ. eigenvalues --   -0.70072  -0.69351  -0.68508  -0.67988  -0.67119
 Alpha  occ. eigenvalues --   -0.66775  -0.66072  -0.65484  -0.65135  -0.64561
 Alpha  occ. eigenvalues --   -0.64229  -0.62795  -0.62539  -0.62155  -0.61042
 Alpha  occ. eigenvalues --   -0.60831  -0.60307  -0.60226  -0.59975  -0.58795
 Alpha  occ. eigenvalues --   -0.58369  -0.57954  -0.57000  -0.56084  -0.54792
 Alpha  occ. eigenvalues --   -0.54262  -0.53736  -0.53423  -0.52777  -0.52218
 Alpha  occ. eigenvalues --   -0.51728  -0.51273  -0.51013  -0.50920  -0.50220
 Alpha  occ. eigenvalues --   -0.49697  -0.49621  -0.48870  -0.48720  -0.47211
 Alpha  occ. eigenvalues --   -0.46939  -0.46724  -0.46026  -0.45395  -0.45186
 Alpha  occ. eigenvalues --   -0.44767  -0.44438  -0.43542  -0.42947  -0.42493
 Alpha  occ. eigenvalues --   -0.42273  -0.42002  -0.41622  -0.41450  -0.41381
 Alpha  occ. eigenvalues --   -0.41100  -0.40773  -0.40569  -0.40275  -0.40078
 Alpha  occ. eigenvalues --   -0.39814  -0.39503  -0.39409  -0.39300  -0.39250
 Alpha  occ. eigenvalues --   -0.39079  -0.38966  -0.38931  -0.38795  -0.38646
 Alpha  occ. eigenvalues --   -0.38107  -0.37994  -0.37663  -0.37564  -0.37488
 Alpha  occ. eigenvalues --   -0.37160  -0.37009  -0.36901  -0.36838  -0.36716
 Alpha  occ. eigenvalues --   -0.36527  -0.36249  -0.36015  -0.35969  -0.35825
 Alpha  occ. eigenvalues --   -0.35638  -0.35262  -0.35106  -0.35033  -0.34649
 Alpha  occ. eigenvalues --   -0.34512  -0.34442  -0.34424  -0.34358  -0.34138
 Alpha  occ. eigenvalues --   -0.33982  -0.33972  -0.33851  -0.33629  -0.33395
 Alpha  occ. eigenvalues --   -0.33163  -0.33116  -0.33060  -0.32682  -0.32435
 Alpha  occ. eigenvalues --   -0.32188  -0.31845  -0.31795  -0.31672  -0.31471
 Alpha  occ. eigenvalues --   -0.31195  -0.30984  -0.30916  -0.30788  -0.30708
 Alpha  occ. eigenvalues --   -0.30598  -0.30583  -0.30465  -0.30328  -0.30070
 Alpha  occ. eigenvalues --   -0.29841  -0.29804  -0.29418  -0.29315  -0.29067
 Alpha  occ. eigenvalues --   -0.28939  -0.28676  -0.28645  -0.28156  -0.28138
 Alpha  occ. eigenvalues --   -0.27930  -0.27872  -0.27337  -0.26768  -0.26644
 Alpha  occ. eigenvalues --   -0.26300  -0.26287  -0.26011  -0.25608  -0.25595
 Alpha  occ. eigenvalues --   -0.24946  -0.24648  -0.24521  -0.24341  -0.23545
 Alpha  occ. eigenvalues --   -0.22539  -0.22306  -0.22045  -0.21877  -0.21404
 Alpha  occ. eigenvalues --   -0.20748  -0.20174  -0.19337  -0.19299  -0.17373
 Alpha  occ. eigenvalues --   -0.15715
 Alpha virt. eigenvalues --   -0.11082  -0.07668  -0.06506  -0.04989  -0.04023
 Alpha virt. eigenvalues --   -0.03349  -0.02399  -0.02061  -0.01149   0.00114
 Alpha virt. eigenvalues --    0.00690   0.01015   0.01746   0.02236   0.02668

 Mulliken charges:
               1
     1  Mg   0.695934
     2  C   -0.019716
     3  C   -0.077853
     4  C   -0.026884
     5  C   -0.098669
     6  N   -0.134528
     7  C   -0.099811
     8  C    0.075501
     9  C   -0.036469
    10  C   -0.017729
    11  C    0.119832
    12  C    0.152845
    13  C    0.110370
    14  C    0.048943
    15  O   -0.173730
    16  O   -0.278871
    17  N   -0.267637
    18  C    0.169994
    19  C   -0.151973
    20  C    0.048720
    21  C    0.039274
    22  C    0.206176
    23  C   -0.051215
    24  O   -0.170266
    25  C    0.093642
    26  N   -0.232160
    27  C    0.045403
    28  C   -0.007933
    29  C    0.069521
    30  C    0.040440
    31  C    0.136417
    32  C    0.060565
    33  C    0.061539
    34  N   -0.268331
    35  C    0.106557
    36  C   -0.189953
    37  C    0.089774
    38  C    0.121427
    39  C    0.176287
    40  C   -0.054298
    41  O   -0.107751
    42  C    0.060647
    43  C    0.146721
    44  O   -0.202103
    45  O   -0.288036
    46  C    0.213745
    47  C    0.331405
    48  C   -0.088897
    49  C   -0.189472
    50  C    0.135630
    51  C    0.112550
    52  C    0.162048
    53  C    0.050656
    54  C   -0.091484
    55  C    0.130969
    56  C    0.047788
    57  C    0.066234
    58  C    0.084821
    59  C   -0.088674
    60  C    0.125547
    61  C    0.140730
    62  C    0.048548
    63  C    0.100191
    64  C   -0.072285
    65  C    0.099868
    66  C    0.115323
    67  H   -0.075237
    68  H   -0.046838
    69  H   -0.076842
    70  H   -0.022652
    71  H   -0.030918
    72  H   -0.014559
    73  H    0.012146
    74  H    0.000042
    75  H    0.003165
    76  H   -0.014152
    77  H   -0.002601
    78  H   -0.011206
    79  H    0.008407
    80  H   -0.014320
    81  H   -0.018896
    82  H    0.011783
    83  H   -0.016454
    84  H    0.007733
    85  H   -0.005028
    86  H   -0.026212
    87  H   -0.027540
    88  H    0.017356
    89  H   -0.011538
    90  H   -0.019991
    91  H   -0.024771
    92  H    0.000832
    93  H   -0.008101
    94  H   -0.009218
    95  H    0.002490
    96  H    0.007275
    97  H   -0.000195
    98  H    0.003669
    99  H    0.021512
   100  H    0.018649
   101  H   -0.007836
   102  H    0.004165
   103  H   -0.008357
   104  H   -0.041218
   105  H    0.009615
   106  H    0.008051
   107  H   -0.014279
   108  H   -0.052120
   109  H   -0.040712
   110  H   -0.016367
   111  H   -0.025787
   112  H   -0.026284
   113  H   -0.030403
   114  H   -0.040627
   115  H   -0.016730
   116  H   -0.024286
   117  H   -0.008351
   118  H   -0.044200
   119  H   -0.039013
   120  H   -0.018858
   121  H   -0.035994
   122  H   -0.035732
   123  H   -0.033940
   124  H   -0.040729
   125  H    0.001297
   126  H   -0.015019
   127  H   -0.024208
   128  H   -0.044092
   129  H   -0.029961
   130  H   -0.037116
   131  H   -0.028381
   132  H   -0.030591
   133  H   -0.034013
   134  H   -0.030238
   135  H   -0.027753
   136  H   -0.030533
   137  H   -0.001641
   138  H   -0.031088
   139  H   -0.024279
   140  H   -0.026042
 Sum of Mulliken charges =  -0.00000

 Dipole moment (field-independent basis, Debye):
    X=              3.1654    Y=              2.1326    Z=              0.0899  Tot=              3.8178
 Quadrupole moment (field-independent basis, Debye-Ang):
   XX=           -376.3599   YY=           -433.1644   ZZ=           -421.1757
   XY=            -18.4961   XZ=             15.4542   YZ=             -3.3431

 Normal termination of Gaussian 16 at Thu May  5 14:35:32 2022.
