 Gaussian 16, Revision A.03,
 Gaussian 16:  ES64L-G16RevA.03 25-Dec-2016

 -----------------------------------
 #p cam-b3lyp/Def2SVP td=(nstates=5)
 -----------------------------------

 -------------------------------------------------------
 step_901_chromophore_27 TDDFT with cam-b3lyp functional
 -------------------------------------------------------
 Symbolic Z-matrix:
 Charge =  0 Multiplicity = 1

                         Standard orientation:
 ---------------------------------------------------------------------
 Center     Atomic      Atomic             Coordinates (Angstroms)
 Number     Number       Type             X           Y           Z
 ---------------------------------------------------------------------
      1         12           0       -4.667459    0.870003    0.007068
      2          6           0       -3.871969   -2.533898    0.238101
      3          6           0       -1.178333    1.392248    0.186900
      4          6           0       -5.145640    4.034138   -0.101638
      5          6           0       -7.954082    0.106254    0.111014
      6          7           0       -2.713567   -0.480960    0.178795
      7          6           0       -2.642833   -1.832603    0.116893
      8          6           0       -1.227057   -2.362144   -0.023409
      9          6           0       -0.373460   -1.104923    0.200054
     10          6           0       -1.492039    0.020343    0.110713
     11          6           0        0.486130   -0.899931    1.577365
     12          6           0       -1.006718   -3.062399   -1.314047
     13          6           0       -0.217234   -4.391683   -1.218899
     14          6           0        1.254138   -4.267347   -1.741671
     15          8           0        1.593203   -4.542996   -2.877730
     16          8           0        2.098389   -3.780290   -0.750025
     17          7           0       -3.335961    2.504842    0.183966
     18          6           0       -1.979245    2.532211    0.147231
     19          6           0       -1.525014    3.906732    0.279514
     20          6           0       -2.605437    4.784464    0.198315
     21          6           0       -3.776074    3.767816   -0.003223
     22          6           0       -0.048604    4.247178    0.383680
     23          6           0       -2.680406    6.274585    0.158709
     24          8           0       -3.716886    6.956673    0.085828
     25          6           0       -1.381929    6.988675    0.532784
     26          7           0       -6.379603    1.950395    0.052449
     27          6           0       -6.300417    3.296958   -0.033117
     28          6           0       -7.705616    3.926562   -0.194281
     29          6           0       -8.611763    2.642498   -0.050696
     30          6           0       -7.619880    1.498950    0.038229
     31          6           0       -7.970888    5.147687    0.801092
     32          6           0       -9.754628    2.645214   -1.141443
     33          6           0      -11.207406    2.281784   -0.766837
     34          7           0       -5.785439   -0.841489    0.048076
     35          6           0       -7.109354   -0.963831    0.119985
     36          6           0       -7.397937   -2.397277    0.262949
     37          6           0       -6.160767   -3.009923    0.331488
     38          6           0       -5.169765   -2.062855    0.167175
     39          6           0       -8.777271   -2.897930    0.103297
     40          6           0       -5.532707   -4.320051    0.405743
     41          8           0       -5.983898   -5.445327    0.410721
     42          6           0       -4.000757   -4.063987    0.363553
     43          6           0       -3.317119   -4.662707    1.504554
     44          8           0       -3.497772   -4.422598    2.726663
     45          8           0       -2.576371   -5.754844    1.006102
     46          6           0       -1.997835   -6.668045    1.957643
     47          6           0        3.518620   -3.846474   -1.002674
     48          6           0        4.103945   -2.660389   -1.553080
     49          6           0        5.411134   -2.335902   -1.609664
     50          6           0        6.496286   -3.362789   -1.160993
     51          6           0        5.775447   -0.883745   -1.917665
     52          6           0        6.219767   -0.416400   -3.281591
     53          6           0        7.744660    0.076589   -3.284317
     54          6           0        7.932939    1.434281   -4.040490
     55          6           0        8.174907    1.299129   -5.556146
     56          6           0        9.126977    2.212518   -3.435446
     57          6           0        8.967873    2.723637   -1.977280
     58          6           0       10.175230    2.368022   -1.042883
     59          6           0        9.767047    1.470658    0.191721
     60          6           0        9.764586   -0.058251   -0.153259
     61          6           0       10.460489    1.899390    1.450338
     62          6           0        9.477066    1.879614    2.658013
     63          6           0        9.667857    0.586892    3.503447
     64          6           0        9.896151    0.965073    5.017152
     65          6           0       11.296262    0.530544    5.534862
     66          6           0        8.876377    0.244450    5.805234
     67          1           0       -0.105984    1.581485    0.266721
     68          1           0       -5.227001    5.121576   -0.040727
     69          1           0       -9.008676   -0.166886    0.188501
     70          1           0       -0.943303   -3.079936    0.745201
     71          1           0        0.384130   -1.032448   -0.581006
     72          1           0        0.549481   -1.894211    2.020539
     73          1           0       -0.062353   -0.255523    2.264601
     74          1           0        1.520714   -0.641687    1.351770
     75          1           0       -0.390320   -2.467154   -1.987084
     76          1           0       -1.942602   -3.539920   -1.603130
     77          1           0       -0.763746   -5.178633   -1.737254
     78          1           0       -0.039446   -4.739393   -0.201216
     79          1           0        0.282654    4.956388   -0.375005
     80          1           0        0.639053    3.429474    0.597397
     81          1           0        0.018525    4.776153    1.334337
     82          1           0       -1.033119    6.683414    1.519642
     83          1           0       -1.670780    8.030576    0.671538
     84          1           0       -0.567679    6.987955   -0.191529
     85          1           0       -7.821472    4.289714   -1.215855
     86          1           0       -9.150320    2.580258    0.895108
     87          1           0       -8.861908    4.961669    1.401020
     88          1           0       -8.007710    6.164897    0.412180
     89          1           0       -7.228997    4.999426    1.586731
     90          1           0       -9.544528    2.185195   -2.106808
     91          1           0       -9.820382    3.708214   -1.375300
     92          1           0      -11.907997    3.115524   -0.801009
     93          1           0      -11.155487    1.834205    0.226101
     94          1           0      -11.552516    1.527381   -1.474230
     95          1           0       -8.743700   -3.983842    0.191181
     96          1           0       -9.159740   -2.603057   -0.873256
     97          1           0       -9.419665   -2.505086    0.891929
     98          1           0       -3.648759   -4.490241   -0.575529
     99          1           0       -2.179632   -7.706693    1.684628
    100          1           0       -2.190275   -6.543163    3.023158
    101          1           0       -0.926837   -6.470616    1.906323
    102          1           0        3.760831   -4.717502   -1.612547
    103          1           0        4.032794   -4.078221   -0.070492
    104          1           0        3.412244   -1.843681   -1.760343
    105          1           0        6.733563   -3.257484   -0.102823
    106          1           0        7.360778   -3.229604   -1.811744
    107          1           0        5.982000   -4.321527   -1.242353
    108          1           0        6.597278   -0.696519   -1.226579
    109          1           0        5.052296   -0.195532   -1.478955
    110          1           0        5.557437    0.370035   -3.642168
    111          1           0        6.314962   -1.334980   -3.861411
    112          1           0        8.413093   -0.626498   -3.782245
    113          1           0        8.108111    0.266273   -2.274730
    114          1           0        7.091694    2.104843   -3.864786
    115          1           0        7.322301    1.824830   -5.987163
    116          1           0        8.126776    0.229428   -5.757308
    117          1           0        9.080675    1.703988   -6.008113
    118          1           0        9.289999    3.123855   -4.010809
    119          1           0       10.061624    1.662103   -3.548767
    120          1           0        8.018394    2.336863   -1.606475
    121          1           0        9.003846    3.809246   -2.075392
    122          1           0       10.587745    3.349541   -0.809343
    123          1           0       10.880462    1.776063   -1.627179
    124          1           0        8.720898    1.775095    0.208464
    125          1           0        9.886575   -0.305240   -1.208655
    126          1           0        8.807469   -0.455837    0.184900
    127          1           0       10.536168   -0.592676    0.399956
    128          1           0       10.852462    2.915881    1.420104
    129          1           0       11.292096    1.219326    1.634842
    130          1           0        8.446964    1.786642    2.315204
    131          1           0        9.516536    2.834701    3.182992
    132          1           0       10.511268   -0.012847    3.161375
    133          1           0        8.781816   -0.020969    3.320302
    134          1           0        9.746334    2.027930    5.206308
    135          1           0       11.493873    1.159337    6.402817
    136          1           0       12.007148    0.947933    4.821825
    137          1           0       11.559082   -0.494035    5.795898
    138          1           0        9.216469   -0.026562    6.804936
    139          1           0        8.572085   -0.712929    5.379980
    140          1           0        8.000171    0.891552    5.832518
 ---------------------------------------------------------------------

 SCF Done:  E(RCAM-B3LYP) =  -3007.12764141     A.U. after   17 cycles

 Excitation energies and oscillator strengths:

 Excited State   1:      Singlet-A      1.8158 eV  682.79 nm  f=0.3772  <S**2>=0.000
     245 -> 248        0.20327
     246 -> 247        0.67546
     245 <- 248        0.10386
 This state for optimization and/or second-order correction.
 Total Energy, E(TD-HF/TD-DFT) =  -3007.06091033
 Copying the excited state density for this state as the 1-particle RhoCI density.

 Excited State   2:      Singlet-A      2.3288 eV  532.39 nm  f=0.0305  <S**2>=0.000
     245 -> 247        0.58479
     246 -> 248       -0.38166

 Excited State   3:      Singlet-A      3.3762 eV  367.23 nm  f=0.6701  <S**2>=0.000
     243 -> 247        0.10361
     245 -> 247        0.36335
     246 -> 248        0.58367

 Excited State   4:      Singlet-A      3.7136 eV  333.87 nm  f=0.0114  <S**2>=0.000
     241 -> 247        0.43233
     241 -> 249       -0.28646
     241 -> 250       -0.22057
     243 -> 247       -0.38234

 Excited State   5:      Singlet-A      3.7508 eV  330.56 nm  f=0.0354  <S**2>=0.000
     239 -> 247        0.29097
     239 -> 248       -0.15460
     239 -> 249        0.23291
     239 -> 250       -0.16112
     240 -> 247        0.25214
     240 -> 248       -0.14737
     240 -> 249        0.21245
     240 -> 250       -0.14699
     241 -> 247        0.14308
     242 -> 247       -0.10149
     243 -> 247        0.20021
     246 -> 249        0.20588

 The electronic state is 1-A.
 Alpha  occ. eigenvalues --  -46.88908 -19.25786 -19.25519 -19.20454 -19.20432
 Alpha  occ. eigenvalues --  -19.19535 -19.19491 -14.42367 -14.41706 -14.40041
 Alpha  occ. eigenvalues --  -14.38868 -10.40171 -10.39876 -10.35831 -10.35335
 Alpha  occ. eigenvalues --  -10.32100 -10.31358 -10.31299 -10.30913 -10.30696
 Alpha  occ. eigenvalues --  -10.30640 -10.30570 -10.29639 -10.29179 -10.28962
 Alpha  occ. eigenvalues --  -10.28615 -10.28559 -10.28280 -10.28247 -10.28219
 Alpha  occ. eigenvalues --  -10.28127 -10.27932 -10.27830 -10.27639 -10.27535
 Alpha  occ. eigenvalues --  -10.27526 -10.27236 -10.27173 -10.26881 -10.26869
 Alpha  occ. eigenvalues --  -10.26727 -10.26499 -10.26273 -10.26036 -10.25984
 Alpha  occ. eigenvalues --  -10.25813 -10.25740 -10.25625 -10.25625 -10.25556
 Alpha  occ. eigenvalues --  -10.25552 -10.25503 -10.25436 -10.25418 -10.25237
 Alpha  occ. eigenvalues --  -10.25165 -10.25154 -10.24710 -10.24686 -10.24618
 Alpha  occ. eigenvalues --  -10.24551 -10.24511 -10.24460 -10.24375 -10.24237
 Alpha  occ. eigenvalues --  -10.23650  -3.17523  -1.92425  -1.91997  -1.91808
 Alpha  occ. eigenvalues --   -1.16617  -1.15191  -1.10817  -1.09355  -1.08691
 Alpha  occ. eigenvalues --   -1.06887  -1.05448  -1.04929  -1.04131  -1.03456
 Alpha  occ. eigenvalues --   -0.93636  -0.91286  -0.90648  -0.89961  -0.89062
 Alpha  occ. eigenvalues --   -0.89018  -0.88326  -0.87747  -0.87725  -0.87306
 Alpha  occ. eigenvalues --   -0.86537  -0.85683  -0.84820  -0.84239  -0.83266
 Alpha  occ. eigenvalues --   -0.82877  -0.82094  -0.81443  -0.80980  -0.80554
 Alpha  occ. eigenvalues --   -0.80040  -0.78533  -0.78226  -0.77651  -0.76492
 Alpha  occ. eigenvalues --   -0.76242  -0.75684  -0.75454  -0.75336  -0.74005
 Alpha  occ. eigenvalues --   -0.73434  -0.72915  -0.71925  -0.70943  -0.69393
 Alpha  occ. eigenvalues --   -0.68927  -0.68269  -0.67960  -0.67198  -0.66293
 Alpha  occ. eigenvalues --   -0.65918  -0.65360  -0.65181  -0.64977  -0.64014
 Alpha  occ. eigenvalues --   -0.63741  -0.63644  -0.62653  -0.62648  -0.60819
 Alpha  occ. eigenvalues --   -0.60572  -0.60352  -0.59525  -0.58916  -0.58720
 Alpha  occ. eigenvalues --   -0.58269  -0.57826  -0.56770  -0.56192  -0.55613
 Alpha  occ. eigenvalues --   -0.55488  -0.54951  -0.54680  -0.54426  -0.54241
 Alpha  occ. eigenvalues --   -0.53985  -0.53514  -0.53400  -0.53217  -0.52953
 Alpha  occ. eigenvalues --   -0.52681  -0.52516  -0.52378  -0.51784  -0.51633
 Alpha  occ. eigenvalues --   -0.51531  -0.51511  -0.51350  -0.51271  -0.51194
 Alpha  occ. eigenvalues --   -0.50382  -0.50310  -0.50112  -0.49888  -0.49785
 Alpha  occ. eigenvalues --   -0.49667  -0.49650  -0.49217  -0.49053  -0.48967
 Alpha  occ. eigenvalues --   -0.48937  -0.48800  -0.48505  -0.48238  -0.47912
 Alpha  occ. eigenvalues --   -0.47778  -0.47526  -0.47099  -0.47065  -0.46566
 Alpha  occ. eigenvalues --   -0.46367  -0.46311  -0.46183  -0.46103  -0.46001
 Alpha  occ. eigenvalues --   -0.45822  -0.45689  -0.45533  -0.45444  -0.45154
 Alpha  occ. eigenvalues --   -0.45022  -0.44814  -0.44619  -0.44438  -0.44310
 Alpha  occ. eigenvalues --   -0.43872  -0.43360  -0.43325  -0.43293  -0.42887
 Alpha  occ. eigenvalues --   -0.42739  -0.42566  -0.42529  -0.42363  -0.42273
 Alpha  occ. eigenvalues --   -0.42193  -0.42133  -0.41982  -0.41895  -0.41721
 Alpha  occ. eigenvalues --   -0.41001  -0.40961  -0.40631  -0.40443  -0.39998
 Alpha  occ. eigenvalues --   -0.39942  -0.39693  -0.39674  -0.39303  -0.39088
 Alpha  occ. eigenvalues --   -0.38893  -0.38788  -0.38214  -0.37823  -0.37547
 Alpha  occ. eigenvalues --   -0.37201  -0.37174  -0.37016  -0.36530  -0.36371
 Alpha  occ. eigenvalues --   -0.36227  -0.35586  -0.35067  -0.34819  -0.34441
 Alpha  occ. eigenvalues --   -0.33921  -0.33765  -0.32625  -0.31742  -0.31658
 Alpha  occ. eigenvalues --   -0.31356  -0.30743  -0.29985  -0.29794  -0.24161
 Alpha  occ. eigenvalues --   -0.20861
 Alpha virt. eigenvalues --   -0.07789  -0.02529  -0.00179   0.01888   0.03076
 Alpha virt. eigenvalues --    0.03362   0.04323   0.04888   0.05299   0.06483
 Alpha virt. eigenvalues --    0.07793   0.07907   0.07997   0.08611   0.09085

 Mulliken charges:
               1
     1  Mg   0.831049
     2  C   -0.038619
     3  C   -0.085714
     4  C   -0.053380
     5  C   -0.110391
     6  N   -0.195732
     7  C   -0.064862
     8  C    0.024674
     9  C   -0.076672
    10  C   -0.007297
    11  C    0.063243
    12  C    0.094741
    13  C    0.049472
    14  C    0.129047
    15  O   -0.213108
    16  O   -0.343587
    17  N   -0.349972
    18  C    0.169127
    19  C   -0.151745
    20  C   -0.021853
    21  C    0.069421
    22  C    0.142095
    23  C    0.030901
    24  O   -0.210459
    25  C    0.007823
    26  N   -0.317514
    27  C    0.067315
    28  C   -0.061351
    29  C    0.014055
    30  C    0.069769
    31  C    0.073617
    32  C    0.002430
    33  C    0.003527
    34  N   -0.362080
    35  C    0.114520
    36  C   -0.177569
    37  C    0.006378
    38  C    0.151834
    39  C    0.117917
    40  C    0.050032
    41  O   -0.145957
    42  C   -0.022530
    43  C    0.237760
    44  O   -0.238037
    45  O   -0.351843
    46  C    0.174967
    47  C    0.288646
    48  C   -0.101650
    49  C   -0.210517
    50  C    0.079234
    51  C    0.056381
    52  C    0.099734
    53  C    0.008414
    54  C   -0.144151
    55  C    0.069241
    56  C    0.001747
    57  C    0.005036
    58  C    0.038265
    59  C   -0.139769
    60  C    0.064115
    61  C    0.081526
    62  C   -0.007915
    63  C    0.049076
    64  C   -0.133367
    65  C    0.038134
    66  C    0.054037
    67  H   -0.039784
    68  H   -0.008875
    69  H   -0.041367
    70  H    0.010823
    71  H    0.001700
    72  H    0.009724
    73  H    0.037251
    74  H    0.022781
    75  H    0.033024
    76  H    0.016450
    77  H    0.031437
    78  H    0.017985
    79  H    0.034294
    80  H    0.015867
    81  H    0.008714
    82  H    0.039902
    83  H    0.020560
    84  H    0.036296
    85  H    0.029028
    86  H    0.008551
    87  H   -0.001460
    88  H    0.041563
    89  H    0.014870
    90  H    0.009886
    91  H    0.004314
    92  H    0.024294
    93  H    0.012371
    94  H    0.014395
    95  H    0.030413
    96  H    0.033098
    97  H    0.024722
    98  H    0.046878
    99  H    0.043574
   100  H    0.045886
   101  H    0.011902
   102  H    0.035394
   103  H    0.020698
   104  H   -0.009174
   105  H    0.032900
   106  H    0.030100
   107  H    0.008085
   108  H   -0.024268
   109  H   -0.008889
   110  H    0.012735
   111  H    0.004966
   112  H    0.000465
   113  H   -0.012309
   114  H   -0.009734
   115  H    0.007425
   116  H   -0.000540
   117  H    0.016868
   118  H   -0.013607
   119  H   -0.011923
   120  H    0.005802
   121  H   -0.004475
   122  H   -0.005731
   123  H   -0.006310
   124  H   -0.010106
   125  H    0.023079
   126  H    0.005670
   127  H    0.002007
   128  H   -0.011394
   129  H   -0.003271
   130  H   -0.008190
   131  H    0.000175
   132  H   -0.003836
   133  H   -0.005191
   134  H    0.001479
   135  H   -0.002210
   136  H   -0.006423
   137  H    0.022647
   138  H   -0.004688
   139  H    0.000012
   140  H   -0.000962
 Sum of Mulliken charges =  -0.00000

 Dipole moment (field-independent basis, Debye):
    X=              3.6943    Y=              2.4194    Z=              0.2115  Tot=              4.4210
 Quadrupole moment (field-independent basis, Debye-Ang):
   XX=           -376.6055   YY=           -428.6100   ZZ=           -422.0262
   XY=            -18.2345   XZ=             16.1699   YZ=             -3.9151

 Normal termination of Gaussian 16 at Thu May  5 13:19:38 2022.
