 Gaussian 16, Revision A.03,
 Gaussian 16:  ES64L-G16RevA.03 25-Dec-2016

 ---------------------------------
 #p PBE1PBE/Def2SVP td=(nstates=5)
 ---------------------------------

 -----------------------------------------------------
 step_901_chromophore_27 TDDFT with PBE1PBE functional
 -----------------------------------------------------
 Symbolic Z-matrix:
 Charge =  0 Multiplicity = 1

                         Standard orientation:
 ---------------------------------------------------------------------
 Center     Atomic      Atomic             Coordinates (Angstroms)
 Number     Number       Type             X           Y           Z
 ---------------------------------------------------------------------
      1         12           0       -4.667459    0.870003    0.007068
      2          6           0       -3.871969   -2.533898    0.238101
      3          6           0       -1.178333    1.392248    0.186900
      4          6           0       -5.145640    4.034138   -0.101638
      5          6           0       -7.954082    0.106254    0.111014
      6          7           0       -2.713567   -0.480960    0.178795
      7          6           0       -2.642833   -1.832603    0.116893
      8          6           0       -1.227057   -2.362144   -0.023409
      9          6           0       -0.373460   -1.104923    0.200054
     10          6           0       -1.492039    0.020343    0.110713
     11          6           0        0.486130   -0.899931    1.577365
     12          6           0       -1.006718   -3.062399   -1.314047
     13          6           0       -0.217234   -4.391683   -1.218899
     14          6           0        1.254138   -4.267347   -1.741671
     15          8           0        1.593203   -4.542996   -2.877730
     16          8           0        2.098389   -3.780290   -0.750025
     17          7           0       -3.335961    2.504842    0.183966
     18          6           0       -1.979245    2.532211    0.147231
     19          6           0       -1.525014    3.906732    0.279514
     20          6           0       -2.605437    4.784464    0.198315
     21          6           0       -3.776074    3.767816   -0.003223
     22          6           0       -0.048604    4.247178    0.383680
     23          6           0       -2.680406    6.274585    0.158709
     24          8           0       -3.716886    6.956673    0.085828
     25          6           0       -1.381929    6.988675    0.532784
     26          7           0       -6.379603    1.950395    0.052449
     27          6           0       -6.300417    3.296958   -0.033117
     28          6           0       -7.705616    3.926562   -0.194281
     29          6           0       -8.611763    2.642498   -0.050696
     30          6           0       -7.619880    1.498950    0.038229
     31          6           0       -7.970888    5.147687    0.801092
     32          6           0       -9.754628    2.645214   -1.141443
     33          6           0      -11.207406    2.281784   -0.766837
     34          7           0       -5.785439   -0.841489    0.048076
     35          6           0       -7.109354   -0.963831    0.119985
     36          6           0       -7.397937   -2.397277    0.262949
     37          6           0       -6.160767   -3.009923    0.331488
     38          6           0       -5.169765   -2.062855    0.167175
     39          6           0       -8.777271   -2.897930    0.103297
     40          6           0       -5.532707   -4.320051    0.405743
     41          8           0       -5.983898   -5.445327    0.410721
     42          6           0       -4.000757   -4.063987    0.363553
     43          6           0       -3.317119   -4.662707    1.504554
     44          8           0       -3.497772   -4.422598    2.726663
     45          8           0       -2.576371   -5.754844    1.006102
     46          6           0       -1.997835   -6.668045    1.957643
     47          6           0        3.518620   -3.846474   -1.002674
     48          6           0        4.103945   -2.660389   -1.553080
     49          6           0        5.411134   -2.335902   -1.609664
     50          6           0        6.496286   -3.362789   -1.160993
     51          6           0        5.775447   -0.883745   -1.917665
     52          6           0        6.219767   -0.416400   -3.281591
     53          6           0        7.744660    0.076589   -3.284317
     54          6           0        7.932939    1.434281   -4.040490
     55          6           0        8.174907    1.299129   -5.556146
     56          6           0        9.126977    2.212518   -3.435446
     57          6           0        8.967873    2.723637   -1.977280
     58          6           0       10.175230    2.368022   -1.042883
     59          6           0        9.767047    1.470658    0.191721
     60          6           0        9.764586   -0.058251   -0.153259
     61          6           0       10.460489    1.899390    1.450338
     62          6           0        9.477066    1.879614    2.658013
     63          6           0        9.667857    0.586892    3.503447
     64          6           0        9.896151    0.965073    5.017152
     65          6           0       11.296262    0.530544    5.534862
     66          6           0        8.876377    0.244450    5.805234
     67          1           0       -0.105984    1.581485    0.266721
     68          1           0       -5.227001    5.121576   -0.040727
     69          1           0       -9.008676   -0.166886    0.188501
     70          1           0       -0.943303   -3.079936    0.745201
     71          1           0        0.384130   -1.032448   -0.581006
     72          1           0        0.549481   -1.894211    2.020539
     73          1           0       -0.062353   -0.255523    2.264601
     74          1           0        1.520714   -0.641687    1.351770
     75          1           0       -0.390320   -2.467154   -1.987084
     76          1           0       -1.942602   -3.539920   -1.603130
     77          1           0       -0.763746   -5.178633   -1.737254
     78          1           0       -0.039446   -4.739393   -0.201216
     79          1           0        0.282654    4.956388   -0.375005
     80          1           0        0.639053    3.429474    0.597397
     81          1           0        0.018525    4.776153    1.334337
     82          1           0       -1.033119    6.683414    1.519642
     83          1           0       -1.670780    8.030576    0.671538
     84          1           0       -0.567679    6.987955   -0.191529
     85          1           0       -7.821472    4.289714   -1.215855
     86          1           0       -9.150320    2.580258    0.895108
     87          1           0       -8.861908    4.961669    1.401020
     88          1           0       -8.007710    6.164897    0.412180
     89          1           0       -7.228997    4.999426    1.586731
     90          1           0       -9.544528    2.185195   -2.106808
     91          1           0       -9.820382    3.708214   -1.375300
     92          1           0      -11.907997    3.115524   -0.801009
     93          1           0      -11.155487    1.834205    0.226101
     94          1           0      -11.552516    1.527381   -1.474230
     95          1           0       -8.743700   -3.983842    0.191181
     96          1           0       -9.159740   -2.603057   -0.873256
     97          1           0       -9.419665   -2.505086    0.891929
     98          1           0       -3.648759   -4.490241   -0.575529
     99          1           0       -2.179632   -7.706693    1.684628
    100          1           0       -2.190275   -6.543163    3.023158
    101          1           0       -0.926837   -6.470616    1.906323
    102          1           0        3.760831   -4.717502   -1.612547
    103          1           0        4.032794   -4.078221   -0.070492
    104          1           0        3.412244   -1.843681   -1.760343
    105          1           0        6.733563   -3.257484   -0.102823
    106          1           0        7.360778   -3.229604   -1.811744
    107          1           0        5.982000   -4.321527   -1.242353
    108          1           0        6.597278   -0.696519   -1.226579
    109          1           0        5.052296   -0.195532   -1.478955
    110          1           0        5.557437    0.370035   -3.642168
    111          1           0        6.314962   -1.334980   -3.861411
    112          1           0        8.413093   -0.626498   -3.782245
    113          1           0        8.108111    0.266273   -2.274730
    114          1           0        7.091694    2.104843   -3.864786
    115          1           0        7.322301    1.824830   -5.987163
    116          1           0        8.126776    0.229428   -5.757308
    117          1           0        9.080675    1.703988   -6.008113
    118          1           0        9.289999    3.123855   -4.010809
    119          1           0       10.061624    1.662103   -3.548767
    120          1           0        8.018394    2.336863   -1.606475
    121          1           0        9.003846    3.809246   -2.075392
    122          1           0       10.587745    3.349541   -0.809343
    123          1           0       10.880462    1.776063   -1.627179
    124          1           0        8.720898    1.775095    0.208464
    125          1           0        9.886575   -0.305240   -1.208655
    126          1           0        8.807469   -0.455837    0.184900
    127          1           0       10.536168   -0.592676    0.399956
    128          1           0       10.852462    2.915881    1.420104
    129          1           0       11.292096    1.219326    1.634842
    130          1           0        8.446964    1.786642    2.315204
    131          1           0        9.516536    2.834701    3.182992
    132          1           0       10.511268   -0.012847    3.161375
    133          1           0        8.781816   -0.020969    3.320302
    134          1           0        9.746334    2.027930    5.206308
    135          1           0       11.493873    1.159337    6.402817
    136          1           0       12.007148    0.947933    4.821825
    137          1           0       11.559082   -0.494035    5.795898
    138          1           0        9.216469   -0.026562    6.804936
    139          1           0        8.572085   -0.712929    5.379980
    140          1           0        8.000171    0.891552    5.832518
 ---------------------------------------------------------------------

 SCF Done:  E(RPBE1PBE) =  -3005.31645456     A.U. after   15 cycles

 Excitation energies and oscillator strengths:

 Excited State   1:      Singlet-A      1.9496 eV  635.95 nm  f=0.3674  <S**2>=0.000
     245 -> 248        0.19261
     246 -> 247        0.68269
 This state for optimization and/or second-order correction.
 Total Energy, E(TD-HF/TD-DFT) =  -3005.24480856
 Copying the excited state density for this state as the 1-particle RhoCI density.

 Excited State   2:      Singlet-A      2.3169 eV  535.14 nm  f=0.0411  <S**2>=0.000
     245 -> 247        0.61091
     246 -> 248       -0.33542

 Excited State   3:      Singlet-A      3.1151 eV  398.01 nm  f=0.2909  <S**2>=0.000
     245 -> 247        0.27054
     246 -> 248        0.57826
     246 -> 249        0.25073

 Excited State   4:      Singlet-A      3.2919 eV  376.64 nm  f=0.0007  <S**2>=0.000
     241 -> 247       -0.15064
     242 -> 247        0.50635
     242 -> 249        0.17567
     242 -> 250       -0.10715
     243 -> 247       -0.39343

 Excited State   5:      Singlet-A      3.3590 eV  369.11 nm  f=0.0231  <S**2>=0.000
     240 -> 247        0.37453
     240 -> 248       -0.11945
     240 -> 249       -0.12239
     241 -> 247        0.20658
     242 -> 247        0.26899
     243 -> 247        0.28578
     246 -> 249       -0.29878

 The electronic state is 1-A.
 Alpha  occ. eigenvalues --  -46.92314 -19.26488 -19.26142 -19.20734 -19.20595
 Alpha  occ. eigenvalues --  -19.19720 -19.19696 -14.41752 -14.41308 -14.39648
 Alpha  occ. eigenvalues --  -14.38550 -10.37103 -10.36967 -10.32925 -10.32460
 Alpha  occ. eigenvalues --  -10.29486 -10.28991 -10.28734 -10.28557 -10.28363
 Alpha  occ. eigenvalues --  -10.28362 -10.28350 -10.27360 -10.26763 -10.26629
 Alpha  occ. eigenvalues --  -10.26461 -10.26305 -10.26115 -10.26012 -10.25987
 Alpha  occ. eigenvalues --  -10.25813 -10.25713 -10.25587 -10.25264 -10.25173
 Alpha  occ. eigenvalues --  -10.25161 -10.24861 -10.24642 -10.24395 -10.24275
 Alpha  occ. eigenvalues --  -10.24243 -10.24168 -10.24028 -10.23507 -10.23336
 Alpha  occ. eigenvalues --  -10.23312 -10.23282 -10.23268 -10.23222 -10.23201
 Alpha  occ. eigenvalues --  -10.23109 -10.23086 -10.23019 -10.22945 -10.22898
 Alpha  occ. eigenvalues --  -10.22838 -10.22647 -10.22285 -10.22265 -10.22187
 Alpha  occ. eigenvalues --  -10.22145 -10.22068 -10.21851 -10.21822 -10.21768
 Alpha  occ. eigenvalues --  -10.20995  -3.14508  -1.87353  -1.86902  -1.86715
 Alpha  occ. eigenvalues --   -1.11442  -1.09894  -1.05542  -1.04053  -1.03577
 Alpha  occ. eigenvalues --   -1.01614  -1.00106  -0.99573  -0.98842  -0.98155
 Alpha  occ. eigenvalues --   -0.87997  -0.85523  -0.84823  -0.84057  -0.83367
 Alpha  occ. eigenvalues --   -0.83124  -0.82615  -0.82035  -0.81847  -0.81658
 Alpha  occ. eigenvalues --   -0.80888  -0.79904  -0.79103  -0.78495  -0.77508
 Alpha  occ. eigenvalues --   -0.77084  -0.76374  -0.75739  -0.75217  -0.74816
 Alpha  occ. eigenvalues --   -0.74210  -0.72796  -0.72473  -0.71998  -0.70802
 Alpha  occ. eigenvalues --   -0.70399  -0.69840  -0.69763  -0.69435  -0.68212
 Alpha  occ. eigenvalues --   -0.67752  -0.67362  -0.66404  -0.65263  -0.63822
 Alpha  occ. eigenvalues --   -0.63336  -0.62584  -0.62382  -0.61440  -0.60721
 Alpha  occ. eigenvalues --   -0.60299  -0.59937  -0.59579  -0.59397  -0.58504
 Alpha  occ. eigenvalues --   -0.57856  -0.57784  -0.57203  -0.56837  -0.55184
 Alpha  occ. eigenvalues --   -0.55073  -0.54918  -0.54136  -0.53412  -0.53233
 Alpha  occ. eigenvalues --   -0.52708  -0.52449  -0.51372  -0.50728  -0.50175
 Alpha  occ. eigenvalues --   -0.50099  -0.49489  -0.49119  -0.48922  -0.48699
 Alpha  occ. eigenvalues --   -0.48544  -0.48087  -0.47832  -0.47793  -0.47339
 Alpha  occ. eigenvalues --   -0.47227  -0.46980  -0.46960  -0.46309  -0.46191
 Alpha  occ. eigenvalues --   -0.46068  -0.46036  -0.45945  -0.45816  -0.45715
 Alpha  occ. eigenvalues --   -0.45010  -0.44897  -0.44684  -0.44421  -0.44328
 Alpha  occ. eigenvalues --   -0.44254  -0.44233  -0.43809  -0.43707  -0.43544
 Alpha  occ. eigenvalues --   -0.43528  -0.43367  -0.43096  -0.42846  -0.42509
 Alpha  occ. eigenvalues --   -0.42443  -0.42187  -0.41817  -0.41754  -0.41254
 Alpha  occ. eigenvalues --   -0.41020  -0.40936  -0.40779  -0.40727  -0.40704
 Alpha  occ. eigenvalues --   -0.40597  -0.40373  -0.40245  -0.40160  -0.39918
 Alpha  occ. eigenvalues --   -0.39816  -0.39581  -0.39301  -0.39162  -0.39053
 Alpha  occ. eigenvalues --   -0.38752  -0.38226  -0.38147  -0.37976  -0.37637
 Alpha  occ. eigenvalues --   -0.37567  -0.37346  -0.37235  -0.37153  -0.37104
 Alpha  occ. eigenvalues --   -0.36978  -0.36952  -0.36868  -0.36616  -0.36561
 Alpha  occ. eigenvalues --   -0.35926  -0.35861  -0.35539  -0.35314  -0.34973
 Alpha  occ. eigenvalues --   -0.34737  -0.34620  -0.34440  -0.34257  -0.33873
 Alpha  occ. eigenvalues --   -0.33668  -0.33579  -0.33040  -0.32711  -0.32553
 Alpha  occ. eigenvalues --   -0.32275  -0.32031  -0.31805  -0.31616  -0.31170
 Alpha  occ. eigenvalues --   -0.31129  -0.30491  -0.30016  -0.29731  -0.29561
 Alpha  occ. eigenvalues --   -0.29209  -0.28772  -0.27610  -0.27334  -0.26458
 Alpha  occ. eigenvalues --   -0.26381  -0.26209  -0.25616  -0.25095  -0.21069
 Alpha  occ. eigenvalues --   -0.18561
 Alpha virt. eigenvalues --   -0.10459  -0.06015  -0.04336  -0.02480  -0.01191
 Alpha virt. eigenvalues --   -0.00197   0.00324   0.00561   0.01534   0.02772
 Alpha virt. eigenvalues --    0.03602   0.03990   0.04569   0.05124   0.05586

 Mulliken charges:
               1
     1  Mg   0.982202
     2  C   -0.045772
     3  C   -0.084536
     4  C   -0.051460
     5  C   -0.099779
     6  N   -0.297785
     7  C    0.007968
     8  C   -0.043859
     9  C   -0.141046
    10  C    0.035231
    11  C    0.002324
    12  C    0.034919
    13  C   -0.021371
    14  C    0.194242
    15  O   -0.245084
    16  O   -0.375186
    17  N   -0.458386
    18  C    0.190977
    19  C   -0.184648
    20  C   -0.059650
    21  C    0.103992
    22  C    0.081727
    23  C    0.080841
    24  O   -0.248155
    25  C   -0.068173
    26  N   -0.432925
    27  C    0.094254
    28  C   -0.139538
    29  C   -0.057952
    30  C    0.116091
    31  C    0.013427
    32  C   -0.059277
    33  C   -0.067490
    34  N   -0.496947
    35  C    0.141783
    36  C   -0.191026
    37  C   -0.055263
    38  C    0.197369
    39  C    0.059583
    40  C    0.156159
    41  O   -0.194402
    42  C   -0.133328
    43  C    0.323874
    44  O   -0.273916
    45  O   -0.383499
    46  C    0.121728
    47  C    0.243692
    48  C   -0.105855
    49  C   -0.250893
    50  C    0.010516
    51  C   -0.009863
    52  C    0.033923
    53  C   -0.058433
    54  C   -0.230062
    55  C    0.011354
    56  C   -0.045791
    57  C   -0.067763
    58  C   -0.007523
    59  C   -0.224042
    60  C   -0.003756
    61  C    0.022972
    62  C   -0.070496
    63  C    0.000480
    64  C   -0.229036
    65  C   -0.026455
    66  C   -0.004296
    67  H   -0.006096
    68  H    0.025020
    69  H   -0.006483
    70  H    0.050488
    71  H    0.039664
    72  H    0.038348
    73  H    0.065022
    74  H    0.049227
    75  H    0.064720
    76  H    0.053560
    77  H    0.062696
    78  H    0.051331
    79  H    0.062176
    80  H    0.041774
    81  H    0.038080
    82  H    0.066763
    83  H    0.048882
    84  H    0.062307
    85  H    0.065838
    86  H    0.046134
    87  H    0.027269
    88  H    0.067561
    89  H    0.043734
    90  H    0.041607
    91  H    0.039536
    92  H    0.051302
    93  H    0.039380
    94  H    0.042154
    95  H    0.059626
    96  H    0.060905
    97  H    0.052348
    98  H    0.085101
    99  H    0.065214
   100  H    0.066582
   101  H    0.034036
   102  H    0.061718
   103  H    0.048355
   104  H    0.021362
   105  H    0.060117
   106  H    0.058255
   107  H    0.036003
   108  H    0.014764
   109  H    0.022638
   110  H    0.043383
   111  H    0.040350
   112  H    0.032036
   113  H    0.034688
   114  H    0.028267
   115  H    0.035062
   116  H    0.027316
   117  H    0.042634
   118  H    0.020289
   119  H    0.020137
   120  H    0.036610
   121  H    0.030165
   122  H    0.025496
   123  H    0.026844
   124  H    0.030164
   125  H    0.048948
   126  H    0.035854
   127  H    0.030076
   128  H    0.021269
   129  H    0.029343
   130  H    0.024983
   131  H    0.030684
   132  H    0.027436
   133  H    0.026090
   134  H    0.037258
   135  H    0.027234
   136  H    0.023781
   137  H    0.048886
   138  H    0.023224
   139  H    0.027553
   140  H    0.028011
 Sum of Mulliken charges =  -0.00000

 Dipole moment (field-independent basis, Debye):
    X=              3.5417    Y=              2.4450    Z=              0.2107  Tot=              4.3089
 Quadrupole moment (field-independent basis, Debye-Ang):
   XX=           -369.6384   YY=           -425.9172   ZZ=           -419.8508
   XY=            -19.1076   XZ=             16.4665   YZ=             -3.8312

 Normal termination of Gaussian 16 at Thu May  5 13:45:16 2022.
