 Gaussian 16, Revision A.03,
 Gaussian 16:  ES64L-G16RevA.03 25-Dec-2016

 --------------------------------
 #p wB97XD/Def2SVP td=(nstates=5)
 --------------------------------

 ----------------------------------------------------
 step_901_chromophore_27 TDDFT with wB97XD functional
 ----------------------------------------------------
 Symbolic Z-matrix:
 Charge =  0 Multiplicity = 1

                         Standard orientation:
 ---------------------------------------------------------------------
 Center     Atomic      Atomic             Coordinates (Angstroms)
 Number     Number       Type             X           Y           Z
 ---------------------------------------------------------------------
      1         12           0       -4.667459    0.870003    0.007068
      2          6           0       -3.871969   -2.533898    0.238101
      3          6           0       -1.178333    1.392248    0.186900
      4          6           0       -5.145640    4.034138   -0.101638
      5          6           0       -7.954082    0.106254    0.111014
      6          7           0       -2.713567   -0.480960    0.178795
      7          6           0       -2.642833   -1.832603    0.116893
      8          6           0       -1.227057   -2.362144   -0.023409
      9          6           0       -0.373460   -1.104923    0.200054
     10          6           0       -1.492039    0.020343    0.110713
     11          6           0        0.486130   -0.899931    1.577365
     12          6           0       -1.006718   -3.062399   -1.314047
     13          6           0       -0.217234   -4.391683   -1.218899
     14          6           0        1.254138   -4.267347   -1.741671
     15          8           0        1.593203   -4.542996   -2.877730
     16          8           0        2.098389   -3.780290   -0.750025
     17          7           0       -3.335961    2.504842    0.183966
     18          6           0       -1.979245    2.532211    0.147231
     19          6           0       -1.525014    3.906732    0.279514
     20          6           0       -2.605437    4.784464    0.198315
     21          6           0       -3.776074    3.767816   -0.003223
     22          6           0       -0.048604    4.247178    0.383680
     23          6           0       -2.680406    6.274585    0.158709
     24          8           0       -3.716886    6.956673    0.085828
     25          6           0       -1.381929    6.988675    0.532784
     26          7           0       -6.379603    1.950395    0.052449
     27          6           0       -6.300417    3.296958   -0.033117
     28          6           0       -7.705616    3.926562   -0.194281
     29          6           0       -8.611763    2.642498   -0.050696
     30          6           0       -7.619880    1.498950    0.038229
     31          6           0       -7.970888    5.147687    0.801092
     32          6           0       -9.754628    2.645214   -1.141443
     33          6           0      -11.207406    2.281784   -0.766837
     34          7           0       -5.785439   -0.841489    0.048076
     35          6           0       -7.109354   -0.963831    0.119985
     36          6           0       -7.397937   -2.397277    0.262949
     37          6           0       -6.160767   -3.009923    0.331488
     38          6           0       -5.169765   -2.062855    0.167175
     39          6           0       -8.777271   -2.897930    0.103297
     40          6           0       -5.532707   -4.320051    0.405743
     41          8           0       -5.983898   -5.445327    0.410721
     42          6           0       -4.000757   -4.063987    0.363553
     43          6           0       -3.317119   -4.662707    1.504554
     44          8           0       -3.497772   -4.422598    2.726663
     45          8           0       -2.576371   -5.754844    1.006102
     46          6           0       -1.997835   -6.668045    1.957643
     47          6           0        3.518620   -3.846474   -1.002674
     48          6           0        4.103945   -2.660389   -1.553080
     49          6           0        5.411134   -2.335902   -1.609664
     50          6           0        6.496286   -3.362789   -1.160993
     51          6           0        5.775447   -0.883745   -1.917665
     52          6           0        6.219767   -0.416400   -3.281591
     53          6           0        7.744660    0.076589   -3.284317
     54          6           0        7.932939    1.434281   -4.040490
     55          6           0        8.174907    1.299129   -5.556146
     56          6           0        9.126977    2.212518   -3.435446
     57          6           0        8.967873    2.723637   -1.977280
     58          6           0       10.175230    2.368022   -1.042883
     59          6           0        9.767047    1.470658    0.191721
     60          6           0        9.764586   -0.058251   -0.153259
     61          6           0       10.460489    1.899390    1.450338
     62          6           0        9.477066    1.879614    2.658013
     63          6           0        9.667857    0.586892    3.503447
     64          6           0        9.896151    0.965073    5.017152
     65          6           0       11.296262    0.530544    5.534862
     66          6           0        8.876377    0.244450    5.805234
     67          1           0       -0.105984    1.581485    0.266721
     68          1           0       -5.227001    5.121576   -0.040727
     69          1           0       -9.008676   -0.166886    0.188501
     70          1           0       -0.943303   -3.079936    0.745201
     71          1           0        0.384130   -1.032448   -0.581006
     72          1           0        0.549481   -1.894211    2.020539
     73          1           0       -0.062353   -0.255523    2.264601
     74          1           0        1.520714   -0.641687    1.351770
     75          1           0       -0.390320   -2.467154   -1.987084
     76          1           0       -1.942602   -3.539920   -1.603130
     77          1           0       -0.763746   -5.178633   -1.737254
     78          1           0       -0.039446   -4.739393   -0.201216
     79          1           0        0.282654    4.956388   -0.375005
     80          1           0        0.639053    3.429474    0.597397
     81          1           0        0.018525    4.776153    1.334337
     82          1           0       -1.033119    6.683414    1.519642
     83          1           0       -1.670780    8.030576    0.671538
     84          1           0       -0.567679    6.987955   -0.191529
     85          1           0       -7.821472    4.289714   -1.215855
     86          1           0       -9.150320    2.580258    0.895108
     87          1           0       -8.861908    4.961669    1.401020
     88          1           0       -8.007710    6.164897    0.412180
     89          1           0       -7.228997    4.999426    1.586731
     90          1           0       -9.544528    2.185195   -2.106808
     91          1           0       -9.820382    3.708214   -1.375300
     92          1           0      -11.907997    3.115524   -0.801009
     93          1           0      -11.155487    1.834205    0.226101
     94          1           0      -11.552516    1.527381   -1.474230
     95          1           0       -8.743700   -3.983842    0.191181
     96          1           0       -9.159740   -2.603057   -0.873256
     97          1           0       -9.419665   -2.505086    0.891929
     98          1           0       -3.648759   -4.490241   -0.575529
     99          1           0       -2.179632   -7.706693    1.684628
    100          1           0       -2.190275   -6.543163    3.023158
    101          1           0       -0.926837   -6.470616    1.906323
    102          1           0        3.760831   -4.717502   -1.612547
    103          1           0        4.032794   -4.078221   -0.070492
    104          1           0        3.412244   -1.843681   -1.760343
    105          1           0        6.733563   -3.257484   -0.102823
    106          1           0        7.360778   -3.229604   -1.811744
    107          1           0        5.982000   -4.321527   -1.242353
    108          1           0        6.597278   -0.696519   -1.226579
    109          1           0        5.052296   -0.195532   -1.478955
    110          1           0        5.557437    0.370035   -3.642168
    111          1           0        6.314962   -1.334980   -3.861411
    112          1           0        8.413093   -0.626498   -3.782245
    113          1           0        8.108111    0.266273   -2.274730
    114          1           0        7.091694    2.104843   -3.864786
    115          1           0        7.322301    1.824830   -5.987163
    116          1           0        8.126776    0.229428   -5.757308
    117          1           0        9.080675    1.703988   -6.008113
    118          1           0        9.289999    3.123855   -4.010809
    119          1           0       10.061624    1.662103   -3.548767
    120          1           0        8.018394    2.336863   -1.606475
    121          1           0        9.003846    3.809246   -2.075392
    122          1           0       10.587745    3.349541   -0.809343
    123          1           0       10.880462    1.776063   -1.627179
    124          1           0        8.720898    1.775095    0.208464
    125          1           0        9.886575   -0.305240   -1.208655
    126          1           0        8.807469   -0.455837    0.184900
    127          1           0       10.536168   -0.592676    0.399956
    128          1           0       10.852462    2.915881    1.420104
    129          1           0       11.292096    1.219326    1.634842
    130          1           0        8.446964    1.786642    2.315204
    131          1           0        9.516536    2.834701    3.182992
    132          1           0       10.511268   -0.012847    3.161375
    133          1           0        8.781816   -0.020969    3.320302
    134          1           0        9.746334    2.027930    5.206308
    135          1           0       11.493873    1.159337    6.402817
    136          1           0       12.007148    0.947933    4.821825
    137          1           0       11.559082   -0.494035    5.795898
    138          1           0        9.216469   -0.026562    6.804936
    139          1           0        8.572085   -0.712929    5.379980
    140          1           0        8.000171    0.891552    5.832518
 ---------------------------------------------------------------------

 SCF Done:  E(RwB97XD) =  -3007.82615959     A.U. after   17 cycles

 Excitation energies and oscillator strengths:

 Excited State   1:      Singlet-A      1.7611 eV  704.03 nm  f=0.3736  <S**2>=0.000
     245 -> 248        0.20921
     246 -> 247        0.67319
     245 <- 248        0.11341
 This state for optimization and/or second-order correction.
 Total Energy, E(TD-HF/TD-DFT) =  -3007.76144198
 Copying the excited state density for this state as the 1-particle RhoCI density.

 Excited State   2:      Singlet-A      2.2781 eV  544.25 nm  f=0.0309  <S**2>=0.000
     245 -> 247        0.58568
     246 -> 248       -0.38026

 Excited State   3:      Singlet-A      3.4044 eV  364.19 nm  f=0.7208  <S**2>=0.000
     243 -> 247        0.12105
     245 -> 247        0.36368
     246 -> 248        0.58417
     245 <- 247       -0.10694

 Excited State   4:      Singlet-A      3.7303 eV  332.37 nm  f=0.0153  <S**2>=0.000
     241 -> 247        0.43490
     241 -> 249       -0.30752
     241 -> 250       -0.23586
     243 -> 247       -0.34518

 Excited State   5:      Singlet-A      3.7626 eV  329.52 nm  f=0.0063  <S**2>=0.000
     240 -> 247        0.42074
     240 -> 248       -0.23675
     240 -> 249        0.37197
     240 -> 250       -0.25481

 The electronic state is 1-A.
 Alpha  occ. eigenvalues --  -46.95248 -19.31047 -19.30770 -19.25416 -19.25415
 Alpha  occ. eigenvalues --  -19.24600 -19.24533 -14.46978 -14.46263 -14.44628
 Alpha  occ. eigenvalues --  -14.43464 -10.44060 -10.43732 -10.39816 -10.39368
 Alpha  occ. eigenvalues --  -10.35983 -10.35307 -10.35099 -10.34945 -10.34761
 Alpha  occ. eigenvalues --  -10.34679 -10.34590 -10.33663 -10.33340 -10.32967
 Alpha  occ. eigenvalues --  -10.32686 -10.32567 -10.32443 -10.32308 -10.32287
 Alpha  occ. eigenvalues --  -10.32171 -10.31983 -10.31942 -10.31649 -10.31578
 Alpha  occ. eigenvalues --  -10.31508 -10.31202 -10.31189 -10.30955 -10.30722
 Alpha  occ. eigenvalues --  -10.30604 -10.30438 -10.30279 -10.29927 -10.29854
 Alpha  occ. eigenvalues --  -10.29692 -10.29671 -10.29617 -10.29502 -10.29495
 Alpha  occ. eigenvalues --  -10.29488 -10.29436 -10.29389 -10.29346 -10.29216
 Alpha  occ. eigenvalues --  -10.29178 -10.29103 -10.28637 -10.28617 -10.28534
 Alpha  occ. eigenvalues --  -10.28493 -10.28434 -10.28284 -10.28202 -10.28181
 Alpha  occ. eigenvalues --  -10.27444  -3.21297  -1.94891  -1.94439  -1.94255
 Alpha  occ. eigenvalues --   -1.18820  -1.17385  -1.13075  -1.11578  -1.10915
 Alpha  occ. eigenvalues --   -1.09098  -1.07452  -1.06939  -1.06181  -1.05511
 Alpha  occ. eigenvalues --   -0.95644  -0.93148  -0.92478  -0.91726  -0.91003
 Alpha  occ. eigenvalues --   -0.90793  -0.90169  -0.89704  -0.89508  -0.89257
 Alpha  occ. eigenvalues --   -0.88489  -0.87550  -0.86741  -0.86137  -0.85138
 Alpha  occ. eigenvalues --   -0.84727  -0.84012  -0.83398  -0.82877  -0.82500
 Alpha  occ. eigenvalues --   -0.81875  -0.80486  -0.80145  -0.79586  -0.78438
 Alpha  occ. eigenvalues --   -0.78088  -0.77470  -0.77390  -0.77137  -0.75863
 Alpha  occ. eigenvalues --   -0.75357  -0.74899  -0.73922  -0.72877  -0.71352
 Alpha  occ. eigenvalues --   -0.70908  -0.70177  -0.69948  -0.69077  -0.68202
 Alpha  occ. eigenvalues --   -0.67849  -0.67375  -0.67058  -0.66973  -0.65988
 Alpha  occ. eigenvalues --   -0.65542  -0.65455  -0.64653  -0.64490  -0.62707
 Alpha  occ. eigenvalues --   -0.62532  -0.62367  -0.61527  -0.60890  -0.60693
 Alpha  occ. eigenvalues --   -0.60187  -0.59837  -0.58772  -0.58149  -0.57566
 Alpha  occ. eigenvalues --   -0.57484  -0.56890  -0.56576  -0.56330  -0.56138
 Alpha  occ. eigenvalues --   -0.55924  -0.55436  -0.55255  -0.55166  -0.54891
 Alpha  occ. eigenvalues --   -0.54622  -0.54453  -0.54306  -0.53685  -0.53552
 Alpha  occ. eigenvalues --   -0.53436  -0.53398  -0.53236  -0.53179  -0.53081
 Alpha  occ. eigenvalues --   -0.52292  -0.52226  -0.52035  -0.51845  -0.51711
 Alpha  occ. eigenvalues --   -0.51573  -0.51571  -0.51150  -0.50967  -0.50908
 Alpha  occ. eigenvalues --   -0.50851  -0.50671  -0.50450  -0.50175  -0.49792
 Alpha  occ. eigenvalues --   -0.49714  -0.49443  -0.49045  -0.49024  -0.48492
 Alpha  occ. eigenvalues --   -0.48232  -0.48215  -0.48030  -0.47966  -0.47932
 Alpha  occ. eigenvalues --   -0.47750  -0.47582  -0.47435  -0.47361  -0.47099
 Alpha  occ. eigenvalues --   -0.46945  -0.46754  -0.46489  -0.46449  -0.46214
 Alpha  occ. eigenvalues --   -0.45843  -0.45295  -0.45202  -0.45194  -0.44765
 Alpha  occ. eigenvalues --   -0.44680  -0.44529  -0.44480  -0.44377  -0.44207
 Alpha  occ. eigenvalues --   -0.44086  -0.44059  -0.43907  -0.43769  -0.43602
 Alpha  occ. eigenvalues --   -0.42905  -0.42882  -0.42523  -0.42333  -0.41925
 Alpha  occ. eigenvalues --   -0.41796  -0.41620  -0.41528  -0.41219  -0.40936
 Alpha  occ. eigenvalues --   -0.40745  -0.40643  -0.40081  -0.39761  -0.39471
 Alpha  occ. eigenvalues --   -0.39309  -0.39063  -0.38854  -0.38485  -0.38255
 Alpha  occ. eigenvalues --   -0.38210  -0.37437  -0.36936  -0.36794  -0.36409
 Alpha  occ. eigenvalues --   -0.36033  -0.35836  -0.34457  -0.33918  -0.33639
 Alpha  occ. eigenvalues --   -0.33360  -0.32957  -0.32175  -0.31835  -0.26107
 Alpha  occ. eigenvalues --   -0.22685
 Alpha virt. eigenvalues --   -0.06137  -0.00618   0.01841   0.03973   0.05466
 Alpha virt. eigenvalues --    0.06167   0.06631   0.07255   0.08027   0.09079
 Alpha virt. eigenvalues --    0.10342   0.10795   0.11246   0.11880   0.12332

 Mulliken charges:
               1
     1  Mg   0.972459
     2  C   -0.048145
     3  C   -0.092448
     4  C   -0.065986
     5  C   -0.120573
     6  N   -0.259974
     7  C   -0.025685
     8  C   -0.016613
     9  C   -0.120980
    10  C    0.016413
    11  C    0.015653
    12  C    0.050703
    13  C   -0.004159
    14  C    0.182180
    15  O   -0.242540
    16  O   -0.373663
    17  N   -0.428795
    18  C    0.181364
    19  C   -0.169922
    20  C   -0.059632
    21  C    0.094684
    22  C    0.095023
    23  C    0.076537
    24  O   -0.241606
    25  C   -0.055021
    26  N   -0.399369
    27  C    0.088948
    28  C   -0.113856
    29  C   -0.034142
    30  C    0.099454
    31  C    0.024291
    32  C   -0.046007
    33  C   -0.050307
    34  N   -0.456289
    35  C    0.133051
    36  C   -0.186994
    37  C   -0.044647
    38  C    0.181083
    39  C    0.068835
    40  C    0.133634
    41  O   -0.183705
    42  C   -0.090744
    43  C    0.299366
    44  O   -0.267167
    45  O   -0.381123
    46  C    0.136553
    47  C    0.259277
    48  C   -0.115695
    49  C   -0.241957
    50  C    0.029428
    51  C    0.017002
    52  C    0.046602
    53  C   -0.020556
    54  C   -0.199883
    55  C    0.020285
    56  C   -0.030702
    57  C   -0.045184
    58  C    0.003878
    59  C   -0.188913
    60  C    0.014024
    61  C    0.038691
    62  C   -0.053292
    63  C    0.012407
    64  C   -0.198017
    65  C   -0.013844
    66  C    0.006018
    67  H   -0.015699
    68  H    0.015709
    69  H   -0.013485
    70  H    0.032508
    71  H    0.028628
    72  H    0.032292
    73  H    0.058398
    74  H    0.044331
    75  H    0.057183
    76  H    0.040280
    77  H    0.059613
    78  H    0.041458
    79  H    0.056518
    80  H    0.039494
    81  H    0.030259
    82  H    0.060816
    83  H    0.047052
    84  H    0.057980
    85  H    0.055539
    86  H    0.034142
    87  H    0.021312
    88  H    0.064190
    89  H    0.035984
    90  H    0.035464
    91  H    0.028387
    92  H    0.046448
    93  H    0.031791
    94  H    0.036276
    95  H    0.056039
    96  H    0.055910
    97  H    0.047146
    98  H    0.076271
    99  H    0.061794
   100  H    0.063297
   101  H    0.029099
   102  H    0.056279
   103  H    0.043100
   104  H    0.017033
   105  H    0.054776
   106  H    0.052285
   107  H    0.028585
   108  H   -0.002217
   109  H    0.016490
   110  H    0.037525
   111  H    0.031082
   112  H    0.023336
   113  H   -0.004185
   114  H    0.015444
   115  H    0.029712
   116  H    0.020421
   117  H    0.038142
   118  H    0.011748
   119  H    0.008495
   120  H    0.024471
   121  H    0.023234
   122  H    0.018670
   123  H    0.015326
   124  H    0.010139
   125  H    0.041822
   126  H    0.027435
   127  H    0.024765
   128  H    0.014437
   129  H    0.018009
   130  H    0.015504
   131  H    0.023596
   132  H    0.016145
   133  H    0.017857
   134  H    0.027312
   135  H    0.020599
   136  H    0.015546
   137  H    0.044699
   138  H    0.017627
   139  H    0.020499
   140  H    0.022124
 Sum of Mulliken charges =  -0.00000

 Dipole moment (field-independent basis, Debye):
    X=              3.7560    Y=              2.4690    Z=              0.2566  Tot=              4.5021
 Quadrupole moment (field-independent basis, Debye-Ang):
   XX=           -371.5196   YY=           -424.1634   ZZ=           -419.4407
   XY=            -18.2279   XZ=             16.5486   YZ=             -4.0682

 Normal termination of Gaussian 16 at Thu May  5 14:23:52 2022.
