 Gaussian 16, Revision A.03,
 Gaussian 16:  ES64L-G16RevA.03 25-Dec-2016

 --------------------
 #p ZINDO=(nstates=5)
 --------------------

 -----------------------------
 step_901_chromophore_27 ZINDO
 -----------------------------
 Symbolic Z-matrix:
 Charge =  0 Multiplicity = 1

                         Standard orientation:
 ---------------------------------------------------------------------
 Center     Atomic      Atomic             Coordinates (Angstroms)
 Number     Number       Type             X           Y           Z
 ---------------------------------------------------------------------
      1         12           0       -4.667459    0.870003    0.007068
      2          6           0       -3.871969   -2.533898    0.238101
      3          6           0       -1.178333    1.392248    0.186900
      4          6           0       -5.145640    4.034138   -0.101638
      5          6           0       -7.954082    0.106254    0.111014
      6          7           0       -2.713567   -0.480960    0.178795
      7          6           0       -2.642833   -1.832603    0.116893
      8          6           0       -1.227057   -2.362144   -0.023409
      9          6           0       -0.373460   -1.104923    0.200054
     10          6           0       -1.492039    0.020343    0.110713
     11          6           0        0.486130   -0.899931    1.577365
     12          6           0       -1.006718   -3.062399   -1.314047
     13          6           0       -0.217234   -4.391683   -1.218899
     14          6           0        1.254138   -4.267347   -1.741671
     15          8           0        1.593203   -4.542996   -2.877730
     16          8           0        2.098389   -3.780290   -0.750025
     17          7           0       -3.335961    2.504842    0.183966
     18          6           0       -1.979245    2.532211    0.147231
     19          6           0       -1.525014    3.906732    0.279514
     20          6           0       -2.605437    4.784464    0.198315
     21          6           0       -3.776074    3.767816   -0.003223
     22          6           0       -0.048604    4.247178    0.383680
     23          6           0       -2.680406    6.274585    0.158709
     24          8           0       -3.716886    6.956673    0.085828
     25          6           0       -1.381929    6.988675    0.532784
     26          7           0       -6.379603    1.950395    0.052449
     27          6           0       -6.300417    3.296958   -0.033117
     28          6           0       -7.705616    3.926562   -0.194281
     29          6           0       -8.611763    2.642498   -0.050696
     30          6           0       -7.619880    1.498950    0.038229
     31          6           0       -7.970888    5.147687    0.801092
     32          6           0       -9.754628    2.645214   -1.141443
     33          6           0      -11.207406    2.281784   -0.766837
     34          7           0       -5.785439   -0.841489    0.048076
     35          6           0       -7.109354   -0.963831    0.119985
     36          6           0       -7.397937   -2.397277    0.262949
     37          6           0       -6.160767   -3.009923    0.331488
     38          6           0       -5.169765   -2.062855    0.167175
     39          6           0       -8.777271   -2.897930    0.103297
     40          6           0       -5.532707   -4.320051    0.405743
     41          8           0       -5.983898   -5.445327    0.410721
     42          6           0       -4.000757   -4.063987    0.363553
     43          6           0       -3.317119   -4.662707    1.504554
     44          8           0       -3.497772   -4.422598    2.726663
     45          8           0       -2.576371   -5.754844    1.006102
     46          6           0       -1.997835   -6.668045    1.957643
     47          6           0        3.518620   -3.846474   -1.002674
     48          6           0        4.103945   -2.660389   -1.553080
     49          6           0        5.411134   -2.335902   -1.609664
     50          6           0        6.496286   -3.362789   -1.160993
     51          6           0        5.775447   -0.883745   -1.917665
     52          6           0        6.219767   -0.416400   -3.281591
     53          6           0        7.744660    0.076589   -3.284317
     54          6           0        7.932939    1.434281   -4.040490
     55          6           0        8.174907    1.299129   -5.556146
     56          6           0        9.126977    2.212518   -3.435446
     57          6           0        8.967873    2.723637   -1.977280
     58          6           0       10.175230    2.368022   -1.042883
     59          6           0        9.767047    1.470658    0.191721
     60          6           0        9.764586   -0.058251   -0.153259
     61          6           0       10.460489    1.899390    1.450338
     62          6           0        9.477066    1.879614    2.658013
     63          6           0        9.667857    0.586892    3.503447
     64          6           0        9.896151    0.965073    5.017152
     65          6           0       11.296262    0.530544    5.534862
     66          6           0        8.876377    0.244450    5.805234
     67          1           0       -0.105984    1.581485    0.266721
     68          1           0       -5.227001    5.121576   -0.040727
     69          1           0       -9.008676   -0.166886    0.188501
     70          1           0       -0.943303   -3.079936    0.745201
     71          1           0        0.384130   -1.032448   -0.581006
     72          1           0        0.549481   -1.894211    2.020539
     73          1           0       -0.062353   -0.255523    2.264601
     74          1           0        1.520714   -0.641687    1.351770
     75          1           0       -0.390320   -2.467154   -1.987084
     76          1           0       -1.942602   -3.539920   -1.603130
     77          1           0       -0.763746   -5.178633   -1.737254
     78          1           0       -0.039446   -4.739393   -0.201216
     79          1           0        0.282654    4.956388   -0.375005
     80          1           0        0.639053    3.429474    0.597397
     81          1           0        0.018525    4.776153    1.334337
     82          1           0       -1.033119    6.683414    1.519642
     83          1           0       -1.670780    8.030576    0.671538
     84          1           0       -0.567679    6.987955   -0.191529
     85          1           0       -7.821472    4.289714   -1.215855
     86          1           0       -9.150320    2.580258    0.895108
     87          1           0       -8.861908    4.961669    1.401020
     88          1           0       -8.007710    6.164897    0.412180
     89          1           0       -7.228997    4.999426    1.586731
     90          1           0       -9.544528    2.185195   -2.106808
     91          1           0       -9.820382    3.708214   -1.375300
     92          1           0      -11.907997    3.115524   -0.801009
     93          1           0      -11.155487    1.834205    0.226101
     94          1           0      -11.552516    1.527381   -1.474230
     95          1           0       -8.743700   -3.983842    0.191181
     96          1           0       -9.159740   -2.603057   -0.873256
     97          1           0       -9.419665   -2.505086    0.891929
     98          1           0       -3.648759   -4.490241   -0.575529
     99          1           0       -2.179632   -7.706693    1.684628
    100          1           0       -2.190275   -6.543163    3.023158
    101          1           0       -0.926837   -6.470616    1.906323
    102          1           0        3.760831   -4.717502   -1.612547
    103          1           0        4.032794   -4.078221   -0.070492
    104          1           0        3.412244   -1.843681   -1.760343
    105          1           0        6.733563   -3.257484   -0.102823
    106          1           0        7.360778   -3.229604   -1.811744
    107          1           0        5.982000   -4.321527   -1.242353
    108          1           0        6.597278   -0.696519   -1.226579
    109          1           0        5.052296   -0.195532   -1.478955
    110          1           0        5.557437    0.370035   -3.642168
    111          1           0        6.314962   -1.334980   -3.861411
    112          1           0        8.413093   -0.626498   -3.782245
    113          1           0        8.108111    0.266273   -2.274730
    114          1           0        7.091694    2.104843   -3.864786
    115          1           0        7.322301    1.824830   -5.987163
    116          1           0        8.126776    0.229428   -5.757308
    117          1           0        9.080675    1.703988   -6.008113
    118          1           0        9.289999    3.123855   -4.010809
    119          1           0       10.061624    1.662103   -3.548767
    120          1           0        8.018394    2.336863   -1.606475
    121          1           0        9.003846    3.809246   -2.075392
    122          1           0       10.587745    3.349541   -0.809343
    123          1           0       10.880462    1.776063   -1.627179
    124          1           0        8.720898    1.775095    0.208464
    125          1           0        9.886575   -0.305240   -1.208655
    126          1           0        8.807469   -0.455837    0.184900
    127          1           0       10.536168   -0.592676    0.399956
    128          1           0       10.852462    2.915881    1.420104
    129          1           0       11.292096    1.219326    1.634842
    130          1           0        8.446964    1.786642    2.315204
    131          1           0        9.516536    2.834701    3.182992
    132          1           0       10.511268   -0.012847    3.161375
    133          1           0        8.781816   -0.020969    3.320302
    134          1           0        9.746334    2.027930    5.206308
    135          1           0       11.493873    1.159337    6.402817
    136          1           0       12.007148    0.947933    4.821825
    137          1           0       11.559082   -0.494035    5.795898
    138          1           0        9.216469   -0.026562    6.804936
    139          1           0        8.572085   -0.712929    5.379980
    140          1           0        8.000171    0.891552    5.832518
 ---------------------------------------------------------------------

 SCF Done:  E(RZINDO/S) =  -474.459783385     A.U. after   21 cycles

 Excitation energies and oscillator strengths:

 Excited State   1:      Singlet-A      1.3061 eV  949.26 nm  f=0.5781  <S**2>=0.000
     175 ->178         0.21266
     176 ->177         0.65638
 This state for optimization and/or second-order correction.
 Total Energy, E(CIS/TDA) =  -474.411784376
 Copying the excited state density for this state as the 1-particle RhoCI density.

 Excited State   2:      Singlet-A      1.9218 eV  645.15 nm  f=0.0031  <S**2>=0.000
     175 ->177        -0.46100
     176 ->178         0.51716

 Excited State   3:      Singlet-A      2.8551 eV  434.25 nm  f=0.0335  <S**2>=0.000
     175 ->177         0.10436
     176 ->178         0.11684
     176 ->179         0.64958
     176 ->180         0.12599

 Excited State   4:      Singlet-A      3.0041 eV  412.72 nm  f=0.0044  <S**2>=0.000
     168 ->177        -0.20767
     168 ->178        -0.11764
     168 ->179        -0.38619
     168 ->180        -0.23751
     168 ->181         0.14379
     168 ->186        -0.19301
     168 ->188        -0.11154
     170 ->177        -0.18565
     170 ->179         0.10491
     170 ->180        -0.13252
     170 ->181         0.14852

 Excited State   5:      Singlet-A      3.0065 eV  412.38 nm  f=0.0221  <S**2>=0.000
     167 ->179        -0.10332
     168 ->177        -0.18546
     168 ->179        -0.11358
     168 ->180        -0.17648
     168 ->181         0.14347
     170 ->177         0.23990
     170 ->179        -0.33537
     170 ->180         0.13968
     170 ->181        -0.20421
     170 ->186        -0.20145

 The electronic state is 1-A.
 Alpha  occ. eigenvalues --   -1.86950  -1.82363  -1.81232  -1.73744  -1.71657
 Alpha  occ. eigenvalues --   -1.71253  -1.66042  -1.61105  -1.60014  -1.57371
 Alpha  occ. eigenvalues --   -1.55321  -1.52683  -1.49795  -1.48861  -1.47297
 Alpha  occ. eigenvalues --   -1.46324  -1.43905  -1.41673  -1.39672  -1.38524
 Alpha  occ. eigenvalues --   -1.35833  -1.35007  -1.34765  -1.32382  -1.28550
 Alpha  occ. eigenvalues --   -1.26680  -1.26476  -1.21397  -1.20097  -1.18120
 Alpha  occ. eigenvalues --   -1.17478  -1.16734  -1.15690  -1.15135  -1.14608
 Alpha  occ. eigenvalues --   -1.12842  -1.10820  -1.09523  -1.05482  -1.03775
 Alpha  occ. eigenvalues --   -1.02797  -1.01662  -0.98656  -0.98038  -0.97292
 Alpha  occ. eigenvalues --   -0.96555  -0.95308  -0.93773  -0.93328  -0.92909
 Alpha  occ. eigenvalues --   -0.91493  -0.90193  -0.89854  -0.89351  -0.87491
 Alpha  occ. eigenvalues --   -0.86736  -0.84912  -0.84550  -0.83004  -0.80827
 Alpha  occ. eigenvalues --   -0.80484  -0.79918  -0.77651  -0.76910  -0.76457
 Alpha  occ. eigenvalues --   -0.76085  -0.75475  -0.74821  -0.74445  -0.73774
 Alpha  occ. eigenvalues --   -0.73269  -0.73017  -0.71949  -0.71608  -0.70677
 Alpha  occ. eigenvalues --   -0.70559  -0.70056  -0.69131  -0.67726  -0.67378
 Alpha  occ. eigenvalues --   -0.67179  -0.66906  -0.66588  -0.66175  -0.66062
 Alpha  occ. eigenvalues --   -0.65658  -0.64866  -0.64292  -0.64124  -0.63671
 Alpha  occ. eigenvalues --   -0.63422  -0.63228  -0.62578  -0.62337  -0.61897
 Alpha  occ. eigenvalues --   -0.61368  -0.60914  -0.60421  -0.60049  -0.59848
 Alpha  occ. eigenvalues --   -0.59518  -0.59485  -0.59040  -0.58449  -0.57987
 Alpha  occ. eigenvalues --   -0.57934  -0.57754  -0.57473  -0.57110  -0.56838
 Alpha  occ. eigenvalues --   -0.56393  -0.55870  -0.55457  -0.54834  -0.54712
 Alpha  occ. eigenvalues --   -0.54246  -0.54168  -0.53711  -0.53432  -0.53041
 Alpha  occ. eigenvalues --   -0.52523  -0.52429  -0.52017  -0.51672  -0.51435
 Alpha  occ. eigenvalues --   -0.50918  -0.50731  -0.50704  -0.50477  -0.50248
 Alpha  occ. eigenvalues --   -0.49736  -0.49696  -0.49501  -0.48925  -0.48697
 Alpha  occ. eigenvalues --   -0.48610  -0.48449  -0.48058  -0.47711  -0.47538
 Alpha  occ. eigenvalues --   -0.47420  -0.47133  -0.47020  -0.46856  -0.46703
 Alpha  occ. eigenvalues --   -0.46563  -0.46431  -0.46099  -0.45780  -0.45612
 Alpha  occ. eigenvalues --   -0.45424  -0.45349  -0.45169  -0.44877  -0.44470
 Alpha  occ. eigenvalues --   -0.43549  -0.43295  -0.42959  -0.42634  -0.42166
 Alpha  occ. eigenvalues --   -0.41759  -0.41640  -0.39947  -0.39615  -0.38939
 Alpha  occ. eigenvalues --   -0.38839  -0.37044  -0.35841  -0.35550  -0.35345
 Alpha  occ. eigenvalues --   -0.33669  -0.33010  -0.32731  -0.31998  -0.26890
 Alpha  occ. eigenvalues --   -0.21492
 Alpha virt. eigenvalues --   -0.07771  -0.02832  -0.01080   0.00445   0.01605
 Alpha virt. eigenvalues --    0.01879   0.02573   0.02961   0.04424   0.04787
 Alpha virt. eigenvalues --    0.06081   0.06370   0.07113   0.07345   0.07850

 Mulliken charges:
               1
     1  Mg   0.433249
     2  C   -0.040455
     3  C   -0.067231
     4  C   -0.073693
     5  C   -0.088425
     6  N   -0.261430
     7  C    0.106516
     8  C    0.021520
     9  C   -0.012454
    10  C    0.108259
    11  C   -0.057519
    12  C   -0.022424
    13  C   -0.004290
    14  C    0.459960
    15  O   -0.510970
    16  O   -0.280061
    17  N   -0.304317
    18  C    0.091812
    19  C    0.033233
    20  C   -0.060613
    21  C    0.129795
    22  C   -0.052789
    23  C    0.334355
    24  O   -0.522460
    25  C   -0.037439
    26  N   -0.258541
    27  C    0.134803
    28  C    0.000510
    29  C    0.009581
    30  C    0.145964
    31  C   -0.059038
    32  C   -0.039239
    33  C   -0.057530
    34  N   -0.326368
    35  C    0.120652
    36  C    0.028278
    37  C   -0.032263
    38  C    0.098168
    39  C   -0.034272
    40  C    0.340713
    41  O   -0.508190
    42  C    0.054404
    43  C    0.488256
    44  O   -0.520542
    45  O   -0.273051
    46  C    0.075020
    47  C    0.120574
    48  C   -0.066385
    49  C   -0.031057
    50  C   -0.047640
    51  C   -0.021681
    52  C   -0.031526
    53  C   -0.045580
    54  C   -0.015314
    55  C   -0.060388
    56  C   -0.043243
    57  C   -0.049000
    58  C   -0.047339
    59  C   -0.012703
    60  C   -0.055902
    61  C   -0.025792
    62  C   -0.045199
    63  C   -0.035936
    64  C   -0.005878
    65  C   -0.061163
    66  C   -0.051120
    67  H    0.018456
    68  H    0.032950
    69  H    0.020280
    70  H    0.034052
    71  H    0.027808
    72  H    0.015439
    73  H    0.037020
    74  H    0.029898
    75  H    0.048710
    76  H    0.037651
    77  H    0.041497
    78  H    0.033425
    79  H    0.037295
    80  H    0.031057
    81  H    0.021168
    82  H    0.037888
    83  H    0.025764
    84  H    0.040279
    85  H    0.036142
    86  H    0.035414
    87  H    0.013581
    88  H    0.041984
    89  H    0.023335
    90  H    0.027818
    91  H    0.009849
    92  H    0.027615
    93  H    0.019691
    94  H    0.017241
    95  H    0.028621
    96  H    0.034354
    97  H    0.031680
    98  H    0.051888
    99  H    0.040961
   100  H    0.053844
   101  H    0.020931
   102  H    0.050497
   103  H    0.034172
   104  H    0.026325
   105  H    0.032273
   106  H    0.032635
   107  H    0.025756
   108  H    0.009239
   109  H    0.016222
   110  H    0.036911
   111  H    0.027180
   112  H    0.024130
   113  H    0.026727
   114  H    0.019471
   115  H    0.014521
   116  H    0.017741
   117  H    0.027960
   118  H    0.005335
   119  H    0.017165
   120  H    0.027006
   121  H    0.016699
   122  H    0.022106
   123  H    0.017769
   124  H    0.016842
   125  H    0.026637
   126  H    0.015055
   127  H    0.017681
   128  H    0.016746
   129  H    0.021318
   130  H    0.013181
   131  H    0.023588
   132  H    0.021683
   133  H    0.019569
   134  H    0.029803
   135  H    0.007866
   136  H    0.005789
   137  H    0.036802
   138  H    0.011646
   139  H    0.014196
   140  H    0.011002
 Sum of Mulliken charges =  -0.00000

 Dipole moment (field-independent basis, Debye):
    X=              4.9250    Y=              2.1978    Z=              0.0043  Tot=              5.3931
 N-N= 4.407920870081D+03 E-N= 0.000000000000D+00  KE=-9.489636774079D+03
 Leave Link  601 at Thu May  5 14:35:47 2022, MaxMem=  6710886400 cpu:               1.1 elap:               0.1
 (Enter /sw/apps/gaussian-16.0/g16/l9999.exe)
 1\1\GINC-BP1-COMPUTE123\SP\RZINDO CIS\STO-3G\C55H74Mg1N4O6\OF15641\05-
 May-2022\0\\#p ZINDO=(nstates=5)\\step_901_chromophore_27 ZINDO\\0,1\M
 g,0,-5.173,24.728,26.702\C,0,-3.596,26.615,29.197\C,0,-6.253,22.667,29
 .36\C,0,-6.624,22.796,24.601\C,0,-3.799,26.709,24.339\N,0,-4.942,24.68
 3,29.072\C,0,-4.375,25.629,29.859\C,0,-4.641,25.428,31.34\C,0,-5.289,2
 4.036,31.38\C,0,-5.58,23.811,29.834\C,0,-4.478,22.742,31.968\C,0,-5.45
 ,26.526,31.927\C,0,-4.965,27.041,33.305\C,0,-5.875,26.568,34.489\O,0,-

 Normal termination of Gaussian 16 at Thu May  5 14:35:47 2022.
