 Gaussian 16, Revision A.03,
 Gaussian 16:  ES64L-G16RevA.03 25-Dec-2016

 ------------------------------
 #p blyp/Def2SVP td=(nstates=5)
 ------------------------------

 --------------------------------------------------
 step_101_chromophore_19 TDDFT with blyp functional
 --------------------------------------------------
 Symbolic Z-matrix:
 Charge =  0 Multiplicity = 1

                         Standard orientation:
 ---------------------------------------------------------------------
 Center     Atomic      Atomic             Coordinates (Angstroms)
 Number     Number       Type             X           Y           Z
 ---------------------------------------------------------------------
      1         12           0       -5.843759    0.365103   -0.251426
      2          6           0       -3.726036   -2.360100   -0.253181
      3          6           0       -3.126733    2.478618    0.263351
      4          6           0       -7.974714    3.107256    0.325262
      5          6           0       -8.589951   -1.682958   -0.390355
      6          7           0       -3.733321    0.034839    0.090746
      7          6           0       -3.013898   -1.158567   -0.077956
      8          6           0       -1.466567   -1.006824    0.071467
      9          6           0       -1.385242    0.639223    0.186567
     10          6           0       -2.831022    1.083094    0.212483
     11          6           0       -0.647846    1.092240    1.503132
     12          6           0       -0.534680   -1.574622   -1.090615
     13          6           0        0.877757   -1.073213   -1.081325
     14          6           0        2.016970   -2.039671   -0.630873
     15          8           0        1.847528   -3.114735   -0.049017
     16          8           0        3.213573   -1.631659   -1.091139
     17          7           0       -5.588258    2.487463    0.074477
     18          6           0       -4.363070    3.135299    0.163571
     19          6           0       -4.583067    4.557071    0.235237
     20          6           0       -5.946286    4.752235    0.110375
     21          6           0       -6.602766    3.404565    0.157698
     22          6           0       -3.494936    5.587530    0.346983
     23          6           0       -6.713712    6.051507    0.090492
     24          8           0       -7.915424    6.092183    0.191545
     25          6           0       -6.005351    7.444681   -0.039262
     26          7           0       -7.958708    0.702893    0.073747
     27          6           0       -8.598529    1.872962    0.227720
     28          6           0      -10.119151    1.652049    0.444536
     29          6           0      -10.269551    0.166454    0.027515
     30          6           0       -8.899532   -0.291799   -0.137320
     31          6           0      -10.682533    1.900357    1.879386
     32          6           0      -11.087517   -0.095335   -1.173516
     33          6           0      -12.585011   -0.037077   -0.964715
     34          7           0       -6.143405   -1.583569   -0.250990
     35          6           0       -7.312568   -2.268223   -0.422514
     36          6           0       -6.962593   -3.665792   -0.749551
     37          6           0       -5.627951   -3.766586   -0.519598
     38          6           0       -5.144877   -2.455376   -0.326277
     39          6           0       -7.915352   -4.802737   -0.955743
     40          6           0       -4.509522   -4.683316   -0.545748
     41          8           0       -4.450572   -5.884931   -0.648001
     42          6           0       -3.244446   -3.802693   -0.261021
     43          6           0       -2.675109   -4.236071    1.050880
     44          8           0       -3.316386   -4.309805    2.068464
     45          8           0       -1.403532   -4.732576    0.823219
     46          6           0       -0.857270   -5.387472    2.034415
     47          6           0        4.351759   -2.425431   -0.622070
     48          6           0        5.743538   -1.785974   -0.907576
     49          6           0        6.409957   -0.796042   -0.263017
     50          6           0        5.875373    0.033015    0.875770
     51          6           0        7.880440   -0.501732   -0.683852
     52          6           0        8.066429    0.724039   -1.565656
     53          6           0        9.404698    1.504000   -1.174028
     54          6           0       10.144204    2.044306   -2.433197
     55          6           0        9.226156    2.873209   -3.357795
     56          6           0       10.858318    0.850048   -3.042917
     57          6           0       12.343475    1.079807   -2.816151
     58          6           0       12.972911   -0.041825   -1.879430
     59          6           0       13.884591    0.498777   -0.696597
     60          6           0       15.311174   -0.001248   -1.099634
     61          6           0       13.509840    0.080839    0.718753
     62          6           0       12.944201    1.183631    1.606586
     63          6           0       12.663159    0.623449    3.053503
     64          6           0       11.121114    0.635942    3.485512
     65          6           0       10.774711    1.621043    4.564074
     66          6           0       10.548241   -0.708635    3.981886
     67          1           0       -2.212680    3.076330    0.270693
     68          1           0       -8.696051    3.912308    0.482003
     69          1           0       -9.435630   -2.356965   -0.540938
     70          1           0       -1.298391   -1.650456    0.934297
     71          1           0       -0.821720    1.063386   -0.644412
     72          1           0       -1.186849    1.939913    1.926585
     73          1           0        0.387379    1.395789    1.347087
     74          1           0       -0.671419    0.289674    2.240399
     75          1           0       -0.896599   -1.203784   -2.049451
     76          1           0       -0.639871   -2.659149   -1.080395
     77          1           0        1.010782   -0.397964   -0.236771
     78          1           0        1.129208   -0.582763   -2.021636
     79          1           0       -2.508743    5.190606    0.587648
     80          1           0       -3.705581    6.248761    1.188519
     81          1           0       -3.365873    6.122730   -0.593295
     82          1           0       -5.270923    7.317387   -0.834874
     83          1           0       -5.507875    7.649011    0.908076
     84          1           0       -6.539148    8.325811   -0.396741
     85          1           0      -10.769712    2.284885   -0.159128
     86          1           0      -10.723897   -0.426652    0.821439
     87          1           0       -9.911065    1.965067    2.645695
     88          1           0      -11.504049    1.237905    2.153118
     89          1           0      -11.072783    2.907153    2.025262
     90          1           0      -10.944870   -1.058256   -1.663978
     91          1           0      -10.937036    0.762476   -1.829660
     92          1           0      -12.978639    0.276991   -1.931781
     93          1           0      -12.844653    0.470330   -0.035901
     94          1           0      -12.954329   -1.060653   -0.898238
     95          1           0       -8.890802   -4.459122   -1.300464
     96          1           0       -7.949108   -5.318744    0.003533
     97          1           0       -7.432323   -5.496210   -1.643993
     98          1           0       -2.485083   -4.024418   -1.011167
     99          1           0       -1.290444   -5.073332    2.984406
    100          1           0        0.230866   -5.345005    2.059904
    101          1           0       -1.065130   -6.451220    1.921646
    102          1           0        4.245183   -3.464658   -0.929956
    103          1           0        4.260996   -2.622702    0.446693
    104          1           0        6.346996   -2.551420   -1.396628
    105          1           0        6.700614   -0.020958    1.586011
    106          1           0        4.960676   -0.421921    1.256688
    107          1           0        5.565663    0.998650    0.477119
    108          1           0        8.229049   -1.321089   -1.311494
    109          1           0        8.516748   -0.380184    0.192685
    110          1           0        7.250116    1.432014   -1.425119
    111          1           0        8.020610    0.376169   -2.597892
    112          1           0       10.132744    0.897986   -0.634727
    113          1           0        9.090335    2.229930   -0.424629
    114          1           0       10.898000    2.744836   -2.074111
    115          1           0        8.187921    2.590111   -3.188570
    116          1           0        9.447546    2.852534   -4.425241
    117          1           0        9.253333    3.922519   -3.064340
    118          1           0       10.629505    0.938827   -4.104337
    119          1           0       10.497185   -0.087208   -2.619659
    120          1           0       12.582020    2.079043   -2.452643
    121          1           0       12.894031    1.070915   -3.757506
    122          1           0       13.401121   -0.806192   -2.527708
    123          1           0       12.184056   -0.608148   -1.383660
    124          1           0       13.809618    1.580770   -0.805413
    125          1           0       15.846353    0.943895   -1.195833
    126          1           0       15.410045   -0.514828   -2.056119
    127          1           0       15.842423   -0.587381   -0.350160
    128          1           0       14.410340   -0.296394    1.202620
    129          1           0       12.933340   -0.843401    0.739317
    130          1           0       12.095993    1.538569    1.021076
    131          1           0       13.552692    2.074498    1.760062
    132          1           0       13.321932    1.170391    3.727840
    133          1           0       13.003184   -0.407994    3.151855
    134          1           0       10.417401    0.809490    2.671282
    135          1           0       10.614268    1.143447    5.529733
    136          1           0       10.074394    2.404872    4.276826
    137          1           0       11.672611    2.148399    4.885699
    138          1           0       10.941174   -1.556786    3.420729
    139          1           0        9.488014   -0.747609    3.732159
    140          1           0       10.724518   -0.968812    5.026543
 ---------------------------------------------------------------------

 SCF Done:  E(RB-LYP) =  -3007.35917837     A.U. after   21 cycles

 Excitation energies and oscillator strengths:

 Excited State   1:      Singlet-A      1.7786 eV  697.07 nm  f=0.2882  <S**2>=0.000
     245 -> 248        0.19350
     246 -> 247        0.69189
     246 <- 247       -0.15218
 This state for optimization and/or second-order correction.
 Total Energy, E(TD-HF/TD-DFT) =  -3007.29381449
 Copying the excited state density for this state as the 1-particle RhoCI density.

 Excited State   2:      Singlet-A      1.8763 eV  660.79 nm  f=0.0025  <S**2>=0.000
     244 -> 247        0.68537
     245 -> 247       -0.16464

 Excited State   3:      Singlet-A      2.0536 eV  603.75 nm  f=0.0551  <S**2>=0.000
     243 -> 247       -0.14300
     244 -> 247        0.15804
     245 -> 247        0.60162
     246 -> 248       -0.28827

 Excited State   4:      Singlet-A      2.1376 eV  580.02 nm  f=0.0033  <S**2>=0.000
     243 -> 247        0.69139
     245 -> 247        0.11480

 Excited State   5:      Singlet-A      2.6302 eV  471.39 nm  f=0.0005  <S**2>=0.000
     241 -> 247        0.70693

 The electronic state is 1-A.
 Alpha  occ. eigenvalues --  -46.26466 -18.82688 -18.81944 -18.76743 -18.76448
 Alpha  occ. eigenvalues --  -18.75732 -18.75034 -14.03535 -14.02930 -14.00882
 Alpha  occ. eigenvalues --  -14.00683 -10.04260 -10.03171  -9.99564  -9.99297
 Alpha  occ. eigenvalues --   -9.98101  -9.96802  -9.96629  -9.96468  -9.96247
 Alpha  occ. eigenvalues --   -9.95856  -9.95760  -9.95394  -9.95264  -9.94963
 Alpha  occ. eigenvalues --   -9.94879  -9.94294  -9.94041  -9.94031  -9.93892
 Alpha  occ. eigenvalues --   -9.93377  -9.93277  -9.93161  -9.93071  -9.92985
 Alpha  occ. eigenvalues --   -9.92940  -9.92934  -9.92930  -9.92909  -9.92595
 Alpha  occ. eigenvalues --   -9.92545  -9.92476  -9.92469  -9.92401  -9.92272
 Alpha  occ. eigenvalues --   -9.92182  -9.92083  -9.92033  -9.92023  -9.91969
 Alpha  occ. eigenvalues --   -9.91931  -9.91889  -9.91769  -9.91714  -9.91633
 Alpha  occ. eigenvalues --   -9.91572  -9.91505  -9.91236  -9.91127  -9.91090
 Alpha  occ. eigenvalues --   -9.90916  -9.90885  -9.90877  -9.90577  -9.90498
 Alpha  occ. eigenvalues --   -9.90231  -2.91224  -1.71635  -1.71089  -1.70961
 Alpha  occ. eigenvalues --   -0.98647  -0.97222  -0.92019  -0.91946  -0.89963
 Alpha  occ. eigenvalues --   -0.89483  -0.87019  -0.86013  -0.84729  -0.83929
 Alpha  occ. eigenvalues --   -0.75107  -0.74048  -0.73771  -0.73042  -0.72526
 Alpha  occ. eigenvalues --   -0.72259  -0.71418  -0.70968  -0.70725  -0.70212
 Alpha  occ. eigenvalues --   -0.69887  -0.68853  -0.68169  -0.67526  -0.67032
 Alpha  occ. eigenvalues --   -0.66529  -0.65804  -0.65058  -0.64473  -0.64360
 Alpha  occ. eigenvalues --   -0.63659  -0.62481  -0.62354  -0.62074  -0.60720
 Alpha  occ. eigenvalues --   -0.60256  -0.60117  -0.59679  -0.59453  -0.59282
 Alpha  occ. eigenvalues --   -0.58447  -0.57270  -0.56737  -0.55761  -0.54341
 Alpha  occ. eigenvalues --   -0.53920  -0.53743  -0.53098  -0.52585  -0.51990
 Alpha  occ. eigenvalues --   -0.51328  -0.50899  -0.50431  -0.50421  -0.50322
 Alpha  occ. eigenvalues --   -0.49839  -0.49798  -0.48375  -0.47976  -0.46607
 Alpha  occ. eigenvalues --   -0.46136  -0.45855  -0.45486  -0.45327  -0.44302
 Alpha  occ. eigenvalues --   -0.44038  -0.43915  -0.43233  -0.42912  -0.41988
 Alpha  occ. eigenvalues --   -0.41947  -0.41599  -0.41439  -0.41065  -0.40969
 Alpha  occ. eigenvalues --   -0.40771  -0.40615  -0.40573  -0.40403  -0.40395
 Alpha  occ. eigenvalues --   -0.40041  -0.39791  -0.39406  -0.39317  -0.39196
 Alpha  occ. eigenvalues --   -0.39045  -0.38739  -0.38564  -0.38542  -0.38231
 Alpha  occ. eigenvalues --   -0.38133  -0.37713  -0.37614  -0.37426  -0.37282
 Alpha  occ. eigenvalues --   -0.36951  -0.36565  -0.36464  -0.36405  -0.36150
 Alpha  occ. eigenvalues --   -0.36084  -0.35912  -0.35737  -0.35608  -0.35432
 Alpha  occ. eigenvalues --   -0.35243  -0.34994  -0.34851  -0.34748  -0.34616
 Alpha  occ. eigenvalues --   -0.34589  -0.34576  -0.34358  -0.34244  -0.34134
 Alpha  occ. eigenvalues --   -0.33889  -0.33865  -0.33544  -0.33381  -0.33274
 Alpha  occ. eigenvalues --   -0.33011  -0.32828  -0.32429  -0.32325  -0.32232
 Alpha  occ. eigenvalues --   -0.31871  -0.31688  -0.31653  -0.31588  -0.31360
 Alpha  occ. eigenvalues --   -0.31271  -0.31124  -0.30831  -0.30796  -0.30633
 Alpha  occ. eigenvalues --   -0.30433  -0.30353  -0.30264  -0.30127  -0.30014
 Alpha  occ. eigenvalues --   -0.29967  -0.29807  -0.29504  -0.29365  -0.29076
 Alpha  occ. eigenvalues --   -0.28984  -0.28446  -0.28302  -0.28208  -0.27790
 Alpha  occ. eigenvalues --   -0.27583  -0.27395  -0.27192  -0.27156  -0.26795
 Alpha  occ. eigenvalues --   -0.26321  -0.26098  -0.25711  -0.25569  -0.25342
 Alpha  occ. eigenvalues --   -0.24840  -0.24582  -0.24398  -0.23815  -0.23261
 Alpha  occ. eigenvalues --   -0.22951  -0.22325  -0.22163  -0.21495  -0.21082
 Alpha  occ. eigenvalues --   -0.20734  -0.20363  -0.18808  -0.17891  -0.17112
 Alpha  occ. eigenvalues --   -0.15249
 Alpha virt. eigenvalues --   -0.11069  -0.06713  -0.05715  -0.04343  -0.03455
 Alpha virt. eigenvalues --   -0.02456  -0.02153  -0.02020  -0.01722   0.00484
 Alpha virt. eigenvalues --    0.00680   0.01425   0.02201   0.02507   0.02642

 Mulliken charges:
               1
     1  Mg   0.711855
     2  C    0.008023
     3  C   -0.085757
     4  C   -0.035521
     5  C   -0.101154
     6  N   -0.251252
     7  C   -0.081148
     8  C    0.020770
     9  C   -0.026639
    10  C    0.051690
    11  C    0.107437
    12  C    0.145149
    13  C    0.109840
    14  C    0.050635
    15  O   -0.207678
    16  O   -0.242829
    17  N   -0.266515
    18  C    0.163528
    19  C   -0.137803
    20  C    0.038980
    21  C    0.103070
    22  C    0.180646
    23  C   -0.083866
    24  O   -0.150429
    25  C    0.117617
    26  N   -0.210006
    27  C    0.012446
    28  C    0.040910
    29  C    0.062062
    30  C    0.042964
    31  C    0.101860
    32  C    0.062013
    33  C    0.085349
    34  N   -0.272023
    35  C    0.130740
    36  C   -0.224030
    37  C    0.114689
    38  C    0.075561
    39  C    0.174685
    40  C   -0.048265
    41  O   -0.110663
    42  C    0.058827
    43  C    0.104420
    44  O   -0.161991
    45  O   -0.269531
    46  C    0.205960
    47  C    0.254392
    48  C   -0.047247
    49  C   -0.170817
    50  C    0.173783
    51  C    0.133970
    52  C    0.041367
    53  C    0.033700
    54  C   -0.072679
    55  C    0.116182
    56  C    0.145376
    57  C    0.068822
    58  C    0.075733
    59  C   -0.060461
    60  C    0.094597
    61  C    0.108511
    62  C    0.051849
    63  C    0.137762
    64  C   -0.079414
    65  C    0.125160
    66  C    0.068490
    67  H   -0.060156
    68  H   -0.047342
    69  H   -0.061759
    70  H    0.004055
    71  H   -0.006871
    72  H   -0.011419
    73  H   -0.005365
    74  H   -0.006229
    75  H   -0.039258
    76  H    0.006219
    77  H   -0.001036
    78  H    0.008338
    79  H   -0.026666
    80  H   -0.002441
    81  H    0.010352
    82  H   -0.016174
    83  H    0.008728
    84  H   -0.008500
    85  H   -0.023910
    86  H   -0.033053
    87  H   -0.009613
    88  H   -0.000371
    89  H   -0.017452
    90  H   -0.018847
    91  H   -0.027974
    92  H   -0.011420
    93  H   -0.004556
    94  H   -0.025083
    95  H   -0.005585
    96  H    0.017127
    97  H    0.004839
    98  H   -0.009298
    99  H    0.025181
   100  H    0.019937
   101  H    0.008142
   102  H   -0.015180
   103  H   -0.013815
   104  H   -0.030203
   105  H    0.009741
   106  H   -0.016048
   107  H    0.012521
   108  H   -0.030450
   109  H   -0.022062
   110  H   -0.015318
   111  H   -0.013253
   112  H   -0.010235
   113  H   -0.034737
   114  H   -0.039561
   115  H   -0.022514
   116  H   -0.015256
   117  H   -0.026869
   118  H   -0.050708
   119  H   -0.011343
   120  H   -0.030273
   121  H   -0.039403
   122  H   -0.028368
   123  H   -0.048750
   124  H   -0.032030
   125  H   -0.023497
   126  H   -0.011892
   127  H   -0.015782
   128  H   -0.047162
   129  H   -0.035823
   130  H   -0.020369
   131  H   -0.027188
   132  H   -0.031281
   133  H   -0.035940
   134  H   -0.031375
   135  H   -0.026144
   136  H   -0.006620
   137  H   -0.046469
   138  H   -0.033992
   139  H   -0.018461
   140  H   -0.010132
 Sum of Mulliken charges =  -0.00000

 Dipole moment (field-independent basis, Debye):
    X=              4.2925    Y=              3.6919    Z=             -1.0954  Tot=              5.7668
 Quadrupole moment (field-independent basis, Debye-Ang):
   XX=           -371.6517   YY=           -436.2961   ZZ=           -404.3323
   XY=              9.0558   XZ=             12.5840   YZ=             -1.1151

 Normal termination of Gaussian 16 at Wed Apr 27 01:04:38 2022.
