 Gaussian 16, Revision A.03,
 Gaussian 16:  ES64L-G16RevA.03 25-Dec-2016

 -----------------------------------
 #p cam-b3lyp/Def2SVP td=(nstates=5)
 -----------------------------------

 -------------------------------------------------------
 step_101_chromophore_19 TDDFT with cam-b3lyp functional
 -------------------------------------------------------
 Symbolic Z-matrix:
 Charge =  0 Multiplicity = 1

                         Standard orientation:
 ---------------------------------------------------------------------
 Center     Atomic      Atomic             Coordinates (Angstroms)
 Number     Number       Type             X           Y           Z
 ---------------------------------------------------------------------
      1         12           0       -5.843759    0.365103   -0.251426
      2          6           0       -3.726036   -2.360100   -0.253181
      3          6           0       -3.126733    2.478618    0.263351
      4          6           0       -7.974714    3.107256    0.325262
      5          6           0       -8.589951   -1.682958   -0.390355
      6          7           0       -3.733321    0.034839    0.090746
      7          6           0       -3.013898   -1.158567   -0.077956
      8          6           0       -1.466567   -1.006824    0.071467
      9          6           0       -1.385242    0.639223    0.186567
     10          6           0       -2.831022    1.083094    0.212483
     11          6           0       -0.647846    1.092240    1.503132
     12          6           0       -0.534680   -1.574622   -1.090615
     13          6           0        0.877757   -1.073213   -1.081325
     14          6           0        2.016970   -2.039671   -0.630873
     15          8           0        1.847528   -3.114735   -0.049017
     16          8           0        3.213573   -1.631659   -1.091139
     17          7           0       -5.588258    2.487463    0.074477
     18          6           0       -4.363070    3.135299    0.163571
     19          6           0       -4.583067    4.557071    0.235237
     20          6           0       -5.946286    4.752235    0.110375
     21          6           0       -6.602766    3.404565    0.157698
     22          6           0       -3.494936    5.587530    0.346983
     23          6           0       -6.713712    6.051507    0.090492
     24          8           0       -7.915424    6.092183    0.191545
     25          6           0       -6.005351    7.444681   -0.039262
     26          7           0       -7.958708    0.702893    0.073747
     27          6           0       -8.598529    1.872962    0.227720
     28          6           0      -10.119151    1.652049    0.444536
     29          6           0      -10.269551    0.166454    0.027515
     30          6           0       -8.899532   -0.291799   -0.137320
     31          6           0      -10.682533    1.900357    1.879386
     32          6           0      -11.087517   -0.095335   -1.173516
     33          6           0      -12.585011   -0.037077   -0.964715
     34          7           0       -6.143405   -1.583569   -0.250990
     35          6           0       -7.312568   -2.268223   -0.422514
     36          6           0       -6.962593   -3.665792   -0.749551
     37          6           0       -5.627951   -3.766586   -0.519598
     38          6           0       -5.144877   -2.455376   -0.326277
     39          6           0       -7.915352   -4.802737   -0.955743
     40          6           0       -4.509522   -4.683316   -0.545748
     41          8           0       -4.450572   -5.884931   -0.648001
     42          6           0       -3.244446   -3.802693   -0.261021
     43          6           0       -2.675109   -4.236071    1.050880
     44          8           0       -3.316386   -4.309805    2.068464
     45          8           0       -1.403532   -4.732576    0.823219
     46          6           0       -0.857270   -5.387472    2.034415
     47          6           0        4.351759   -2.425431   -0.622070
     48          6           0        5.743538   -1.785974   -0.907576
     49          6           0        6.409957   -0.796042   -0.263017
     50          6           0        5.875373    0.033015    0.875770
     51          6           0        7.880440   -0.501732   -0.683852
     52          6           0        8.066429    0.724039   -1.565656
     53          6           0        9.404698    1.504000   -1.174028
     54          6           0       10.144204    2.044306   -2.433197
     55          6           0        9.226156    2.873209   -3.357795
     56          6           0       10.858318    0.850048   -3.042917
     57          6           0       12.343475    1.079807   -2.816151
     58          6           0       12.972911   -0.041825   -1.879430
     59          6           0       13.884591    0.498777   -0.696597
     60          6           0       15.311174   -0.001248   -1.099634
     61          6           0       13.509840    0.080839    0.718753
     62          6           0       12.944201    1.183631    1.606586
     63          6           0       12.663159    0.623449    3.053503
     64          6           0       11.121114    0.635942    3.485512
     65          6           0       10.774711    1.621043    4.564074
     66          6           0       10.548241   -0.708635    3.981886
     67          1           0       -2.212680    3.076330    0.270693
     68          1           0       -8.696051    3.912308    0.482003
     69          1           0       -9.435630   -2.356965   -0.540938
     70          1           0       -1.298391   -1.650456    0.934297
     71          1           0       -0.821720    1.063386   -0.644412
     72          1           0       -1.186849    1.939913    1.926585
     73          1           0        0.387379    1.395789    1.347087
     74          1           0       -0.671419    0.289674    2.240399
     75          1           0       -0.896599   -1.203784   -2.049451
     76          1           0       -0.639871   -2.659149   -1.080395
     77          1           0        1.010782   -0.397964   -0.236771
     78          1           0        1.129208   -0.582763   -2.021636
     79          1           0       -2.508743    5.190606    0.587648
     80          1           0       -3.705581    6.248761    1.188519
     81          1           0       -3.365873    6.122730   -0.593295
     82          1           0       -5.270923    7.317387   -0.834874
     83          1           0       -5.507875    7.649011    0.908076
     84          1           0       -6.539148    8.325811   -0.396741
     85          1           0      -10.769712    2.284885   -0.159128
     86          1           0      -10.723897   -0.426652    0.821439
     87          1           0       -9.911065    1.965067    2.645695
     88          1           0      -11.504049    1.237905    2.153118
     89          1           0      -11.072783    2.907153    2.025262
     90          1           0      -10.944870   -1.058256   -1.663978
     91          1           0      -10.937036    0.762476   -1.829660
     92          1           0      -12.978639    0.276991   -1.931781
     93          1           0      -12.844653    0.470330   -0.035901
     94          1           0      -12.954329   -1.060653   -0.898238
     95          1           0       -8.890802   -4.459122   -1.300464
     96          1           0       -7.949108   -5.318744    0.003533
     97          1           0       -7.432323   -5.496210   -1.643993
     98          1           0       -2.485083   -4.024418   -1.011167
     99          1           0       -1.290444   -5.073332    2.984406
    100          1           0        0.230866   -5.345005    2.059904
    101          1           0       -1.065130   -6.451220    1.921646
    102          1           0        4.245183   -3.464658   -0.929956
    103          1           0        4.260996   -2.622702    0.446693
    104          1           0        6.346996   -2.551420   -1.396628
    105          1           0        6.700614   -0.020958    1.586011
    106          1           0        4.960676   -0.421921    1.256688
    107          1           0        5.565663    0.998650    0.477119
    108          1           0        8.229049   -1.321089   -1.311494
    109          1           0        8.516748   -0.380184    0.192685
    110          1           0        7.250116    1.432014   -1.425119
    111          1           0        8.020610    0.376169   -2.597892
    112          1           0       10.132744    0.897986   -0.634727
    113          1           0        9.090335    2.229930   -0.424629
    114          1           0       10.898000    2.744836   -2.074111
    115          1           0        8.187921    2.590111   -3.188570
    116          1           0        9.447546    2.852534   -4.425241
    117          1           0        9.253333    3.922519   -3.064340
    118          1           0       10.629505    0.938827   -4.104337
    119          1           0       10.497185   -0.087208   -2.619659
    120          1           0       12.582020    2.079043   -2.452643
    121          1           0       12.894031    1.070915   -3.757506
    122          1           0       13.401121   -0.806192   -2.527708
    123          1           0       12.184056   -0.608148   -1.383660
    124          1           0       13.809618    1.580770   -0.805413
    125          1           0       15.846353    0.943895   -1.195833
    126          1           0       15.410045   -0.514828   -2.056119
    127          1           0       15.842423   -0.587381   -0.350160
    128          1           0       14.410340   -0.296394    1.202620
    129          1           0       12.933340   -0.843401    0.739317
    130          1           0       12.095993    1.538569    1.021076
    131          1           0       13.552692    2.074498    1.760062
    132          1           0       13.321932    1.170391    3.727840
    133          1           0       13.003184   -0.407994    3.151855
    134          1           0       10.417401    0.809490    2.671282
    135          1           0       10.614268    1.143447    5.529733
    136          1           0       10.074394    2.404872    4.276826
    137          1           0       11.672611    2.148399    4.885699
    138          1           0       10.941174   -1.556786    3.420729
    139          1           0        9.488014   -0.747609    3.732159
    140          1           0       10.724518   -0.968812    5.026543
 ---------------------------------------------------------------------

 SCF Done:  E(RCAM-B3LYP) =  -3007.15504653     A.U. after   17 cycles

 Excitation energies and oscillator strengths:

 Excited State   1:      Singlet-A      1.6605 eV  746.67 nm  f=0.3568  <S**2>=0.000
     245 -> 248        0.18179
     246 -> 247        0.68623
     245 <- 248        0.11184
 This state for optimization and/or second-order correction.
 Total Energy, E(TD-HF/TD-DFT) =  -3007.09402486
 Copying the excited state density for this state as the 1-particle RhoCI density.

 Excited State   2:      Singlet-A      2.2686 eV  546.52 nm  f=0.0592  <S**2>=0.000
     245 -> 247        0.60777
     246 -> 248       -0.35345

 Excited State   3:      Singlet-A      3.4489 eV  359.49 nm  f=0.6940  <S**2>=0.000
     244 -> 247        0.27209
     245 -> 247        0.30816
     246 -> 248        0.56279
     245 <- 247       -0.10633

 Excited State   4:      Singlet-A      3.5551 eV  348.75 nm  f=0.1299  <S**2>=0.000
     243 -> 247        0.32229
     243 -> 249       -0.20403
     243 -> 251       -0.16662
     244 -> 247        0.47139
     245 -> 247       -0.12259
     246 -> 248       -0.16637

 Excited State   5:      Singlet-A      3.6192 eV  342.58 nm  f=0.0781  <S**2>=0.000
     239 -> 247       -0.12679
     240 -> 249       -0.10363
     243 -> 247        0.45713
     243 -> 249       -0.13285
     243 -> 251       -0.12276
     244 -> 247       -0.39009
     246 -> 248        0.13178

 The electronic state is 1-A.
 Alpha  occ. eigenvalues --  -46.87964 -19.25572 -19.24842 -19.19633 -19.19553
 Alpha  occ. eigenvalues --  -19.18908 -19.18329 -14.42454 -14.41794 -14.39364
 Alpha  occ. eigenvalues --  -14.39064 -10.39542 -10.38576 -10.34812 -10.34560
 Alpha  occ. eigenvalues --  -10.32241 -10.31341 -10.31179 -10.30607 -10.30415
 Alpha  occ. eigenvalues --  -10.30238 -10.30199 -10.29620 -10.29567 -10.29124
 Alpha  occ. eigenvalues --  -10.28969 -10.28546 -10.28261 -10.28061 -10.27884
 Alpha  occ. eigenvalues --  -10.27781 -10.27591 -10.27313 -10.27238 -10.27077
 Alpha  occ. eigenvalues --  -10.27056 -10.27031 -10.26975 -10.26719 -10.26690
 Alpha  occ. eigenvalues --  -10.26448 -10.26312 -10.26296 -10.26227 -10.26106
 Alpha  occ. eigenvalues --  -10.25881 -10.25826 -10.25780 -10.25705 -10.25699
 Alpha  occ. eigenvalues --  -10.25673 -10.25650 -10.25649 -10.25473 -10.25422
 Alpha  occ. eigenvalues --  -10.25408 -10.25078 -10.24886 -10.24804 -10.24767
 Alpha  occ. eigenvalues --  -10.24532 -10.24481 -10.24475 -10.24241 -10.24163
 Alpha  occ. eigenvalues --  -10.24048  -3.16630  -1.91516  -1.91065  -1.90965
 Alpha  occ. eigenvalues --   -1.17088  -1.15774  -1.10469  -1.10435  -1.07880
 Alpha  occ. eigenvalues --   -1.07296  -1.04677  -1.03641  -1.02347  -1.01452
 Alpha  occ. eigenvalues --   -0.92222  -0.90934  -0.90479  -0.89833  -0.89287
 Alpha  occ. eigenvalues --   -0.88966  -0.88118  -0.87534  -0.87413  -0.86728
 Alpha  occ. eigenvalues --   -0.86455  -0.85164  -0.84442  -0.83627  -0.83145
 Alpha  occ. eigenvalues --   -0.82604  -0.81775  -0.80971  -0.80319  -0.80160
 Alpha  occ. eigenvalues --   -0.79691  -0.78111  -0.77943  -0.77780  -0.76075
 Alpha  occ. eigenvalues --   -0.75624  -0.75460  -0.74930  -0.74710  -0.74523
 Alpha  occ. eigenvalues --   -0.73529  -0.72265  -0.71638  -0.70575  -0.68956
 Alpha  occ. eigenvalues --   -0.68445  -0.68295  -0.67531  -0.67050  -0.66279
 Alpha  occ. eigenvalues --   -0.65496  -0.64928  -0.64533  -0.64486  -0.64162
 Alpha  occ. eigenvalues --   -0.63766  -0.63589  -0.62186  -0.61718  -0.60213
 Alpha  occ. eigenvalues --   -0.59654  -0.59407  -0.58828  -0.58818  -0.57841
 Alpha  occ. eigenvalues --   -0.57492  -0.57391  -0.56421  -0.56044  -0.55010
 Alpha  occ. eigenvalues --   -0.54885  -0.54680  -0.54579  -0.54121  -0.53717
 Alpha  occ. eigenvalues --   -0.53573  -0.53419  -0.53228  -0.53168  -0.53025
 Alpha  occ. eigenvalues --   -0.52928  -0.52683  -0.52183  -0.52022  -0.51933
 Alpha  occ. eigenvalues --   -0.51450  -0.51388  -0.51278  -0.51097  -0.50838
 Alpha  occ. eigenvalues --   -0.50347  -0.50059  -0.49954  -0.49775  -0.49458
 Alpha  occ. eigenvalues --   -0.49377  -0.49162  -0.49010  -0.48733  -0.48541
 Alpha  occ. eigenvalues --   -0.48164  -0.48069  -0.47895  -0.47746  -0.47617
 Alpha  occ. eigenvalues --   -0.47436  -0.47071  -0.46860  -0.46672  -0.46630
 Alpha  occ. eigenvalues --   -0.46461  -0.46357  -0.46261  -0.46178  -0.45923
 Alpha  occ. eigenvalues --   -0.45732  -0.45587  -0.45295  -0.45186  -0.44923
 Alpha  occ. eigenvalues --   -0.44886  -0.44367  -0.44205  -0.44075  -0.43684
 Alpha  occ. eigenvalues --   -0.43587  -0.43352  -0.43086  -0.43060  -0.43004
 Alpha  occ. eigenvalues --   -0.42794  -0.42587  -0.42460  -0.42364  -0.42203
 Alpha  occ. eigenvalues --   -0.42122  -0.41798  -0.41770  -0.41601  -0.41199
 Alpha  occ. eigenvalues --   -0.41127  -0.40947  -0.40864  -0.40532  -0.40328
 Alpha  occ. eigenvalues --   -0.40062  -0.39388  -0.39337  -0.39104  -0.38673
 Alpha  occ. eigenvalues --   -0.38463  -0.38384  -0.37984  -0.37940  -0.37579
 Alpha  occ. eigenvalues --   -0.37509  -0.37015  -0.36760  -0.36461  -0.36314
 Alpha  occ. eigenvalues --   -0.35910  -0.35331  -0.34903  -0.34573  -0.34213
 Alpha  occ. eigenvalues --   -0.34015  -0.33343  -0.32816  -0.31180  -0.30777
 Alpha  occ. eigenvalues --   -0.30599  -0.30507  -0.30040  -0.29679  -0.23949
 Alpha  occ. eigenvalues --   -0.20373
 Alpha virt. eigenvalues --   -0.08022  -0.01669   0.00875   0.02468   0.02898
 Alpha virt. eigenvalues --    0.03910   0.05270   0.05716   0.05998   0.06372
 Alpha virt. eigenvalues --    0.07286   0.08414   0.08703   0.08867   0.09134

 Mulliken charges:
               1
     1  Mg   0.845151
     2  C   -0.023671
     3  C   -0.097751
     4  C   -0.052532
     5  C   -0.103350
     6  N   -0.321814
     7  C   -0.040249
     8  C   -0.016646
     9  C   -0.089206
    10  C    0.072329
    11  C    0.049941
    12  C    0.095869
    13  C    0.036634
    14  C    0.135362
    15  O   -0.251031
    16  O   -0.305563
    17  N   -0.351884
    18  C    0.170760
    19  C   -0.144941
    20  C   -0.030324
    21  C    0.126720
    22  C    0.121458
    23  C   -0.007938
    24  O   -0.190608
    25  C    0.044360
    26  N   -0.280052
    27  C    0.030528
    28  C   -0.012881
    29  C   -0.004961
    30  C    0.062311
    31  C    0.046652
    32  C    0.006159
    33  C    0.024845
    34  N   -0.365824
    35  C    0.132567
    36  C   -0.217901
    37  C    0.038385
    38  C    0.114313
    39  C    0.121413
    40  C    0.048574
    41  O   -0.149045
    42  C   -0.015776
    43  C    0.193320
    44  O   -0.199207
    45  O   -0.333289
    46  C    0.164987
    47  C    0.221557
    48  C   -0.074838
    49  C   -0.184547
    50  C    0.114711
    51  C    0.079426
    52  C   -0.014959
    53  C   -0.004478
    54  C   -0.129375
    55  C    0.057452
    56  C    0.083711
    57  C    0.015312
    58  C    0.027353
    59  C   -0.118840
    60  C    0.038417
    61  C    0.054298
    62  C    0.005452
    63  C    0.078915
    64  C   -0.137613
    65  C    0.061361
    66  C    0.014274
    67  H   -0.026564
    68  H   -0.005714
    69  H   -0.026698
    70  H    0.034633
    71  H    0.026665
    72  H    0.015291
    73  H    0.018107
    74  H    0.020039
    75  H   -0.006268
    76  H    0.035655
    77  H    0.026496
    78  H    0.043026
    79  H    0.003094
    80  H    0.023899
    81  H    0.036779
    82  H    0.009863
    83  H    0.034537
    84  H    0.026319
    85  H    0.010749
    86  H    0.003880
    87  H    0.017011
    88  H    0.021753
    89  H    0.007580
    90  H    0.010407
    91  H    0.000231
    92  H    0.014224
    93  H    0.016195
    94  H   -0.000616
    95  H    0.017343
    96  H    0.043666
    97  H    0.031419
    98  H    0.035543
    99  H    0.051026
   100  H    0.042887
   101  H    0.030864
   102  H    0.017006
   103  H    0.015323
   104  H    0.000323
   105  H    0.030403
   106  H    0.008564
   107  H    0.035789
   108  H   -0.000669
   109  H    0.004466
   110  H    0.010960
   111  H    0.014275
   112  H    0.008949
   113  H   -0.006348
   114  H   -0.006719
   115  H    0.001315
   116  H    0.009412
   117  H   -0.001344
   118  H   -0.018128
   119  H    0.013650
   120  H   -0.003552
   121  H   -0.009052
   122  H    0.000679
   123  H   -0.022470
   124  H   -0.000786
   125  H    0.000904
   126  H    0.011645
   127  H    0.008092
   128  H   -0.017455
   129  H   -0.007810
   130  H    0.001105
   131  H    0.001645
   132  H   -0.001856
   133  H   -0.007051
   134  H   -0.002807
   135  H   -0.000595
   136  H    0.017880
   137  H   -0.020374
   138  H   -0.009605
   139  H    0.004569
   140  H    0.012560
 Sum of Mulliken charges =  -0.00000

 Dipole moment (field-independent basis, Debye):
    X=              4.4963    Y=              4.2943    Z=             -1.0993  Tot=              6.3140
 Quadrupole moment (field-independent basis, Debye-Ang):
   XX=           -370.9647   YY=           -431.6285   ZZ=           -404.1226
   XY=              6.3054   XZ=             13.9384   YZ=             -1.1382

 Normal termination of Gaussian 16 at Wed Apr 27 00:07:29 2022.
