 Gaussian 16, Revision A.03,
 Gaussian 16:  ES64L-G16RevA.03 25-Dec-2016

 ---------------------------------
 #p PBE1PBE/Def2SVP td=(nstates=5)
 ---------------------------------

 -----------------------------------------------------
 step_101_chromophore_19 TDDFT with PBE1PBE functional
 -----------------------------------------------------
 Symbolic Z-matrix:
 Charge =  0 Multiplicity = 1

                         Standard orientation:
 ---------------------------------------------------------------------
 Center     Atomic      Atomic             Coordinates (Angstroms)
 Number     Number       Type             X           Y           Z
 ---------------------------------------------------------------------
      1         12           0       -5.843759    0.365103   -0.251426
      2          6           0       -3.726036   -2.360100   -0.253181
      3          6           0       -3.126733    2.478618    0.263351
      4          6           0       -7.974714    3.107256    0.325262
      5          6           0       -8.589951   -1.682958   -0.390355
      6          7           0       -3.733321    0.034839    0.090746
      7          6           0       -3.013898   -1.158567   -0.077956
      8          6           0       -1.466567   -1.006824    0.071467
      9          6           0       -1.385242    0.639223    0.186567
     10          6           0       -2.831022    1.083094    0.212483
     11          6           0       -0.647846    1.092240    1.503132
     12          6           0       -0.534680   -1.574622   -1.090615
     13          6           0        0.877757   -1.073213   -1.081325
     14          6           0        2.016970   -2.039671   -0.630873
     15          8           0        1.847528   -3.114735   -0.049017
     16          8           0        3.213573   -1.631659   -1.091139
     17          7           0       -5.588258    2.487463    0.074477
     18          6           0       -4.363070    3.135299    0.163571
     19          6           0       -4.583067    4.557071    0.235237
     20          6           0       -5.946286    4.752235    0.110375
     21          6           0       -6.602766    3.404565    0.157698
     22          6           0       -3.494936    5.587530    0.346983
     23          6           0       -6.713712    6.051507    0.090492
     24          8           0       -7.915424    6.092183    0.191545
     25          6           0       -6.005351    7.444681   -0.039262
     26          7           0       -7.958708    0.702893    0.073747
     27          6           0       -8.598529    1.872962    0.227720
     28          6           0      -10.119151    1.652049    0.444536
     29          6           0      -10.269551    0.166454    0.027515
     30          6           0       -8.899532   -0.291799   -0.137320
     31          6           0      -10.682533    1.900357    1.879386
     32          6           0      -11.087517   -0.095335   -1.173516
     33          6           0      -12.585011   -0.037077   -0.964715
     34          7           0       -6.143405   -1.583569   -0.250990
     35          6           0       -7.312568   -2.268223   -0.422514
     36          6           0       -6.962593   -3.665792   -0.749551
     37          6           0       -5.627951   -3.766586   -0.519598
     38          6           0       -5.144877   -2.455376   -0.326277
     39          6           0       -7.915352   -4.802737   -0.955743
     40          6           0       -4.509522   -4.683316   -0.545748
     41          8           0       -4.450572   -5.884931   -0.648001
     42          6           0       -3.244446   -3.802693   -0.261021
     43          6           0       -2.675109   -4.236071    1.050880
     44          8           0       -3.316386   -4.309805    2.068464
     45          8           0       -1.403532   -4.732576    0.823219
     46          6           0       -0.857270   -5.387472    2.034415
     47          6           0        4.351759   -2.425431   -0.622070
     48          6           0        5.743538   -1.785974   -0.907576
     49          6           0        6.409957   -0.796042   -0.263017
     50          6           0        5.875373    0.033015    0.875770
     51          6           0        7.880440   -0.501732   -0.683852
     52          6           0        8.066429    0.724039   -1.565656
     53          6           0        9.404698    1.504000   -1.174028
     54          6           0       10.144204    2.044306   -2.433197
     55          6           0        9.226156    2.873209   -3.357795
     56          6           0       10.858318    0.850048   -3.042917
     57          6           0       12.343475    1.079807   -2.816151
     58          6           0       12.972911   -0.041825   -1.879430
     59          6           0       13.884591    0.498777   -0.696597
     60          6           0       15.311174   -0.001248   -1.099634
     61          6           0       13.509840    0.080839    0.718753
     62          6           0       12.944201    1.183631    1.606586
     63          6           0       12.663159    0.623449    3.053503
     64          6           0       11.121114    0.635942    3.485512
     65          6           0       10.774711    1.621043    4.564074
     66          6           0       10.548241   -0.708635    3.981886
     67          1           0       -2.212680    3.076330    0.270693
     68          1           0       -8.696051    3.912308    0.482003
     69          1           0       -9.435630   -2.356965   -0.540938
     70          1           0       -1.298391   -1.650456    0.934297
     71          1           0       -0.821720    1.063386   -0.644412
     72          1           0       -1.186849    1.939913    1.926585
     73          1           0        0.387379    1.395789    1.347087
     74          1           0       -0.671419    0.289674    2.240399
     75          1           0       -0.896599   -1.203784   -2.049451
     76          1           0       -0.639871   -2.659149   -1.080395
     77          1           0        1.010782   -0.397964   -0.236771
     78          1           0        1.129208   -0.582763   -2.021636
     79          1           0       -2.508743    5.190606    0.587648
     80          1           0       -3.705581    6.248761    1.188519
     81          1           0       -3.365873    6.122730   -0.593295
     82          1           0       -5.270923    7.317387   -0.834874
     83          1           0       -5.507875    7.649011    0.908076
     84          1           0       -6.539148    8.325811   -0.396741
     85          1           0      -10.769712    2.284885   -0.159128
     86          1           0      -10.723897   -0.426652    0.821439
     87          1           0       -9.911065    1.965067    2.645695
     88          1           0      -11.504049    1.237905    2.153118
     89          1           0      -11.072783    2.907153    2.025262
     90          1           0      -10.944870   -1.058256   -1.663978
     91          1           0      -10.937036    0.762476   -1.829660
     92          1           0      -12.978639    0.276991   -1.931781
     93          1           0      -12.844653    0.470330   -0.035901
     94          1           0      -12.954329   -1.060653   -0.898238
     95          1           0       -8.890802   -4.459122   -1.300464
     96          1           0       -7.949108   -5.318744    0.003533
     97          1           0       -7.432323   -5.496210   -1.643993
     98          1           0       -2.485083   -4.024418   -1.011167
     99          1           0       -1.290444   -5.073332    2.984406
    100          1           0        0.230866   -5.345005    2.059904
    101          1           0       -1.065130   -6.451220    1.921646
    102          1           0        4.245183   -3.464658   -0.929956
    103          1           0        4.260996   -2.622702    0.446693
    104          1           0        6.346996   -2.551420   -1.396628
    105          1           0        6.700614   -0.020958    1.586011
    106          1           0        4.960676   -0.421921    1.256688
    107          1           0        5.565663    0.998650    0.477119
    108          1           0        8.229049   -1.321089   -1.311494
    109          1           0        8.516748   -0.380184    0.192685
    110          1           0        7.250116    1.432014   -1.425119
    111          1           0        8.020610    0.376169   -2.597892
    112          1           0       10.132744    0.897986   -0.634727
    113          1           0        9.090335    2.229930   -0.424629
    114          1           0       10.898000    2.744836   -2.074111
    115          1           0        8.187921    2.590111   -3.188570
    116          1           0        9.447546    2.852534   -4.425241
    117          1           0        9.253333    3.922519   -3.064340
    118          1           0       10.629505    0.938827   -4.104337
    119          1           0       10.497185   -0.087208   -2.619659
    120          1           0       12.582020    2.079043   -2.452643
    121          1           0       12.894031    1.070915   -3.757506
    122          1           0       13.401121   -0.806192   -2.527708
    123          1           0       12.184056   -0.608148   -1.383660
    124          1           0       13.809618    1.580770   -0.805413
    125          1           0       15.846353    0.943895   -1.195833
    126          1           0       15.410045   -0.514828   -2.056119
    127          1           0       15.842423   -0.587381   -0.350160
    128          1           0       14.410340   -0.296394    1.202620
    129          1           0       12.933340   -0.843401    0.739317
    130          1           0       12.095993    1.538569    1.021076
    131          1           0       13.552692    2.074498    1.760062
    132          1           0       13.321932    1.170391    3.727840
    133          1           0       13.003184   -0.407994    3.151855
    134          1           0       10.417401    0.809490    2.671282
    135          1           0       10.614268    1.143447    5.529733
    136          1           0       10.074394    2.404872    4.276826
    137          1           0       11.672611    2.148399    4.885699
    138          1           0       10.941174   -1.556786    3.420729
    139          1           0        9.488014   -0.747609    3.732159
    140          1           0       10.724518   -0.968812    5.026543
 ---------------------------------------------------------------------

 SCF Done:  E(RPBE1PBE) =  -3005.34373650     A.U. after   15 cycles

 Excitation energies and oscillator strengths:

 Excited State   1:      Singlet-A      1.8209 eV  680.91 nm  f=0.3478  <S**2>=0.000
     245 -> 248       -0.17420
     246 -> 247        0.69393
     246 <- 247       -0.10916
 This state for optimization and/or second-order correction.
 Total Energy, E(TD-HF/TD-DFT) =  -3005.27682063
 Copying the excited state density for this state as the 1-particle RhoCI density.

 Excited State   2:      Singlet-A      2.2784 eV  544.18 nm  f=0.0692  <S**2>=0.000
     245 -> 247        0.62493
     246 -> 248        0.32330

 Excited State   3:      Singlet-A      3.0062 eV  412.42 nm  f=0.0020  <S**2>=0.000
     244 -> 247        0.67612
     244 -> 249       -0.12948
     244 -> 250        0.10870

 Excited State   4:      Singlet-A      3.1907 eV  388.58 nm  f=0.0008  <S**2>=0.000
     242 -> 247        0.54868
     242 -> 249        0.17359
     243 -> 247        0.38856

 Excited State   5:      Singlet-A      3.2320 eV  383.62 nm  f=0.0560  <S**2>=0.000
     242 -> 247       -0.34832
     243 -> 247        0.52765
     246 -> 248       -0.25663

 The electronic state is 1-A.
 Alpha  occ. eigenvalues --  -46.91382 -19.26259 -19.25527 -19.19961 -19.19770
 Alpha  occ. eigenvalues --  -19.19149 -19.18470 -14.42013 -14.41297 -14.39015
 Alpha  occ. eigenvalues --  -14.38717 -10.36613 -10.35594 -10.31902 -10.31730
 Alpha  occ. eigenvalues --  -10.29668 -10.29136 -10.28890 -10.28411 -10.27941
 Alpha  occ. eigenvalues --  -10.27879 -10.27666 -10.27353 -10.27256 -10.26989
 Alpha  occ. eigenvalues --  -10.26795 -10.26269 -10.25933 -10.25620 -10.25575
 Alpha  occ. eigenvalues --  -10.25464 -10.25443 -10.25020 -10.24890 -10.24719
 Alpha  occ. eigenvalues --  -10.24700 -10.24693 -10.24346 -10.24341 -10.24133
 Alpha  occ. eigenvalues --  -10.24098 -10.24051 -10.23809 -10.23800 -10.23785
 Alpha  occ. eigenvalues --  -10.23547 -10.23475 -10.23310 -10.23283 -10.23261
 Alpha  occ. eigenvalues --  -10.23163 -10.23152 -10.23138 -10.23119 -10.23007
 Alpha  occ. eigenvalues --  -10.22956 -10.22532 -10.22471 -10.22425 -10.22314
 Alpha  occ. eigenvalues --  -10.22051 -10.21978 -10.21938 -10.21883 -10.21585
 Alpha  occ. eigenvalues --  -10.21430  -3.13624  -1.86451  -1.85978  -1.85883
 Alpha  occ. eigenvalues --   -1.11938  -1.10534  -1.05216  -1.05157  -1.02724
 Alpha  occ. eigenvalues --   -1.02181  -0.99392  -0.98281  -0.96951  -0.96066
 Alpha  occ. eigenvalues --   -0.86601  -0.85046  -0.84818  -0.83966  -0.83461
 Alpha  occ. eigenvalues --   -0.83093  -0.82428  -0.81716  -0.81652  -0.81049
 Alpha  occ. eigenvalues --   -0.80772  -0.79414  -0.78645  -0.77931  -0.77401
 Alpha  occ. eigenvalues --   -0.76855  -0.76044  -0.75226  -0.74602  -0.74324
 Alpha  occ. eigenvalues --   -0.73861  -0.72423  -0.72217  -0.72029  -0.70294
 Alpha  occ. eigenvalues --   -0.69918  -0.69554  -0.69292  -0.68902  -0.68693
 Alpha  occ. eigenvalues --   -0.67825  -0.66720  -0.66035  -0.64915  -0.63355
 Alpha  occ. eigenvalues --   -0.62878  -0.62579  -0.61776  -0.61454  -0.60466
 Alpha  occ. eigenvalues --   -0.59985  -0.59323  -0.59084  -0.58792  -0.58626
 Alpha  occ. eigenvalues --   -0.58142  -0.57955  -0.56446  -0.56288  -0.54743
 Alpha  occ. eigenvalues --   -0.54089  -0.53985  -0.53453  -0.53390  -0.52340
 Alpha  occ. eigenvalues --   -0.52010  -0.51851  -0.50788  -0.50625  -0.49563
 Alpha  occ. eigenvalues --   -0.49423  -0.49240  -0.49161  -0.48597  -0.48217
 Alpha  occ. eigenvalues --   -0.48065  -0.48002  -0.47793  -0.47649  -0.47584
 Alpha  occ. eigenvalues --   -0.47366  -0.47064  -0.46683  -0.46610  -0.46522
 Alpha  occ. eigenvalues --   -0.45999  -0.45938  -0.45793  -0.45684  -0.45423
 Alpha  occ. eigenvalues --   -0.44905  -0.44677  -0.44603  -0.44346  -0.44034
 Alpha  occ. eigenvalues --   -0.43938  -0.43797  -0.43590  -0.43333  -0.43139
 Alpha  occ. eigenvalues --   -0.42815  -0.42726  -0.42510  -0.42404  -0.42295
 Alpha  occ. eigenvalues --   -0.42010  -0.41664  -0.41496  -0.41347  -0.41251
 Alpha  occ. eigenvalues --   -0.41196  -0.40966  -0.40915  -0.40889  -0.40581
 Alpha  occ. eigenvalues --   -0.40545  -0.40251  -0.40066  -0.39901  -0.39703
 Alpha  occ. eigenvalues --   -0.39628  -0.39047  -0.38979  -0.38847  -0.38456
 Alpha  occ. eigenvalues --   -0.38374  -0.38163  -0.37946  -0.37922  -0.37767
 Alpha  occ. eigenvalues --   -0.37578  -0.37349  -0.37201  -0.37097  -0.37016
 Alpha  occ. eigenvalues --   -0.36919  -0.36621  -0.36586  -0.36423  -0.36152
 Alpha  occ. eigenvalues --   -0.35913  -0.35818  -0.35692  -0.35410  -0.35178
 Alpha  occ. eigenvalues --   -0.34839  -0.34231  -0.34198  -0.33892  -0.33579
 Alpha  occ. eigenvalues --   -0.33393  -0.33220  -0.32789  -0.32767  -0.32522
 Alpha  occ. eigenvalues --   -0.32394  -0.32097  -0.31718  -0.31472  -0.31189
 Alpha  occ. eigenvalues --   -0.30913  -0.30286  -0.29810  -0.29784  -0.29096
 Alpha  occ. eigenvalues --   -0.28864  -0.28395  -0.28266  -0.26739  -0.26115
 Alpha  occ. eigenvalues --   -0.25888  -0.25690  -0.25341  -0.24764  -0.20839
 Alpha  occ. eigenvalues --   -0.18081
 Alpha virt. eigenvalues --   -0.10565  -0.05109  -0.03367  -0.01730  -0.00540
 Alpha virt. eigenvalues --   -0.00086   0.00961   0.01061   0.01293   0.03128
 Alpha virt. eigenvalues --    0.03673   0.04349   0.05143   0.05387   0.05548

 Mulliken charges:
               1
     1  Mg   0.994362
     2  C   -0.034693
     3  C   -0.083869
     4  C   -0.044363
     5  C   -0.088905
     6  N   -0.424962
     7  C    0.029377
     8  C   -0.075046
     9  C   -0.173532
    10  C    0.109487
    11  C   -0.005469
    12  C    0.045580
    13  C   -0.046774
    14  C    0.203857
    15  O   -0.283044
    16  O   -0.336228
    17  N   -0.465499
    18  C    0.191537
    19  C   -0.176127
    20  C   -0.083607
    21  C    0.161793
    22  C    0.062859
    23  C    0.046648
    24  O   -0.227243
    25  C   -0.029764
    26  N   -0.384980
    27  C    0.065978
    28  C   -0.086909
    29  C   -0.089672
    30  C    0.103334
    31  C   -0.007687
    32  C   -0.054884
    33  C   -0.046554
    34  N   -0.503763
    35  C    0.152461
    36  C   -0.231975
    37  C   -0.009504
    38  C    0.171633
    39  C    0.062678
    40  C    0.142957
    41  O   -0.196523
    42  C   -0.127641
    43  C    0.285221
    44  O   -0.233310
    45  O   -0.364791
    46  C    0.109158
    47  C    0.182889
    48  C   -0.085250
    49  C   -0.227829
    50  C    0.051049
    51  C    0.013065
    52  C   -0.074823
    53  C   -0.063964
    54  C   -0.216711
    55  C   -0.001668
    56  C    0.022433
    57  C   -0.044548
    58  C   -0.020922
    59  C   -0.207409
    60  C   -0.018897
    61  C    0.001957
    62  C   -0.061389
    63  C    0.023370
    64  C   -0.232373
    65  C    0.005768
    66  C   -0.047860
    67  H    0.005485
    68  H    0.026123
    69  H    0.004517
    70  H    0.072982
    71  H    0.062678
    72  H    0.043543
    73  H    0.043959
    74  H    0.048050
    75  H    0.027928
    76  H    0.069943
    77  H    0.064984
    78  H    0.072981
    79  H    0.030260
    80  H    0.051878
    81  H    0.063592
    82  H    0.037066
    83  H    0.061238
    84  H    0.053119
    85  H    0.046903
    86  H    0.042312
    87  H    0.044924
    88  H    0.047544
    89  H    0.035072
    90  H    0.042545
    91  H    0.034595
    92  H    0.042441
    93  H    0.044532
    94  H    0.028524
    95  H    0.043711
    96  H    0.071936
    97  H    0.059810
    98  H    0.072545
    99  H    0.072066
   100  H    0.064509
   101  H    0.053837
   102  H    0.043057
   103  H    0.041217
   104  H    0.029535
   105  H    0.056882
   106  H    0.037404
   107  H    0.062586
   108  H    0.031362
   109  H    0.037862
   110  H    0.044449
   111  H    0.045879
   112  H    0.046929
   113  H    0.026633
   114  H    0.032367
   115  H    0.029787
   116  H    0.036226
   117  H    0.027057
   118  H    0.016808
   119  H    0.046870
   120  H    0.025497
   121  H    0.024291
   122  H    0.032112
   123  H    0.009250
   124  H    0.036921
   125  H    0.028980
   126  H    0.038065
   127  H    0.034404
   128  H    0.016568
   129  H    0.023725
   130  H    0.037417
   131  H    0.033478
   132  H    0.029339
   133  H    0.024411
   134  H    0.036281
   135  H    0.025967
   136  H    0.044506
   137  H    0.007725
   138  H    0.019040
   139  H    0.032906
   140  H    0.039583
 Sum of Mulliken charges =  -0.00000

 Dipole moment (field-independent basis, Debye):
    X=              4.4289    Y=              4.1359    Z=             -1.0742  Tot=              6.1543
 Quadrupole moment (field-independent basis, Debye-Ang):
   XX=           -363.8711   YY=           -429.3251   ZZ=           -401.7352
   XY=              7.5973   XZ=             13.8396   YZ=             -1.0529

 Normal termination of Gaussian 16 at Wed Apr 27 00:26:08 2022.
