 Gaussian 16, Revision A.03,
 Gaussian 16:  ES64L-G16RevA.03 25-Dec-2016

 --------------------------------
 #p wB97XD/Def2SVP td=(nstates=5)
 --------------------------------

 ----------------------------------------------------
 step_101_chromophore_19 TDDFT with wB97XD functional
 ----------------------------------------------------
 Symbolic Z-matrix:
 Charge =  0 Multiplicity = 1

                         Standard orientation:
 ---------------------------------------------------------------------
 Center     Atomic      Atomic             Coordinates (Angstroms)
 Number     Number       Type             X           Y           Z
 ---------------------------------------------------------------------
      1         12           0       -5.843759    0.365103   -0.251426
      2          6           0       -3.726036   -2.360100   -0.253181
      3          6           0       -3.126733    2.478618    0.263351
      4          6           0       -7.974714    3.107256    0.325262
      5          6           0       -8.589951   -1.682958   -0.390355
      6          7           0       -3.733321    0.034839    0.090746
      7          6           0       -3.013898   -1.158567   -0.077956
      8          6           0       -1.466567   -1.006824    0.071467
      9          6           0       -1.385242    0.639223    0.186567
     10          6           0       -2.831022    1.083094    0.212483
     11          6           0       -0.647846    1.092240    1.503132
     12          6           0       -0.534680   -1.574622   -1.090615
     13          6           0        0.877757   -1.073213   -1.081325
     14          6           0        2.016970   -2.039671   -0.630873
     15          8           0        1.847528   -3.114735   -0.049017
     16          8           0        3.213573   -1.631659   -1.091139
     17          7           0       -5.588258    2.487463    0.074477
     18          6           0       -4.363070    3.135299    0.163571
     19          6           0       -4.583067    4.557071    0.235237
     20          6           0       -5.946286    4.752235    0.110375
     21          6           0       -6.602766    3.404565    0.157698
     22          6           0       -3.494936    5.587530    0.346983
     23          6           0       -6.713712    6.051507    0.090492
     24          8           0       -7.915424    6.092183    0.191545
     25          6           0       -6.005351    7.444681   -0.039262
     26          7           0       -7.958708    0.702893    0.073747
     27          6           0       -8.598529    1.872962    0.227720
     28          6           0      -10.119151    1.652049    0.444536
     29          6           0      -10.269551    0.166454    0.027515
     30          6           0       -8.899532   -0.291799   -0.137320
     31          6           0      -10.682533    1.900357    1.879386
     32          6           0      -11.087517   -0.095335   -1.173516
     33          6           0      -12.585011   -0.037077   -0.964715
     34          7           0       -6.143405   -1.583569   -0.250990
     35          6           0       -7.312568   -2.268223   -0.422514
     36          6           0       -6.962593   -3.665792   -0.749551
     37          6           0       -5.627951   -3.766586   -0.519598
     38          6           0       -5.144877   -2.455376   -0.326277
     39          6           0       -7.915352   -4.802737   -0.955743
     40          6           0       -4.509522   -4.683316   -0.545748
     41          8           0       -4.450572   -5.884931   -0.648001
     42          6           0       -3.244446   -3.802693   -0.261021
     43          6           0       -2.675109   -4.236071    1.050880
     44          8           0       -3.316386   -4.309805    2.068464
     45          8           0       -1.403532   -4.732576    0.823219
     46          6           0       -0.857270   -5.387472    2.034415
     47          6           0        4.351759   -2.425431   -0.622070
     48          6           0        5.743538   -1.785974   -0.907576
     49          6           0        6.409957   -0.796042   -0.263017
     50          6           0        5.875373    0.033015    0.875770
     51          6           0        7.880440   -0.501732   -0.683852
     52          6           0        8.066429    0.724039   -1.565656
     53          6           0        9.404698    1.504000   -1.174028
     54          6           0       10.144204    2.044306   -2.433197
     55          6           0        9.226156    2.873209   -3.357795
     56          6           0       10.858318    0.850048   -3.042917
     57          6           0       12.343475    1.079807   -2.816151
     58          6           0       12.972911   -0.041825   -1.879430
     59          6           0       13.884591    0.498777   -0.696597
     60          6           0       15.311174   -0.001248   -1.099634
     61          6           0       13.509840    0.080839    0.718753
     62          6           0       12.944201    1.183631    1.606586
     63          6           0       12.663159    0.623449    3.053503
     64          6           0       11.121114    0.635942    3.485512
     65          6           0       10.774711    1.621043    4.564074
     66          6           0       10.548241   -0.708635    3.981886
     67          1           0       -2.212680    3.076330    0.270693
     68          1           0       -8.696051    3.912308    0.482003
     69          1           0       -9.435630   -2.356965   -0.540938
     70          1           0       -1.298391   -1.650456    0.934297
     71          1           0       -0.821720    1.063386   -0.644412
     72          1           0       -1.186849    1.939913    1.926585
     73          1           0        0.387379    1.395789    1.347087
     74          1           0       -0.671419    0.289674    2.240399
     75          1           0       -0.896599   -1.203784   -2.049451
     76          1           0       -0.639871   -2.659149   -1.080395
     77          1           0        1.010782   -0.397964   -0.236771
     78          1           0        1.129208   -0.582763   -2.021636
     79          1           0       -2.508743    5.190606    0.587648
     80          1           0       -3.705581    6.248761    1.188519
     81          1           0       -3.365873    6.122730   -0.593295
     82          1           0       -5.270923    7.317387   -0.834874
     83          1           0       -5.507875    7.649011    0.908076
     84          1           0       -6.539148    8.325811   -0.396741
     85          1           0      -10.769712    2.284885   -0.159128
     86          1           0      -10.723897   -0.426652    0.821439
     87          1           0       -9.911065    1.965067    2.645695
     88          1           0      -11.504049    1.237905    2.153118
     89          1           0      -11.072783    2.907153    2.025262
     90          1           0      -10.944870   -1.058256   -1.663978
     91          1           0      -10.937036    0.762476   -1.829660
     92          1           0      -12.978639    0.276991   -1.931781
     93          1           0      -12.844653    0.470330   -0.035901
     94          1           0      -12.954329   -1.060653   -0.898238
     95          1           0       -8.890802   -4.459122   -1.300464
     96          1           0       -7.949108   -5.318744    0.003533
     97          1           0       -7.432323   -5.496210   -1.643993
     98          1           0       -2.485083   -4.024418   -1.011167
     99          1           0       -1.290444   -5.073332    2.984406
    100          1           0        0.230866   -5.345005    2.059904
    101          1           0       -1.065130   -6.451220    1.921646
    102          1           0        4.245183   -3.464658   -0.929956
    103          1           0        4.260996   -2.622702    0.446693
    104          1           0        6.346996   -2.551420   -1.396628
    105          1           0        6.700614   -0.020958    1.586011
    106          1           0        4.960676   -0.421921    1.256688
    107          1           0        5.565663    0.998650    0.477119
    108          1           0        8.229049   -1.321089   -1.311494
    109          1           0        8.516748   -0.380184    0.192685
    110          1           0        7.250116    1.432014   -1.425119
    111          1           0        8.020610    0.376169   -2.597892
    112          1           0       10.132744    0.897986   -0.634727
    113          1           0        9.090335    2.229930   -0.424629
    114          1           0       10.898000    2.744836   -2.074111
    115          1           0        8.187921    2.590111   -3.188570
    116          1           0        9.447546    2.852534   -4.425241
    117          1           0        9.253333    3.922519   -3.064340
    118          1           0       10.629505    0.938827   -4.104337
    119          1           0       10.497185   -0.087208   -2.619659
    120          1           0       12.582020    2.079043   -2.452643
    121          1           0       12.894031    1.070915   -3.757506
    122          1           0       13.401121   -0.806192   -2.527708
    123          1           0       12.184056   -0.608148   -1.383660
    124          1           0       13.809618    1.580770   -0.805413
    125          1           0       15.846353    0.943895   -1.195833
    126          1           0       15.410045   -0.514828   -2.056119
    127          1           0       15.842423   -0.587381   -0.350160
    128          1           0       14.410340   -0.296394    1.202620
    129          1           0       12.933340   -0.843401    0.739317
    130          1           0       12.095993    1.538569    1.021076
    131          1           0       13.552692    2.074498    1.760062
    132          1           0       13.321932    1.170391    3.727840
    133          1           0       13.003184   -0.407994    3.151855
    134          1           0       10.417401    0.809490    2.671282
    135          1           0       10.614268    1.143447    5.529733
    136          1           0       10.074394    2.404872    4.276826
    137          1           0       11.672611    2.148399    4.885699
    138          1           0       10.941174   -1.556786    3.420729
    139          1           0        9.488014   -0.747609    3.732159
    140          1           0       10.724518   -0.968812    5.026543
 ---------------------------------------------------------------------

 SCF Done:  E(RwB97XD) =  -3007.85229487     A.U. after   17 cycles

 Excitation energies and oscillator strengths:

 Excited State   1:      Singlet-A      1.6012 eV  774.34 nm  f=0.3551  <S**2>=0.000
     245 -> 248        0.18775
     246 -> 247        0.68401
     245 <- 248        0.12163
 This state for optimization and/or second-order correction.
 Total Energy, E(TD-HF/TD-DFT) =  -3007.79345331
 Copying the excited state density for this state as the 1-particle RhoCI density.

 Excited State   2:      Singlet-A      2.2108 eV  560.81 nm  f=0.0584  <S**2>=0.000
     245 -> 247        0.60731
     246 -> 248       -0.35355

 Excited State   3:      Singlet-A      3.4560 eV  358.75 nm  f=0.7006  <S**2>=0.000
     244 -> 247        0.25593
     245 -> 247        0.30418
     246 -> 248        0.56201
     245 <- 247       -0.11102

 Excited State   4:      Singlet-A      3.5737 eV  346.93 nm  f=0.1303  <S**2>=0.000
     243 -> 247        0.14776
     243 -> 249       -0.18388
     243 -> 250        0.17204
     244 -> 247        0.53749
     244 -> 249       -0.15808
     244 -> 250        0.11353
     245 -> 247       -0.12370
     246 -> 248       -0.16543

 Excited State   5:      Singlet-A      3.6424 eV  340.39 nm  f=0.0849  <S**2>=0.000
     243 -> 247        0.55413
     243 -> 249       -0.12049
     243 -> 250        0.10766
     244 -> 247       -0.22784
     244 -> 250        0.10756
     245 -> 247        0.10139
     246 -> 248        0.13534

 The electronic state is 1-A.
 Alpha  occ. eigenvalues --  -46.94313 -19.30823 -19.30071 -19.24585 -19.24480
 Alpha  occ. eigenvalues --  -19.23961 -19.23346 -14.47079 -14.46389 -14.43982
 Alpha  occ. eigenvalues --  -14.43654 -10.43365 -10.42416 -10.38783 -10.38579
 Alpha  occ. eigenvalues --  -10.36171 -10.35398 -10.35228 -10.34611 -10.34263
 Alpha  occ. eigenvalues --  -10.34252 -10.34151 -10.33673 -10.33591 -10.33222
 Alpha  occ. eigenvalues --  -10.33037 -10.32542 -10.32280 -10.32018 -10.31997
 Alpha  occ. eigenvalues --  -10.31827 -10.31726 -10.31424 -10.31293 -10.31115
 Alpha  occ. eigenvalues --  -10.31104 -10.31070 -10.30923 -10.30790 -10.30546
 Alpha  occ. eigenvalues --  -10.30432 -10.30299 -10.30201 -10.30182 -10.30058
 Alpha  occ. eigenvalues --  -10.29838 -10.29822 -10.29698 -10.29653 -10.29649
 Alpha  occ. eigenvalues --  -10.29615 -10.29577 -10.29512 -10.29395 -10.29382
 Alpha  occ. eigenvalues --  -10.29327 -10.28889 -10.28815 -10.28761 -10.28690
 Alpha  occ. eigenvalues --  -10.28398 -10.28358 -10.28313 -10.28271 -10.27999
 Alpha  occ. eigenvalues --  -10.27850  -3.20403  -1.93982  -1.93508  -1.93407
 Alpha  occ. eigenvalues --   -1.19296  -1.17930  -1.12684  -1.12681  -1.10081
 Alpha  occ. eigenvalues --   -1.09501  -1.06705  -1.05645  -1.04374  -1.03481
 Alpha  occ. eigenvalues --   -0.94207  -0.92718  -0.92332  -0.91632  -0.91120
 Alpha  occ. eigenvalues --   -0.90751  -0.90062  -0.89362  -0.89305  -0.88653
 Alpha  occ. eigenvalues --   -0.88407  -0.87057  -0.86299  -0.85499  -0.85036
 Alpha  occ. eigenvalues --   -0.84489  -0.83685  -0.82881  -0.82255  -0.81993
 Alpha  occ. eigenvalues --   -0.81622  -0.80057  -0.79852  -0.79697  -0.77951
 Alpha  occ. eigenvalues --   -0.77549  -0.77244  -0.76868  -0.76556  -0.76359
 Alpha  occ. eigenvalues --   -0.75442  -0.74258  -0.73593  -0.72518  -0.70914
 Alpha  occ. eigenvalues --   -0.70381  -0.70198  -0.69404  -0.69041  -0.68116
 Alpha  occ. eigenvalues --   -0.67486  -0.66827  -0.66541  -0.66295  -0.66178
 Alpha  occ. eigenvalues --   -0.65593  -0.65573  -0.64049  -0.63712  -0.62174
 Alpha  occ. eigenvalues --   -0.61584  -0.61407  -0.60829  -0.60800  -0.59803
 Alpha  occ. eigenvalues --   -0.59477  -0.59333  -0.58294  -0.58028  -0.56964
 Alpha  occ. eigenvalues --   -0.56825  -0.56644  -0.56504  -0.56025  -0.55613
 Alpha  occ. eigenvalues --   -0.55479  -0.55348  -0.55140  -0.55019  -0.54975
 Alpha  occ. eigenvalues --   -0.54770  -0.54612  -0.54097  -0.53968  -0.53852
 Alpha  occ. eigenvalues --   -0.53349  -0.53304  -0.53209  -0.53011  -0.52748
 Alpha  occ. eigenvalues --   -0.52235  -0.52004  -0.51880  -0.51708  -0.51369
 Alpha  occ. eigenvalues --   -0.51297  -0.51082  -0.50923  -0.50681  -0.50431
 Alpha  occ. eigenvalues --   -0.50068  -0.49962  -0.49774  -0.49643  -0.49533
 Alpha  occ. eigenvalues --   -0.49396  -0.49004  -0.48788  -0.48593  -0.48505
 Alpha  occ. eigenvalues --   -0.48391  -0.48204  -0.48186  -0.48109  -0.47801
 Alpha  occ. eigenvalues --   -0.47669  -0.47463  -0.47228  -0.47107  -0.46832
 Alpha  occ. eigenvalues --   -0.46807  -0.46240  -0.46141  -0.45993  -0.45577
 Alpha  occ. eigenvalues --   -0.45483  -0.45308  -0.45040  -0.44967  -0.44892
 Alpha  occ. eigenvalues --   -0.44733  -0.44487  -0.44459  -0.44266  -0.44146
 Alpha  occ. eigenvalues --   -0.44027  -0.43722  -0.43659  -0.43505  -0.43090
 Alpha  occ. eigenvalues --   -0.43000  -0.42809  -0.42773  -0.42454  -0.42209
 Alpha  occ. eigenvalues --   -0.41924  -0.41245  -0.41218  -0.40960  -0.40557
 Alpha  occ. eigenvalues --   -0.40327  -0.40296  -0.39821  -0.39797  -0.39460
 Alpha  occ. eigenvalues --   -0.39419  -0.38974  -0.38786  -0.38508  -0.38169
 Alpha  occ. eigenvalues --   -0.37971  -0.37179  -0.36754  -0.36581  -0.36170
 Alpha  occ. eigenvalues --   -0.35945  -0.35192  -0.35070  -0.33366  -0.32772
 Alpha  occ. eigenvalues --   -0.32684  -0.32637  -0.32054  -0.31830  -0.25874
 Alpha  occ. eigenvalues --   -0.22179
 Alpha virt. eigenvalues --   -0.06370   0.00229   0.02944   0.04786   0.05794
 Alpha virt. eigenvalues --    0.06150   0.07626   0.07854   0.08250   0.09860
 Alpha virt. eigenvalues --    0.10170   0.10955   0.11906   0.12053   0.12248

 Mulliken charges:
               1
     1  Mg   0.984123
     2  C   -0.037993
     3  C   -0.105237
     4  C   -0.061190
     5  C   -0.108975
     6  N   -0.392925
     7  C   -0.001308
     8  C   -0.054592
     9  C   -0.145057
    10  C    0.098839
    11  C    0.003969
    12  C    0.057271
    13  C   -0.024737
    14  C    0.193379
    15  O   -0.280932
    16  O   -0.335536
    17  N   -0.432541
    18  C    0.186456
    19  C   -0.163977
    20  C   -0.075048
    21  C    0.151446
    22  C    0.074492
    23  C    0.039744
    24  O   -0.222023
    25  C   -0.014301
    26  N   -0.350700
    27  C    0.050823
    28  C   -0.064517
    29  C   -0.057386
    30  C    0.089010
    31  C    0.001135
    32  C   -0.039603
    33  C   -0.032162
    34  N   -0.462693
    35  C    0.144990
    36  C   -0.229501
    37  C   -0.006507
    38  C    0.152231
    39  C    0.076169
    40  C    0.126339
    41  O   -0.186563
    42  C   -0.085963
    43  C    0.260139
    44  O   -0.229152
    45  O   -0.363566
    46  C    0.124238
    47  C    0.196464
    48  C   -0.095703
    49  C   -0.212633
    50  C    0.065402
    51  C    0.035949
    52  C   -0.063838
    53  C   -0.034361
    54  C   -0.184835
    55  C    0.009315
    56  C    0.038944
    57  C   -0.027272
    58  C   -0.005776
    59  C   -0.177910
    60  C   -0.005713
    61  C    0.017276
    62  C   -0.039835
    63  C    0.037143
    64  C   -0.202429
    65  C    0.015885
    66  C   -0.033201
    67  H   -0.003477
    68  H    0.022894
    69  H   -0.002008
    70  H    0.060970
    71  H    0.052160
    72  H    0.036497
    73  H    0.039484
    74  H    0.042938
    75  H    0.020702
    76  H    0.058182
    77  H    0.050421
    78  H    0.069996
    79  H    0.026824
    80  H    0.045895
    81  H    0.059008
    82  H    0.029137
    83  H    0.055688
    84  H    0.052559
    85  H    0.037426
    86  H    0.029917
    87  H    0.039246
    88  H    0.041671
    89  H    0.029546
    90  H    0.034579
    91  H    0.024366
    92  H    0.037353
    93  H    0.037004
    94  H    0.022125
    95  H    0.038577
    96  H    0.066765
    97  H    0.055195
    98  H    0.066271
    99  H    0.068006
   100  H    0.062448
   101  H    0.049221
   102  H    0.039530
   103  H    0.034516
   104  H    0.025604
   105  H    0.051118
   106  H    0.031137
   107  H    0.057402
   108  H    0.023833
   109  H    0.027814
   110  H    0.033860
   111  H    0.037170
   112  H    0.023715
   113  H    0.018758
   114  H    0.019034
   115  H    0.021499
   116  H    0.031144
   117  H    0.021617
   118  H    0.008470
   119  H    0.033357
   120  H    0.014919
   121  H    0.017609
   122  H    0.024327
   123  H   -0.003951
   124  H    0.022657
   125  H    0.022899
   126  H    0.031823
   127  H    0.028551
   128  H    0.004963
   129  H    0.014371
   130  H    0.022288
   131  H    0.027227
   132  H    0.022540
   133  H    0.014767
   134  H    0.023601
   135  H    0.019222
   136  H    0.040404
   137  H    0.000195
   138  H    0.011813
   139  H    0.026671
   140  H    0.032955
 Sum of Mulliken charges =  -0.00000

 Dipole moment (field-independent basis, Debye):
    X=              4.5579    Y=              4.3631    Z=             -1.0962  Tot=              6.4041
 Quadrupole moment (field-independent basis, Debye-Ang):
   XX=           -365.6951   YY=           -427.2591   ZZ=           -401.2786
   XY=              6.4101   XZ=             14.2095   YZ=             -1.0458

 Normal termination of Gaussian 16 at Wed Apr 27 00:53:27 2022.
