 Gaussian 16, Revision A.03,
 Gaussian 16:  ES64L-G16RevA.03 25-Dec-2016

 --------------------
 #p ZINDO=(nstates=5)
 --------------------

 -----------------------------
 step_101_chromophore_19 ZINDO
 -----------------------------
 Symbolic Z-matrix:
 Charge =  0 Multiplicity = 1

                         Standard orientation:
 ---------------------------------------------------------------------
 Center     Atomic      Atomic             Coordinates (Angstroms)
 Number     Number       Type             X           Y           Z
 ---------------------------------------------------------------------
      1         12           0       -5.843759    0.365103   -0.251426
      2          6           0       -3.726036   -2.360100   -0.253181
      3          6           0       -3.126733    2.478618    0.263351
      4          6           0       -7.974714    3.107256    0.325262
      5          6           0       -8.589951   -1.682958   -0.390355
      6          7           0       -3.733321    0.034839    0.090746
      7          6           0       -3.013898   -1.158567   -0.077956
      8          6           0       -1.466567   -1.006824    0.071467
      9          6           0       -1.385242    0.639223    0.186567
     10          6           0       -2.831022    1.083094    0.212483
     11          6           0       -0.647846    1.092240    1.503132
     12          6           0       -0.534680   -1.574622   -1.090615
     13          6           0        0.877757   -1.073213   -1.081325
     14          6           0        2.016970   -2.039671   -0.630873
     15          8           0        1.847528   -3.114735   -0.049017
     16          8           0        3.213573   -1.631659   -1.091139
     17          7           0       -5.588258    2.487463    0.074477
     18          6           0       -4.363070    3.135299    0.163571
     19          6           0       -4.583067    4.557071    0.235237
     20          6           0       -5.946286    4.752235    0.110375
     21          6           0       -6.602766    3.404565    0.157698
     22          6           0       -3.494936    5.587530    0.346983
     23          6           0       -6.713712    6.051507    0.090492
     24          8           0       -7.915424    6.092183    0.191545
     25          6           0       -6.005351    7.444681   -0.039262
     26          7           0       -7.958708    0.702893    0.073747
     27          6           0       -8.598529    1.872962    0.227720
     28          6           0      -10.119151    1.652049    0.444536
     29          6           0      -10.269551    0.166454    0.027515
     30          6           0       -8.899532   -0.291799   -0.137320
     31          6           0      -10.682533    1.900357    1.879386
     32          6           0      -11.087517   -0.095335   -1.173516
     33          6           0      -12.585011   -0.037077   -0.964715
     34          7           0       -6.143405   -1.583569   -0.250990
     35          6           0       -7.312568   -2.268223   -0.422514
     36          6           0       -6.962593   -3.665792   -0.749551
     37          6           0       -5.627951   -3.766586   -0.519598
     38          6           0       -5.144877   -2.455376   -0.326277
     39          6           0       -7.915352   -4.802737   -0.955743
     40          6           0       -4.509522   -4.683316   -0.545748
     41          8           0       -4.450572   -5.884931   -0.648001
     42          6           0       -3.244446   -3.802693   -0.261021
     43          6           0       -2.675109   -4.236071    1.050880
     44          8           0       -3.316386   -4.309805    2.068464
     45          8           0       -1.403532   -4.732576    0.823219
     46          6           0       -0.857270   -5.387472    2.034415
     47          6           0        4.351759   -2.425431   -0.622070
     48          6           0        5.743538   -1.785974   -0.907576
     49          6           0        6.409957   -0.796042   -0.263017
     50          6           0        5.875373    0.033015    0.875770
     51          6           0        7.880440   -0.501732   -0.683852
     52          6           0        8.066429    0.724039   -1.565656
     53          6           0        9.404698    1.504000   -1.174028
     54          6           0       10.144204    2.044306   -2.433197
     55          6           0        9.226156    2.873209   -3.357795
     56          6           0       10.858318    0.850048   -3.042917
     57          6           0       12.343475    1.079807   -2.816151
     58          6           0       12.972911   -0.041825   -1.879430
     59          6           0       13.884591    0.498777   -0.696597
     60          6           0       15.311174   -0.001248   -1.099634
     61          6           0       13.509840    0.080839    0.718753
     62          6           0       12.944201    1.183631    1.606586
     63          6           0       12.663159    0.623449    3.053503
     64          6           0       11.121114    0.635942    3.485512
     65          6           0       10.774711    1.621043    4.564074
     66          6           0       10.548241   -0.708635    3.981886
     67          1           0       -2.212680    3.076330    0.270693
     68          1           0       -8.696051    3.912308    0.482003
     69          1           0       -9.435630   -2.356965   -0.540938
     70          1           0       -1.298391   -1.650456    0.934297
     71          1           0       -0.821720    1.063386   -0.644412
     72          1           0       -1.186849    1.939913    1.926585
     73          1           0        0.387379    1.395789    1.347087
     74          1           0       -0.671419    0.289674    2.240399
     75          1           0       -0.896599   -1.203784   -2.049451
     76          1           0       -0.639871   -2.659149   -1.080395
     77          1           0        1.010782   -0.397964   -0.236771
     78          1           0        1.129208   -0.582763   -2.021636
     79          1           0       -2.508743    5.190606    0.587648
     80          1           0       -3.705581    6.248761    1.188519
     81          1           0       -3.365873    6.122730   -0.593295
     82          1           0       -5.270923    7.317387   -0.834874
     83          1           0       -5.507875    7.649011    0.908076
     84          1           0       -6.539148    8.325811   -0.396741
     85          1           0      -10.769712    2.284885   -0.159128
     86          1           0      -10.723897   -0.426652    0.821439
     87          1           0       -9.911065    1.965067    2.645695
     88          1           0      -11.504049    1.237905    2.153118
     89          1           0      -11.072783    2.907153    2.025262
     90          1           0      -10.944870   -1.058256   -1.663978
     91          1           0      -10.937036    0.762476   -1.829660
     92          1           0      -12.978639    0.276991   -1.931781
     93          1           0      -12.844653    0.470330   -0.035901
     94          1           0      -12.954329   -1.060653   -0.898238
     95          1           0       -8.890802   -4.459122   -1.300464
     96          1           0       -7.949108   -5.318744    0.003533
     97          1           0       -7.432323   -5.496210   -1.643993
     98          1           0       -2.485083   -4.024418   -1.011167
     99          1           0       -1.290444   -5.073332    2.984406
    100          1           0        0.230866   -5.345005    2.059904
    101          1           0       -1.065130   -6.451220    1.921646
    102          1           0        4.245183   -3.464658   -0.929956
    103          1           0        4.260996   -2.622702    0.446693
    104          1           0        6.346996   -2.551420   -1.396628
    105          1           0        6.700614   -0.020958    1.586011
    106          1           0        4.960676   -0.421921    1.256688
    107          1           0        5.565663    0.998650    0.477119
    108          1           0        8.229049   -1.321089   -1.311494
    109          1           0        8.516748   -0.380184    0.192685
    110          1           0        7.250116    1.432014   -1.425119
    111          1           0        8.020610    0.376169   -2.597892
    112          1           0       10.132744    0.897986   -0.634727
    113          1           0        9.090335    2.229930   -0.424629
    114          1           0       10.898000    2.744836   -2.074111
    115          1           0        8.187921    2.590111   -3.188570
    116          1           0        9.447546    2.852534   -4.425241
    117          1           0        9.253333    3.922519   -3.064340
    118          1           0       10.629505    0.938827   -4.104337
    119          1           0       10.497185   -0.087208   -2.619659
    120          1           0       12.582020    2.079043   -2.452643
    121          1           0       12.894031    1.070915   -3.757506
    122          1           0       13.401121   -0.806192   -2.527708
    123          1           0       12.184056   -0.608148   -1.383660
    124          1           0       13.809618    1.580770   -0.805413
    125          1           0       15.846353    0.943895   -1.195833
    126          1           0       15.410045   -0.514828   -2.056119
    127          1           0       15.842423   -0.587381   -0.350160
    128          1           0       14.410340   -0.296394    1.202620
    129          1           0       12.933340   -0.843401    0.739317
    130          1           0       12.095993    1.538569    1.021076
    131          1           0       13.552692    2.074498    1.760062
    132          1           0       13.321932    1.170391    3.727840
    133          1           0       13.003184   -0.407994    3.151855
    134          1           0       10.417401    0.809490    2.671282
    135          1           0       10.614268    1.143447    5.529733
    136          1           0       10.074394    2.404872    4.276826
    137          1           0       11.672611    2.148399    4.885699
    138          1           0       10.941174   -1.556786    3.420729
    139          1           0        9.488014   -0.747609    3.732159
    140          1           0       10.724518   -0.968812    5.026543
 ---------------------------------------------------------------------

 SCF Done:  E(RZINDO/S) =  -474.343318205     A.U. after   20 cycles

 Excitation energies and oscillator strengths:

 Excited State   1:      Singlet-A      1.2117 eV 1023.27 nm  f=0.5778  <S**2>=0.000
     175 ->178        -0.19465
     176 ->177         0.66300
 This state for optimization and/or second-order correction.
 Total Energy, E(CIS/TDA) =  -474.298790799
 Copying the excited state density for this state as the 1-particle RhoCI density.

 Excited State   2:      Singlet-A      1.9142 eV  647.71 nm  f=0.0015  <S**2>=0.000
     175 ->177         0.49196
     176 ->178         0.48995

 Excited State   3:      Singlet-A      2.9512 eV  420.11 nm  f=0.0140  <S**2>=0.000
     168 ->177        -0.14306
     168 ->179        -0.18550
     168 ->180        -0.20489
     168 ->186        -0.12566
     169 ->177         0.22094
     169 ->179         0.23733
     169 ->180         0.28637
     169 ->186         0.15746
     169 ->187         0.14178
     176 ->179         0.20221

 Excited State   4:      Singlet-A      2.9766 eV  416.53 nm  f=0.0368  <S**2>=0.000
     169 ->179        -0.11159
     176 ->178         0.10314
     176 ->179         0.61031

 Excited State   5:      Singlet-A      3.0220 eV  410.27 nm  f=0.3743  <S**2>=0.000
     168 ->177         0.14587
     168 ->179        -0.21096
     168 ->180         0.15512
     168 ->186        -0.10988
     169 ->177         0.12175
     169 ->179        -0.14672
     169 ->180         0.11816
     170 ->177         0.16747
     170 ->179        -0.20486
     170 ->180         0.11630
     170 ->186        -0.10107
     175 ->177        -0.24857
     176 ->178         0.25617
     176 ->179        -0.18644

 The electronic state is 1-A.
 Alpha  occ. eigenvalues --   -1.86228  -1.81332  -1.77927  -1.73855  -1.72367
 Alpha  occ. eigenvalues --   -1.69657  -1.66873  -1.59965  -1.58987  -1.58766
 Alpha  occ. eigenvalues --   -1.54760  -1.51867  -1.51117  -1.49112  -1.48214
 Alpha  occ. eigenvalues --   -1.44162  -1.42464  -1.40104  -1.39187  -1.38481
 Alpha  occ. eigenvalues --   -1.35996  -1.34524  -1.33377  -1.30938  -1.28775
 Alpha  occ. eigenvalues --   -1.27766  -1.24611  -1.21779  -1.20325  -1.18661
 Alpha  occ. eigenvalues --   -1.17115  -1.15261  -1.15020  -1.14494  -1.13713
 Alpha  occ. eigenvalues --   -1.11817  -1.11596  -1.10214  -1.04789  -1.03348
 Alpha  occ. eigenvalues --   -1.03157  -1.00344  -0.99218  -0.98493  -0.97780
 Alpha  occ. eigenvalues --   -0.95371  -0.94239  -0.93652  -0.92791  -0.92633
 Alpha  occ. eigenvalues --   -0.91981  -0.90927  -0.89884  -0.88630  -0.86701
 Alpha  occ. eigenvalues --   -0.85266  -0.83400  -0.83034  -0.81979  -0.80522
 Alpha  occ. eigenvalues --   -0.79466  -0.78942  -0.77783  -0.77093  -0.76126
 Alpha  occ. eigenvalues --   -0.75901  -0.74927  -0.74625  -0.74335  -0.73813
 Alpha  occ. eigenvalues --   -0.73644  -0.73143  -0.72634  -0.71871  -0.71357
 Alpha  occ. eigenvalues --   -0.70207  -0.69412  -0.68883  -0.68245  -0.67834
 Alpha  occ. eigenvalues --   -0.67214  -0.66942  -0.66404  -0.65347  -0.65090
 Alpha  occ. eigenvalues --   -0.64840  -0.64433  -0.64234  -0.63616  -0.63285
 Alpha  occ. eigenvalues --   -0.62898  -0.62706  -0.62585  -0.62167  -0.61826
 Alpha  occ. eigenvalues --   -0.61482  -0.61226  -0.61056  -0.60193  -0.59896
 Alpha  occ. eigenvalues --   -0.59578  -0.59171  -0.58797  -0.58447  -0.58109
 Alpha  occ. eigenvalues --   -0.57558  -0.57314  -0.57052  -0.56944  -0.56531
 Alpha  occ. eigenvalues --   -0.56066  -0.55821  -0.55501  -0.54930  -0.54706
 Alpha  occ. eigenvalues --   -0.54176  -0.54117  -0.53725  -0.53523  -0.52907
 Alpha  occ. eigenvalues --   -0.52814  -0.52776  -0.52165  -0.51847  -0.51728
 Alpha  occ. eigenvalues --   -0.51184  -0.50937  -0.50612  -0.50489  -0.50172
 Alpha  occ. eigenvalues --   -0.50031  -0.49732  -0.49180  -0.49049  -0.48701
 Alpha  occ. eigenvalues --   -0.48685  -0.48420  -0.47930  -0.47825  -0.47589
 Alpha  occ. eigenvalues --   -0.47294  -0.46773  -0.46552  -0.46439  -0.46281
 Alpha  occ. eigenvalues --   -0.46156  -0.45774  -0.45703  -0.45568  -0.45416
 Alpha  occ. eigenvalues --   -0.45243  -0.45069  -0.45018  -0.44472  -0.43954
 Alpha  occ. eigenvalues --   -0.43595  -0.43397  -0.42853  -0.42082  -0.41957
 Alpha  occ. eigenvalues --   -0.41873  -0.41321  -0.40495  -0.38839  -0.38570
 Alpha  occ. eigenvalues --   -0.37687  -0.37176  -0.34938  -0.34733  -0.34489
 Alpha  occ. eigenvalues --   -0.33433  -0.32973  -0.32918  -0.32056  -0.26719
 Alpha  occ. eigenvalues --   -0.21035
 Alpha virt. eigenvalues --   -0.07932  -0.02071  -0.00053   0.01588   0.01873
 Alpha virt. eigenvalues --    0.02309   0.02729   0.03290   0.03727   0.05259
 Alpha virt. eigenvalues --    0.06523   0.07099   0.07614   0.07876   0.08572

 Mulliken charges:
               1
     1  Mg   0.425065
     2  C   -0.049752
     3  C   -0.083140
     4  C   -0.061431
     5  C   -0.079078
     6  N   -0.286697
     7  C    0.104267
     8  C   -0.012414
     9  C    0.003369
    10  C    0.127951
    11  C   -0.055570
    12  C   -0.019146
    13  C    0.007905
    14  C    0.462094
    15  O   -0.530403
    16  O   -0.258088
    17  N   -0.327776
    18  C    0.104060
    19  C    0.017075
    20  C   -0.041942
    21  C    0.136227
    22  C   -0.041881
    23  C    0.321376
    24  O   -0.515953
    25  C   -0.035087
    26  N   -0.267536
    27  C    0.137273
    28  C    0.005920
    29  C    0.019617
    30  C    0.123688
    31  C   -0.056698
    32  C   -0.027774
    33  C   -0.067454
    34  N   -0.300192
    35  C    0.092073
    36  C    0.033461
    37  C   -0.043319
    38  C    0.119853
    39  C   -0.041466
    40  C    0.340026
    41  O   -0.508525
    42  C    0.052614
    43  C    0.490906
    44  O   -0.508866
    45  O   -0.262568
    46  C    0.069142
    47  C    0.093380
    48  C   -0.112868
    49  C    0.016439
    50  C   -0.042058
    51  C   -0.025257
    52  C   -0.031414
    53  C   -0.039485
    54  C   -0.011049
    55  C   -0.060512
    56  C   -0.026542
    57  C   -0.037916
    58  C   -0.048052
    59  C   -0.011904
    60  C   -0.063415
    61  C   -0.025812
    62  C   -0.034466
    63  C   -0.034117
    64  C   -0.009685
    65  C   -0.060357
    66  C   -0.056687
    67  H    0.023647
    68  H    0.046097
    69  H    0.030188
    70  H    0.053672
    71  H    0.035623
    72  H    0.023111
    73  H    0.018187
    74  H    0.025766
    75  H    0.016277
    76  H    0.040350
    77  H    0.043316
    78  H    0.043938
    79  H    0.017302
    80  H    0.028752
    81  H    0.033126
    82  H    0.017858
    83  H    0.038398
    84  H    0.043143
    85  H    0.031904
    86  H    0.028974
    87  H    0.024767
    88  H    0.025085
    89  H    0.013586
    90  H    0.027285
    91  H    0.017190
    92  H    0.023299
    93  H    0.031442
    94  H    0.007724
    95  H    0.026451
    96  H    0.041505
    97  H    0.034431
    98  H    0.048142
    99  H    0.053605
   100  H    0.036473
   101  H    0.033892
   102  H    0.047884
   103  H    0.038420
   104  H    0.024045
   105  H    0.040057
   106  H    0.023613
   107  H    0.036814
   108  H    0.021168
   109  H    0.026639
   110  H    0.018564
   111  H    0.025940
   112  H    0.016700
   113  H    0.011226
   114  H    0.016845
   115  H    0.018852
   116  H    0.022778
   117  H    0.010654
   118  H    0.015830
   119  H    0.032807
   120  H    0.025558
   121  H    0.009886
   122  H    0.023945
   123  H    0.007618
   124  H    0.025422
   125  H    0.007925
   126  H    0.023789
   127  H    0.021043
   128  H    0.008239
   129  H    0.024215
   130  H    0.019487
   131  H    0.022903
   132  H    0.022581
   133  H    0.019733
   134  H    0.021748
   135  H    0.024017
   136  H    0.025071
   137  H    0.003475
   138  H    0.002780
   139  H    0.014534
   140  H    0.023261
 Sum of Mulliken charges =  -0.00000

 Dipole moment (field-independent basis, Debye):
    X=              5.6563    Y=              6.6223    Z=             -1.9374  Tot=              8.9220
 N-N= 4.261132456024D+03 E-N= 0.000000000000D+00  KE=-9.196693280110D+03
 Leave Link  601 at Wed Apr 27 01:04:45 2022, MaxMem=  6710886400 cpu:               1.0 elap:               0.1
 (Enter /sw/apps/gaussian-16.0/g16/l9999.exe)
 1\1\GINC-BP1-COMPUTE163\SP\RZINDO CIS\STO-3G\C55H74Mg1N4O6\OF15641\27-
 Apr-2022\0\\#p ZINDO=(nstates=5)\\step_101_chromophore_19 ZINDO\\0,1\M
 g,0,25.25,51.004,26.948\C,0,22.943,51.938,29.339\C,0,27.515,50.171,29.
 456\C,0,27.832,50.574,24.594\C,0,23.212,52.145,24.438\N,0,25.229,51.18
 1,29.104\C,0,24.131,51.468,29.93\C,0,24.42,51.333,31.459\C,0,25.941,50
 .694,31.372\C,0,26.267,50.707,29.895\C,0,26.982,51.565,32.172\C,0,23.4
 4,50.434,32.338\C,0,23.969,50.037,33.683\C,0,23.377,50.718,34.956\O,0,

 Normal termination of Gaussian 16 at Wed Apr 27 01:04:45 2022.
