 Gaussian 16, Revision A.03,
 Gaussian 16:  ES64L-G16RevA.03 25-Dec-2016

 ------------------------------
 #p blyp/Def2SVP td=(nstates=5)
 ------------------------------

 ---------------------------------------------------
 step_1101_chromophore_22 TDDFT with blyp functional
 ---------------------------------------------------
 Symbolic Z-matrix:
 Charge =  0 Multiplicity = 1

                         Standard orientation:
 ---------------------------------------------------------------------
 Center     Atomic      Atomic             Coordinates (Angstroms)
 Number     Number       Type             X           Y           Z
 ---------------------------------------------------------------------
      1         12           0        6.069249    0.626838    0.001591
      2          6           0        3.821683   -2.195690    0.191840
      3          6           0        3.859350    1.993172   -2.119271
      4          6           0        7.969777    3.214145   -0.030855
      5          6           0        8.578365   -1.449893    1.129487
      6          7           0        4.083132   -0.001928   -0.884228
      7          6           0        3.334939   -1.155913   -0.636572
      8          6           0        2.102411   -1.150912   -1.599537
      9          6           0        2.478880   -0.081878   -2.606201
     10          6           0        3.540080    0.714041   -1.935934
     11          6           0        2.985319   -0.642355   -3.938774
     12          6           0        0.762421   -0.965451   -0.860892
     13          6           0       -0.459054   -1.395303   -1.740300
     14          6           0       -1.523054   -2.380564   -1.065467
     15          8           0       -1.284336   -3.442691   -0.469258
     16          8           0       -2.794902   -1.971360   -1.292198
     17          7           0        5.887459    2.390163   -0.865390
     18          6           0        4.828063    2.834741   -1.621996
     19          6           0        4.950347    4.250672   -1.847292
     20          6           0        6.105329    4.621745   -1.105495
     21          6           0        6.716905    3.377086   -0.675588
     22          6           0        3.961794    5.131817   -2.648841
     23          6           0        6.693271    6.034558   -0.745651
     24          8           0        7.638484    6.223567   -0.037118
     25          6           0        6.003356    7.211038   -1.227209
     26          7           0        8.152836    0.753382    0.321447
     27          6           0        8.584375    2.035575    0.473330
     28          6           0       10.081045    2.020177    0.952756
     29          6           0       10.357263    0.472947    0.937347
     30          6           0        8.964999   -0.133132    0.912446
     31          6           0       11.087983    2.957946    0.145475
     32          6           0       11.334406    0.143866    2.140192
     33          6           0       12.840850    0.094634    1.763472
     34          7           0        6.284822   -1.358679    0.568458
     35          6           0        7.318881   -2.027535    1.027287
     36          6           0        6.923578   -3.361095    1.522924
     37          6           0        5.541619   -3.446204    1.290217
     38          6           0        5.173928   -2.209777    0.645723
     39          6           0        7.891189   -4.469089    1.894321
     40          6           0        4.405463   -4.392014    1.369094
     41          8           0        4.220397   -5.520435    1.798268
     42          6           0        3.299690   -3.562326    0.508712
     43          6           0        2.113025   -3.476298    1.365803
     44          8           0        1.948123   -2.747878    2.284964
     45          8           0        1.326081   -4.535079    1.038161
     46          6           0        0.291508   -4.939968    1.973747
     47          6           0       -3.816357   -2.725968   -0.536562
     48          6           0       -5.176543   -2.283987   -1.042587
     49          6           0       -6.368289   -2.640291   -0.489201
     50          6           0       -6.492754   -3.744757    0.533067
     51          6           0       -7.731090   -1.925341   -0.825676
     52          6           0       -8.707889   -2.691821   -1.639117
     53          6           0       -9.611014   -1.690416   -2.474188
     54          6           0      -11.034952   -1.726977   -2.010812
     55          6           0      -11.927885   -2.448285   -2.980124
     56          6           0      -11.601151   -0.288422   -1.716833
     57          6           0      -11.797194   -0.097027   -0.210681
     58          6           0      -13.285767    0.044623    0.236401
     59          6           0      -13.886805    1.445579   -0.095824
     60          6           0      -15.294380    1.273431   -0.802472
     61          6           0      -14.074005    2.239030    1.220436
     62          6           0      -12.838334    3.053081    1.508185
     63          6           0      -13.102162    3.668676    2.946901
     64          6           0      -11.796488    4.298940    3.464647
     65          6           0      -11.645110    4.387434    4.983464
     66          6           0      -11.498244    5.701900    2.879115
     67          1           0        3.268076    2.514735   -2.875373
     68          1           0        8.575799    4.121141    0.016218
     69          1           0        9.462723   -2.044482    1.370097
     70          1           0        2.142716   -2.117350   -2.101360
     71          1           0        1.633300    0.556146   -2.866370
     72          1           0        4.007930   -0.322274   -4.139293
     73          1           0        2.278912   -0.395169   -4.731507
     74          1           0        2.940166   -1.726439   -4.046666
     75          1           0        0.690668    0.084528   -0.578800
     76          1           0        0.671787   -1.519911    0.073539
     77          1           0       -0.142377   -1.701169   -2.737138
     78          1           0       -0.956105   -0.440088   -1.911774
     79          1           0        3.221380    4.482025   -3.114669
     80          1           0        4.454071    5.618233   -3.491736
     81          1           0        3.522247    5.943425   -2.069819
     82          1           0        5.221377    7.510853   -0.529019
     83          1           0        5.676088    7.179435   -2.266948
     84          1           0        6.677891    8.066512   -1.209283
     85          1           0        9.957961    2.395782    1.969195
     86          1           0       10.783000    0.230519   -0.036350
     87          1           0       10.548559    3.333052   -0.725043
     88          1           0       11.980024    2.392528   -0.125389
     89          1           0       11.406190    3.862691    0.663694
     90          1           0       11.094469   -0.840192    2.544353
     91          1           0       11.275824    0.770689    3.029183
     92          1           0       13.149102   -0.946171    1.866286
     93          1           0       13.433386    0.618883    2.512976
     94          1           0       12.946085    0.465572    0.744769
     95          1           0        7.385154   -5.311150    2.365969
     96          1           0        8.681037   -4.093877    2.544986
     97          1           0        8.310206   -4.864928    0.968674
     98          1           0        3.020436   -4.092247   -0.401015
     99          1           0       -0.524169   -4.217563    1.969349
    100          1           0        0.625939   -5.143720    2.991240
    101          1           0       -0.106201   -5.891036    1.618925
    102          1           0       -3.634898   -2.509596    0.515826
    103          1           0       -3.637864   -3.733009   -0.912254
    104          1           0       -5.207817   -1.496259   -1.794863
    105          1           0       -5.539559   -4.236680    0.726219
    106          1           0       -7.215002   -4.488824    0.198149
    107          1           0       -6.665900   -3.171846    1.444895
    108          1           0       -7.648315   -0.951823   -1.308279
    109          1           0       -8.093319   -1.857169    0.200922
    110          1           0       -9.293026   -3.286706   -0.938375
    111          1           0       -8.236710   -3.363785   -2.355965
    112          1           0       -9.519544   -2.173814   -3.447070
    113          1           0       -9.204439   -0.692618   -2.638272
    114          1           0      -11.075157   -2.312782   -1.091820
    115          1           0      -11.408665   -2.658058   -3.914531
    116          1           0      -12.852689   -1.910269   -3.192650
    117          1           0      -12.199036   -3.415911   -2.559332
    118          1           0      -12.549190   -0.179841   -2.243020
    119          1           0      -10.942952    0.469623   -2.140355
    120          1           0      -11.430514    0.914340   -0.042581
    121          1           0      -11.142127   -0.688868    0.428964
    122          1           0      -13.194662   -0.138598    1.307120
    123          1           0      -13.928723   -0.755064   -0.133748
    124          1           0      -13.288565    1.992800   -0.824750
    125          1           0      -15.574609    1.993783   -1.570983
    126          1           0      -16.138534    1.479661   -0.142884
    127          1           0      -15.607251    0.336205   -1.262712
    128          1           0      -14.387417    1.574241    2.025714
    129          1           0      -14.868459    2.981066    1.131255
    130          1           0      -12.891229    3.912613    0.840038
    131          1           0      -11.926382    2.467380    1.392499
    132          1           0      -13.465079    2.920872    3.651637
    133          1           0      -13.937168    4.369635    2.932888
    134          1           0      -10.983957    3.729839    3.014883
    135          1           0      -10.669492    4.773757    5.278668
    136          1           0      -11.857217    3.383220    5.347935
    137          1           0      -12.516618    4.957691    5.305220
    138          1           0      -12.179142    6.002770    2.082598
    139          1           0      -10.494940    5.611634    2.462455
    140          1           0      -11.428400    6.486825    3.632388
 ---------------------------------------------------------------------

 SCF Done:  E(RB-LYP) =  -3007.34659177     A.U. after   21 cycles

 Excitation energies and oscillator strengths:

 Excited State   1:      Singlet-A      1.7987 eV  689.28 nm  f=0.3008  <S**2>=0.000
     245 -> 248       -0.19293
     246 -> 247        0.69186
     246 <- 247       -0.14893
 This state for optimization and/or second-order correction.
 Total Energy, E(TD-HF/TD-DFT) =  -3007.28048941
 Copying the excited state density for this state as the 1-particle RhoCI density.

 Excited State   2:      Singlet-A      2.0088 eV  617.19 nm  f=0.0697  <S**2>=0.000
     244 -> 247        0.18369
     245 -> 247        0.63092
     246 -> 248        0.22646

 Excited State   3:      Singlet-A      2.0972 eV  591.20 nm  f=0.0054  <S**2>=0.000
     244 -> 247        0.68147
     245 -> 247       -0.15934

 Excited State   4:      Singlet-A      2.2733 eV  545.39 nm  f=0.0042  <S**2>=0.000
     243 -> 247        0.69931

 Excited State   5:      Singlet-A      2.3878 eV  519.23 nm  f=0.0000  <S**2>=0.000
     242 -> 247        0.70710

 The electronic state is 1-A.
 Alpha  occ. eigenvalues --  -46.26070 -18.82326 -18.79827 -18.77016 -18.76988
 Alpha  occ. eigenvalues --  -18.75638 -18.75232 -14.02525 -14.02076 -14.00831
 Alpha  occ. eigenvalues --  -14.00321 -10.04778 -10.01714 -10.00757  -9.99624
 Alpha  occ. eigenvalues --   -9.98374  -9.96531  -9.95958  -9.95737  -9.95514
 Alpha  occ. eigenvalues --   -9.95284  -9.95127  -9.94966  -9.94887  -9.94857
 Alpha  occ. eigenvalues --   -9.94156  -9.93996  -9.93841  -9.93827  -9.93654
 Alpha  occ. eigenvalues --   -9.93581  -9.93559  -9.93548  -9.93469  -9.93173
 Alpha  occ. eigenvalues --   -9.93112  -9.92738  -9.92592  -9.92564  -9.92374
 Alpha  occ. eigenvalues --   -9.92338  -9.92248  -9.92157  -9.92152  -9.92054
 Alpha  occ. eigenvalues --   -9.91885  -9.91777  -9.91771  -9.91701  -9.91630
 Alpha  occ. eigenvalues --   -9.91628  -9.91584  -9.91484  -9.91370  -9.91347
 Alpha  occ. eigenvalues --   -9.91335  -9.91240  -9.91173  -9.91152  -9.91089
 Alpha  occ. eigenvalues --   -9.90917  -9.90855  -9.90773  -9.90602  -9.90356
 Alpha  occ. eigenvalues --   -9.90316  -2.90933  -1.71343  -1.70812  -1.70656
 Alpha  occ. eigenvalues --   -0.98244  -0.97088  -0.93195  -0.91921  -0.89548
 Alpha  occ. eigenvalues --   -0.89135  -0.87064  -0.86354  -0.85530  -0.84592
 Alpha  occ. eigenvalues --   -0.75251  -0.74027  -0.73192  -0.72816  -0.72316
 Alpha  occ. eigenvalues --   -0.71996  -0.71082  -0.70990  -0.70648  -0.69890
 Alpha  occ. eigenvalues --   -0.69323  -0.69234  -0.68461  -0.67248  -0.66943
 Alpha  occ. eigenvalues --   -0.66323  -0.65719  -0.65483  -0.64709  -0.64453
 Alpha  occ. eigenvalues --   -0.64169  -0.62410  -0.62136  -0.61560  -0.60258
 Alpha  occ. eigenvalues --   -0.60144  -0.59794  -0.59692  -0.59633  -0.58821
 Alpha  occ. eigenvalues --   -0.58346  -0.57299  -0.56795  -0.55401  -0.54026
 Alpha  occ. eigenvalues --   -0.53809  -0.53743  -0.52543  -0.52255  -0.51303
 Alpha  occ. eigenvalues --   -0.51288  -0.50893  -0.50648  -0.50525  -0.50248
 Alpha  occ. eigenvalues --   -0.49761  -0.49309  -0.48433  -0.47372  -0.46785
 Alpha  occ. eigenvalues --   -0.46471  -0.45653  -0.45610  -0.44835  -0.44115
 Alpha  occ. eigenvalues --   -0.43885  -0.43283  -0.43160  -0.42794  -0.42221
 Alpha  occ. eigenvalues --   -0.42081  -0.41888  -0.41798  -0.40936  -0.40731
 Alpha  occ. eigenvalues --   -0.40489  -0.40464  -0.40271  -0.40135  -0.39952
 Alpha  occ. eigenvalues --   -0.39570  -0.39432  -0.39373  -0.39058  -0.39022
 Alpha  occ. eigenvalues --   -0.38836  -0.38753  -0.38404  -0.38347  -0.38058
 Alpha  occ. eigenvalues --   -0.38027  -0.37896  -0.37729  -0.37451  -0.37107
 Alpha  occ. eigenvalues --   -0.37009  -0.36892  -0.36804  -0.36535  -0.36342
 Alpha  occ. eigenvalues --   -0.36287  -0.36242  -0.35985  -0.35851  -0.35641
 Alpha  occ. eigenvalues --   -0.35360  -0.35291  -0.35171  -0.34938  -0.34809
 Alpha  occ. eigenvalues --   -0.34620  -0.34198  -0.34178  -0.33854  -0.33790
 Alpha  occ. eigenvalues --   -0.33740  -0.33535  -0.33412  -0.33085  -0.32697
 Alpha  occ. eigenvalues --   -0.32541  -0.32450  -0.32437  -0.32321  -0.32051
 Alpha  occ. eigenvalues --   -0.31715  -0.31625  -0.31377  -0.31326  -0.31256
 Alpha  occ. eigenvalues --   -0.31195  -0.31071  -0.30816  -0.30632  -0.30498
 Alpha  occ. eigenvalues --   -0.30405  -0.30325  -0.30109  -0.29810  -0.29662
 Alpha  occ. eigenvalues --   -0.29606  -0.29466  -0.29326  -0.29128  -0.28908
 Alpha  occ. eigenvalues --   -0.28722  -0.28350  -0.28183  -0.27874  -0.27592
 Alpha  occ. eigenvalues --   -0.27578  -0.26908  -0.26782  -0.26467  -0.26253
 Alpha  occ. eigenvalues --   -0.26246  -0.26059  -0.25889  -0.25521  -0.25089
 Alpha  occ. eigenvalues --   -0.24782  -0.24329  -0.23777  -0.23754  -0.23543
 Alpha  occ. eigenvalues --   -0.22619  -0.21944  -0.21830  -0.20809  -0.20785
 Alpha  occ. eigenvalues --   -0.20449  -0.19992  -0.19428  -0.18812  -0.16914
 Alpha  occ. eigenvalues --   -0.15485
 Alpha virt. eigenvalues --   -0.11217  -0.06353  -0.06254  -0.04497  -0.03513
 Alpha virt. eigenvalues --   -0.01854  -0.01543  -0.01304  -0.00247   0.00435
 Alpha virt. eigenvalues --    0.01214   0.02335   0.02397   0.02829   0.02992

 Mulliken charges:
               1
     1  Mg   0.701985
     2  C    0.038106
     3  C   -0.072811
     4  C   -0.057227
     5  C   -0.089692
     6  N   -0.225835
     7  C   -0.061232
     8  C    0.035776
     9  C    0.020655
    10  C    0.033268
    11  C    0.130316
    12  C    0.116522
    13  C    0.113989
    14  C    0.097483
    15  O   -0.210433
    16  O   -0.264624
    17  N   -0.287749
    18  C    0.138301
    19  C   -0.127898
    20  C    0.002702
    21  C    0.071668
    22  C    0.164961
    23  C   -0.063833
    24  O   -0.135325
    25  C    0.139382
    26  N   -0.244539
    27  C    0.034771
    28  C    0.013492
    29  C    0.048842
    30  C    0.004092
    31  C    0.132705
    32  C    0.076495
    33  C    0.063835
    34  N   -0.232453
    35  C    0.138688
    36  C   -0.187932
    37  C    0.050104
    38  C    0.079434
    39  C    0.161026
    40  C    0.029128
    41  O   -0.107625
    42  C   -0.006385
    43  C    0.085783
    44  O   -0.159383
    45  O   -0.257107
    46  C    0.234399
    47  C    0.318481
    48  C   -0.103713
    49  C   -0.186440
    50  C    0.141346
    51  C    0.148151
    52  C    0.049969
    53  C    0.121043
    54  C   -0.080011
    55  C    0.120780
    56  C    0.118774
    57  C    0.049711
    58  C    0.132271
    59  C   -0.019220
    60  C    0.074859
    61  C    0.098850
    62  C    0.048650
    63  C    0.076636
    64  C   -0.069456
    65  C    0.131945
    66  C    0.088861
    67  H   -0.081950
    68  H   -0.041612
    69  H   -0.065608
    70  H   -0.035771
    71  H   -0.041319
    72  H    0.005578
    73  H   -0.016028
    74  H   -0.018724
    75  H   -0.021966
    76  H    0.011610
    77  H    0.005176
    78  H   -0.017720
    79  H   -0.023246
    80  H    0.001993
    81  H    0.011369
    82  H    0.016170
    83  H   -0.009355
    84  H   -0.019146
    85  H   -0.021356
    86  H   -0.010880
    87  H   -0.001501
    88  H   -0.010993
    89  H   -0.005654
    90  H   -0.035430
    91  H   -0.025386
    92  H   -0.012229
    93  H   -0.010080
    94  H    0.000903
    95  H    0.004384
    96  H   -0.000496
    97  H    0.008132
    98  H    0.000302
    99  H    0.005207
   100  H    0.005068
   101  H   -0.000666
   102  H    0.021876
   103  H    0.013469
   104  H   -0.036406
   105  H   -0.016941
   106  H    0.018540
   107  H    0.002242
   108  H   -0.030014
   109  H   -0.031696
   110  H   -0.023588
   111  H   -0.026023
   112  H   -0.045215
   113  H   -0.026219
   114  H   -0.030241
   115  H   -0.025565
   116  H   -0.020411
   117  H   -0.025106
   118  H   -0.037888
   119  H   -0.040019
   120  H   -0.048477
   121  H   -0.029143
   122  H   -0.038742
   123  H   -0.034652
   124  H   -0.029266
   125  H   -0.032365
   126  H   -0.034635
   127  H   -0.024003
   128  H   -0.028443
   129  H   -0.044595
   130  H   -0.022210
   131  H   -0.007594
   132  H   -0.046521
   133  H   -0.037649
   134  H   -0.042434
   135  H   -0.002526
   136  H   -0.027202
   137  H   -0.020000
   138  H   -0.018293
   139  H   -0.025908
   140  H   -0.022226
 Sum of Mulliken charges =  -0.00000

 Dipole moment (field-independent basis, Debye):
    X=             -2.7027    Y=              2.2801    Z=             -3.4080  Tot=              4.9110
 Quadrupole moment (field-independent basis, Debye-Ang):
   XX=           -367.2224   YY=           -425.4558   ZZ=           -402.1055
   XY=              0.4624   XZ=             -5.9301   YZ=             -2.0524

 Normal termination of Gaussian 16 at Wed Apr 27 08:04:26 2022.
