 Gaussian 16, Revision A.03,
 Gaussian 16:  ES64L-G16RevA.03 25-Dec-2016

 -----------------------------------
 #p cam-b3lyp/Def2SVP td=(nstates=5)
 -----------------------------------

 --------------------------------------------------------
 step_1101_chromophore_22 TDDFT with cam-b3lyp functional
 --------------------------------------------------------
 Symbolic Z-matrix:
 Charge =  0 Multiplicity = 1

                         Standard orientation:
 ---------------------------------------------------------------------
 Center     Atomic      Atomic             Coordinates (Angstroms)
 Number     Number       Type             X           Y           Z
 ---------------------------------------------------------------------
      1         12           0        6.069249    0.626838    0.001591
      2          6           0        3.821683   -2.195690    0.191840
      3          6           0        3.859350    1.993172   -2.119271
      4          6           0        7.969777    3.214145   -0.030855
      5          6           0        8.578365   -1.449893    1.129487
      6          7           0        4.083132   -0.001928   -0.884228
      7          6           0        3.334939   -1.155913   -0.636572
      8          6           0        2.102411   -1.150912   -1.599537
      9          6           0        2.478880   -0.081878   -2.606201
     10          6           0        3.540080    0.714041   -1.935934
     11          6           0        2.985319   -0.642355   -3.938774
     12          6           0        0.762421   -0.965451   -0.860892
     13          6           0       -0.459054   -1.395303   -1.740300
     14          6           0       -1.523054   -2.380564   -1.065467
     15          8           0       -1.284336   -3.442691   -0.469258
     16          8           0       -2.794902   -1.971360   -1.292198
     17          7           0        5.887459    2.390163   -0.865390
     18          6           0        4.828063    2.834741   -1.621996
     19          6           0        4.950347    4.250672   -1.847292
     20          6           0        6.105329    4.621745   -1.105495
     21          6           0        6.716905    3.377086   -0.675588
     22          6           0        3.961794    5.131817   -2.648841
     23          6           0        6.693271    6.034558   -0.745651
     24          8           0        7.638484    6.223567   -0.037118
     25          6           0        6.003356    7.211038   -1.227209
     26          7           0        8.152836    0.753382    0.321447
     27          6           0        8.584375    2.035575    0.473330
     28          6           0       10.081045    2.020177    0.952756
     29          6           0       10.357263    0.472947    0.937347
     30          6           0        8.964999   -0.133132    0.912446
     31          6           0       11.087983    2.957946    0.145475
     32          6           0       11.334406    0.143866    2.140192
     33          6           0       12.840850    0.094634    1.763472
     34          7           0        6.284822   -1.358679    0.568458
     35          6           0        7.318881   -2.027535    1.027287
     36          6           0        6.923578   -3.361095    1.522924
     37          6           0        5.541619   -3.446204    1.290217
     38          6           0        5.173928   -2.209777    0.645723
     39          6           0        7.891189   -4.469089    1.894321
     40          6           0        4.405463   -4.392014    1.369094
     41          8           0        4.220397   -5.520435    1.798268
     42          6           0        3.299690   -3.562326    0.508712
     43          6           0        2.113025   -3.476298    1.365803
     44          8           0        1.948123   -2.747878    2.284964
     45          8           0        1.326081   -4.535079    1.038161
     46          6           0        0.291508   -4.939968    1.973747
     47          6           0       -3.816357   -2.725968   -0.536562
     48          6           0       -5.176543   -2.283987   -1.042587
     49          6           0       -6.368289   -2.640291   -0.489201
     50          6           0       -6.492754   -3.744757    0.533067
     51          6           0       -7.731090   -1.925341   -0.825676
     52          6           0       -8.707889   -2.691821   -1.639117
     53          6           0       -9.611014   -1.690416   -2.474188
     54          6           0      -11.034952   -1.726977   -2.010812
     55          6           0      -11.927885   -2.448285   -2.980124
     56          6           0      -11.601151   -0.288422   -1.716833
     57          6           0      -11.797194   -0.097027   -0.210681
     58          6           0      -13.285767    0.044623    0.236401
     59          6           0      -13.886805    1.445579   -0.095824
     60          6           0      -15.294380    1.273431   -0.802472
     61          6           0      -14.074005    2.239030    1.220436
     62          6           0      -12.838334    3.053081    1.508185
     63          6           0      -13.102162    3.668676    2.946901
     64          6           0      -11.796488    4.298940    3.464647
     65          6           0      -11.645110    4.387434    4.983464
     66          6           0      -11.498244    5.701900    2.879115
     67          1           0        3.268076    2.514735   -2.875373
     68          1           0        8.575799    4.121141    0.016218
     69          1           0        9.462723   -2.044482    1.370097
     70          1           0        2.142716   -2.117350   -2.101360
     71          1           0        1.633300    0.556146   -2.866370
     72          1           0        4.007930   -0.322274   -4.139293
     73          1           0        2.278912   -0.395169   -4.731507
     74          1           0        2.940166   -1.726439   -4.046666
     75          1           0        0.690668    0.084528   -0.578800
     76          1           0        0.671787   -1.519911    0.073539
     77          1           0       -0.142377   -1.701169   -2.737138
     78          1           0       -0.956105   -0.440088   -1.911774
     79          1           0        3.221380    4.482025   -3.114669
     80          1           0        4.454071    5.618233   -3.491736
     81          1           0        3.522247    5.943425   -2.069819
     82          1           0        5.221377    7.510853   -0.529019
     83          1           0        5.676088    7.179435   -2.266948
     84          1           0        6.677891    8.066512   -1.209283
     85          1           0        9.957961    2.395782    1.969195
     86          1           0       10.783000    0.230519   -0.036350
     87          1           0       10.548559    3.333052   -0.725043
     88          1           0       11.980024    2.392528   -0.125389
     89          1           0       11.406190    3.862691    0.663694
     90          1           0       11.094469   -0.840192    2.544353
     91          1           0       11.275824    0.770689    3.029183
     92          1           0       13.149102   -0.946171    1.866286
     93          1           0       13.433386    0.618883    2.512976
     94          1           0       12.946085    0.465572    0.744769
     95          1           0        7.385154   -5.311150    2.365969
     96          1           0        8.681037   -4.093877    2.544986
     97          1           0        8.310206   -4.864928    0.968674
     98          1           0        3.020436   -4.092247   -0.401015
     99          1           0       -0.524169   -4.217563    1.969349
    100          1           0        0.625939   -5.143720    2.991240
    101          1           0       -0.106201   -5.891036    1.618925
    102          1           0       -3.634898   -2.509596    0.515826
    103          1           0       -3.637864   -3.733009   -0.912254
    104          1           0       -5.207817   -1.496259   -1.794863
    105          1           0       -5.539559   -4.236680    0.726219
    106          1           0       -7.215002   -4.488824    0.198149
    107          1           0       -6.665900   -3.171846    1.444895
    108          1           0       -7.648315   -0.951823   -1.308279
    109          1           0       -8.093319   -1.857169    0.200922
    110          1           0       -9.293026   -3.286706   -0.938375
    111          1           0       -8.236710   -3.363785   -2.355965
    112          1           0       -9.519544   -2.173814   -3.447070
    113          1           0       -9.204439   -0.692618   -2.638272
    114          1           0      -11.075157   -2.312782   -1.091820
    115          1           0      -11.408665   -2.658058   -3.914531
    116          1           0      -12.852689   -1.910269   -3.192650
    117          1           0      -12.199036   -3.415911   -2.559332
    118          1           0      -12.549190   -0.179841   -2.243020
    119          1           0      -10.942952    0.469623   -2.140355
    120          1           0      -11.430514    0.914340   -0.042581
    121          1           0      -11.142127   -0.688868    0.428964
    122          1           0      -13.194662   -0.138598    1.307120
    123          1           0      -13.928723   -0.755064   -0.133748
    124          1           0      -13.288565    1.992800   -0.824750
    125          1           0      -15.574609    1.993783   -1.570983
    126          1           0      -16.138534    1.479661   -0.142884
    127          1           0      -15.607251    0.336205   -1.262712
    128          1           0      -14.387417    1.574241    2.025714
    129          1           0      -14.868459    2.981066    1.131255
    130          1           0      -12.891229    3.912613    0.840038
    131          1           0      -11.926382    2.467380    1.392499
    132          1           0      -13.465079    2.920872    3.651637
    133          1           0      -13.937168    4.369635    2.932888
    134          1           0      -10.983957    3.729839    3.014883
    135          1           0      -10.669492    4.773757    5.278668
    136          1           0      -11.857217    3.383220    5.347935
    137          1           0      -12.516618    4.957691    5.305220
    138          1           0      -12.179142    6.002770    2.082598
    139          1           0      -10.494940    5.611634    2.462455
    140          1           0      -11.428400    6.486825    3.632388
 ---------------------------------------------------------------------

 SCF Done:  E(RCAM-B3LYP) =  -3007.14917395     A.U. after   17 cycles

 Excitation energies and oscillator strengths:

 Excited State   1:      Singlet-A      1.6993 eV  729.60 nm  f=0.3641  <S**2>=0.000
     245 -> 248       -0.18076
     246 -> 247        0.68567
     245 <- 248       -0.10926
 This state for optimization and/or second-order correction.
 Total Energy, E(TD-HF/TD-DFT) =  -3007.08672431
 Copying the excited state density for this state as the 1-particle RhoCI density.

 Excited State   2:      Singlet-A      2.2442 eV  552.46 nm  f=0.1152  <S**2>=0.000
     245 -> 247        0.64173
     246 -> 248        0.28880

 Excited State   3:      Singlet-A      3.5337 eV  350.86 nm  f=0.0986  <S**2>=0.000
     239 -> 247        0.15721
     239 -> 249       -0.15894
     242 -> 247        0.44594
     243 -> 247       -0.35597
     245 -> 247        0.10363
     246 -> 248       -0.27571

 Excited State   4:      Singlet-A      3.5619 eV  348.08 nm  f=0.3401  <S**2>=0.000
     243 -> 247       -0.46011
     245 -> 247       -0.20044
     246 -> 248        0.47948

 Excited State   5:      Singlet-A      3.6597 eV  338.78 nm  f=0.2872  <S**2>=0.000
     239 -> 247        0.37398
     239 -> 249       -0.25559
     242 -> 247        0.17978
     243 -> 247        0.31057
     245 -> 247       -0.16253
     246 -> 248        0.28862

 The electronic state is 1-A.
 Alpha  occ. eigenvalues --  -46.87534 -19.25151 -19.22837 -19.20467 -19.19952
 Alpha  occ. eigenvalues --  -19.18676 -19.18517 -14.41561 -14.40705 -14.39377
 Alpha  occ. eigenvalues --  -14.38623 -10.40146 -10.37197 -10.36456 -10.34609
 Alpha  occ. eigenvalues --  -10.32424 -10.31206 -10.30291 -10.30209 -10.29568
 Alpha  occ. eigenvalues --  -10.29517 -10.29414 -10.29411 -10.29007 -10.28897
 Alpha  occ. eigenvalues --  -10.28285 -10.28275 -10.28230 -10.28037 -10.27910
 Alpha  occ. eigenvalues --  -10.27909 -10.27518 -10.27477 -10.27317 -10.27302
 Alpha  occ. eigenvalues --  -10.27248 -10.27161 -10.26319 -10.26311 -10.26258
 Alpha  occ. eigenvalues --  -10.26147 -10.26135 -10.26114 -10.25972 -10.25817
 Alpha  occ. eigenvalues --  -10.25813 -10.25785 -10.25782 -10.25756 -10.25455
 Alpha  occ. eigenvalues --  -10.25268 -10.25230 -10.25201 -10.25140 -10.25033
 Alpha  occ. eigenvalues --  -10.25019 -10.24934 -10.24792 -10.24783 -10.24728
 Alpha  occ. eigenvalues --  -10.24559 -10.24499 -10.24347 -10.24237 -10.23928
 Alpha  occ. eigenvalues --  -10.23855  -3.16310  -1.91191  -1.90755  -1.90637
 Alpha  occ. eigenvalues --   -1.16659  -1.15867  -1.11523  -1.10546  -1.07647
 Alpha  occ. eigenvalues --   -1.06948  -1.04647  -1.04021  -1.03158  -1.02200
 Alpha  occ. eigenvalues --   -0.92578  -0.90895  -0.90002  -0.89610  -0.89031
 Alpha  occ. eigenvalues --   -0.88645  -0.87636  -0.87575  -0.87212  -0.86414
 Alpha  occ. eigenvalues --   -0.85891  -0.85631  -0.84751  -0.83389  -0.83092
 Alpha  occ. eigenvalues --   -0.82440  -0.81773  -0.81346  -0.80619  -0.80268
 Alpha  occ. eigenvalues --   -0.79992  -0.78059  -0.77803  -0.77018  -0.75645
 Alpha  occ. eigenvalues --   -0.75478  -0.75116  -0.74976  -0.74927  -0.74030
 Alpha  occ. eigenvalues --   -0.73401  -0.72383  -0.71691  -0.70191  -0.68751
 Alpha  occ. eigenvalues --   -0.68357  -0.68289  -0.66919  -0.66601  -0.65500
 Alpha  occ. eigenvalues --   -0.65440  -0.65031  -0.64670  -0.64609  -0.64141
 Alpha  occ. eigenvalues --   -0.63739  -0.63132  -0.62279  -0.61056  -0.60393
 Alpha  occ. eigenvalues --   -0.60119  -0.59230  -0.59064  -0.58194  -0.57653
 Alpha  occ. eigenvalues --   -0.57192  -0.56947  -0.56374  -0.55983  -0.55298
 Alpha  occ. eigenvalues --   -0.55269  -0.55057  -0.54682  -0.53857  -0.53737
 Alpha  occ. eigenvalues --   -0.53329  -0.53161  -0.53064  -0.52924  -0.52716
 Alpha  occ. eigenvalues --   -0.52460  -0.52236  -0.51922  -0.51614  -0.51494
 Alpha  occ. eigenvalues --   -0.51374  -0.51172  -0.51045  -0.50786  -0.50734
 Alpha  occ. eigenvalues --   -0.50614  -0.50304  -0.50220  -0.49885  -0.49809
 Alpha  occ. eigenvalues --   -0.49264  -0.49193  -0.49076  -0.48949  -0.48871
 Alpha  occ. eigenvalues --   -0.48732  -0.48430  -0.48269  -0.48194  -0.47754
 Alpha  occ. eigenvalues --   -0.47375  -0.47264  -0.47180  -0.46834  -0.46762
 Alpha  occ. eigenvalues --   -0.46420  -0.46266  -0.45864  -0.45736  -0.45648
 Alpha  occ. eigenvalues --   -0.45349  -0.45315  -0.45162  -0.45111  -0.44504
 Alpha  occ. eigenvalues --   -0.44417  -0.44067  -0.43999  -0.43834  -0.43748
 Alpha  occ. eigenvalues --   -0.43474  -0.43292  -0.42911  -0.42751  -0.42708
 Alpha  occ. eigenvalues --   -0.42664  -0.42564  -0.42316  -0.41940  -0.41877
 Alpha  occ. eigenvalues --   -0.41763  -0.41679  -0.41445  -0.41053  -0.40760
 Alpha  occ. eigenvalues --   -0.40755  -0.40654  -0.40509  -0.40340  -0.40303
 Alpha  occ. eigenvalues --   -0.40072  -0.39838  -0.39138  -0.39090  -0.38771
 Alpha  occ. eigenvalues --   -0.38380  -0.38031  -0.37727  -0.37258  -0.37216
 Alpha  occ. eigenvalues --   -0.37031  -0.36934  -0.36720  -0.36551  -0.35823
 Alpha  occ. eigenvalues --   -0.35625  -0.35402  -0.34772  -0.34131  -0.34031
 Alpha  occ. eigenvalues --   -0.33556  -0.33470  -0.32883  -0.31415  -0.31298
 Alpha  occ. eigenvalues --   -0.30599  -0.30088  -0.29745  -0.29673  -0.23636
 Alpha  occ. eigenvalues --   -0.20813
 Alpha virt. eigenvalues --   -0.08207  -0.01133   0.00282   0.02372   0.03288
 Alpha virt. eigenvalues --    0.04330   0.05857   0.06054   0.06735   0.07339
 Alpha virt. eigenvalues --    0.08368   0.08648   0.09045   0.09226   0.09600

 Mulliken charges:
               1
     1  Mg   0.837510
     2  C    0.014580
     3  C   -0.078293
     4  C   -0.077744
     5  C   -0.102786
     6  N   -0.288084
     7  C   -0.016567
     8  C   -0.015408
     9  C   -0.038851
    10  C    0.040750
    11  C    0.074307
    12  C    0.065081
    13  C    0.048630
    14  C    0.175288
    15  O   -0.253878
    16  O   -0.329507
    17  N   -0.379939
    18  C    0.138557
    19  C   -0.134997
    20  C   -0.067531
    21  C    0.094410
    22  C    0.113829
    23  C    0.019406
    24  O   -0.176697
    25  C    0.050232
    26  N   -0.318441
    27  C    0.058232
    28  C   -0.043090
    29  C   -0.014904
    30  C    0.031966
    31  C    0.075420
    32  C    0.020636
    33  C    0.006524
    34  N   -0.320751
    35  C    0.148214
    36  C   -0.177741
    37  C   -0.029543
    38  C    0.108961
    39  C    0.109136
    40  C    0.129603
    41  O   -0.144006
    42  C   -0.084538
    43  C    0.174867
    44  O   -0.193583
    45  O   -0.319310
    46  C    0.194918
    47  C    0.281762
    48  C   -0.121675
    49  C   -0.207435
    50  C    0.076443
    51  C    0.094759
    52  C   -0.002053
    53  C    0.060163
    54  C   -0.138235
    55  C    0.064708
    56  C    0.069871
    57  C   -0.004981
    58  C    0.080199
    59  C   -0.083767
    60  C    0.018628
    61  C    0.044872
    62  C   -0.001896
    63  C    0.024308
    64  C   -0.130702
    65  C    0.070427
    66  C    0.029185
    67  H   -0.047730
    68  H   -0.002580
    69  H   -0.031174
    70  H   -0.000149
    71  H   -0.004940
    72  H    0.032344
    73  H    0.008455
    74  H    0.006230
    75  H    0.010024
    76  H    0.039277
    77  H    0.035534
    78  H    0.018600
    79  H    0.003142
    80  H    0.027096
    81  H    0.036114
    82  H    0.045042
    83  H    0.018614
    84  H    0.016204
    85  H    0.013617
    86  H    0.024569
    87  H    0.023871
    88  H    0.010644
    89  H    0.019743
    90  H   -0.006690
    91  H    0.004799
    92  H    0.011696
    93  H    0.014507
    94  H    0.019854
    95  H    0.032287
    96  H    0.023843
    97  H    0.034906
    98  H    0.044808
    99  H    0.027794
   100  H    0.028419
   101  H    0.024144
   102  H    0.047136
   103  H    0.044375
   104  H   -0.000411
   105  H    0.008913
   106  H    0.041416
   107  H    0.026957
   108  H   -0.000481
   109  H   -0.004763
   110  H    0.002122
   111  H    0.003898
   112  H   -0.013222
   113  H    0.002145
   114  H    0.000944
   115  H   -0.001265
   116  H    0.003530
   117  H   -0.000375
   118  H   -0.010879
   119  H   -0.010987
   120  H   -0.021452
   121  H   -0.001506
   122  H   -0.008631
   123  H   -0.006598
   124  H    0.002782
   125  H   -0.006493
   126  H   -0.009656
   127  H    0.000419
   128  H   -0.000107
   129  H   -0.014299
   130  H    0.004566
   131  H    0.015652
   132  H   -0.017377
   133  H   -0.008637
   134  H   -0.010309
   135  H    0.021756
   136  H   -0.002445
   137  H    0.003386
   138  H    0.005549
   139  H   -0.001357
   140  H    0.003340
 Sum of Mulliken charges =  -0.00000

 Dipole moment (field-independent basis, Debye):
    X=             -2.8685    Y=              2.2496    Z=             -3.5079  Tot=              5.0591
 Quadrupole moment (field-independent basis, Debye-Ang):
   XX=           -365.7543   YY=           -421.9835   ZZ=           -401.1160
   XY=             -0.7765   XZ=             -5.4368   YZ=             -3.7619

 Normal termination of Gaussian 16 at Wed Apr 27 07:13:18 2022.
