 Gaussian 16, Revision A.03,
 Gaussian 16:  ES64L-G16RevA.03 25-Dec-2016

 ---------------------------------
 #p PBE1PBE/Def2SVP td=(nstates=5)
 ---------------------------------

 ------------------------------------------------------
 step_1101_chromophore_22 TDDFT with PBE1PBE functional
 ------------------------------------------------------
 Symbolic Z-matrix:
 Charge =  0 Multiplicity = 1

                         Standard orientation:
 ---------------------------------------------------------------------
 Center     Atomic      Atomic             Coordinates (Angstroms)
 Number     Number       Type             X           Y           Z
 ---------------------------------------------------------------------
      1         12           0        6.069249    0.626838    0.001591
      2          6           0        3.821683   -2.195690    0.191840
      3          6           0        3.859350    1.993172   -2.119271
      4          6           0        7.969777    3.214145   -0.030855
      5          6           0        8.578365   -1.449893    1.129487
      6          7           0        4.083132   -0.001928   -0.884228
      7          6           0        3.334939   -1.155913   -0.636572
      8          6           0        2.102411   -1.150912   -1.599537
      9          6           0        2.478880   -0.081878   -2.606201
     10          6           0        3.540080    0.714041   -1.935934
     11          6           0        2.985319   -0.642355   -3.938774
     12          6           0        0.762421   -0.965451   -0.860892
     13          6           0       -0.459054   -1.395303   -1.740300
     14          6           0       -1.523054   -2.380564   -1.065467
     15          8           0       -1.284336   -3.442691   -0.469258
     16          8           0       -2.794902   -1.971360   -1.292198
     17          7           0        5.887459    2.390163   -0.865390
     18          6           0        4.828063    2.834741   -1.621996
     19          6           0        4.950347    4.250672   -1.847292
     20          6           0        6.105329    4.621745   -1.105495
     21          6           0        6.716905    3.377086   -0.675588
     22          6           0        3.961794    5.131817   -2.648841
     23          6           0        6.693271    6.034558   -0.745651
     24          8           0        7.638484    6.223567   -0.037118
     25          6           0        6.003356    7.211038   -1.227209
     26          7           0        8.152836    0.753382    0.321447
     27          6           0        8.584375    2.035575    0.473330
     28          6           0       10.081045    2.020177    0.952756
     29          6           0       10.357263    0.472947    0.937347
     30          6           0        8.964999   -0.133132    0.912446
     31          6           0       11.087983    2.957946    0.145475
     32          6           0       11.334406    0.143866    2.140192
     33          6           0       12.840850    0.094634    1.763472
     34          7           0        6.284822   -1.358679    0.568458
     35          6           0        7.318881   -2.027535    1.027287
     36          6           0        6.923578   -3.361095    1.522924
     37          6           0        5.541619   -3.446204    1.290217
     38          6           0        5.173928   -2.209777    0.645723
     39          6           0        7.891189   -4.469089    1.894321
     40          6           0        4.405463   -4.392014    1.369094
     41          8           0        4.220397   -5.520435    1.798268
     42          6           0        3.299690   -3.562326    0.508712
     43          6           0        2.113025   -3.476298    1.365803
     44          8           0        1.948123   -2.747878    2.284964
     45          8           0        1.326081   -4.535079    1.038161
     46          6           0        0.291508   -4.939968    1.973747
     47          6           0       -3.816357   -2.725968   -0.536562
     48          6           0       -5.176543   -2.283987   -1.042587
     49          6           0       -6.368289   -2.640291   -0.489201
     50          6           0       -6.492754   -3.744757    0.533067
     51          6           0       -7.731090   -1.925341   -0.825676
     52          6           0       -8.707889   -2.691821   -1.639117
     53          6           0       -9.611014   -1.690416   -2.474188
     54          6           0      -11.034952   -1.726977   -2.010812
     55          6           0      -11.927885   -2.448285   -2.980124
     56          6           0      -11.601151   -0.288422   -1.716833
     57          6           0      -11.797194   -0.097027   -0.210681
     58          6           0      -13.285767    0.044623    0.236401
     59          6           0      -13.886805    1.445579   -0.095824
     60          6           0      -15.294380    1.273431   -0.802472
     61          6           0      -14.074005    2.239030    1.220436
     62          6           0      -12.838334    3.053081    1.508185
     63          6           0      -13.102162    3.668676    2.946901
     64          6           0      -11.796488    4.298940    3.464647
     65          6           0      -11.645110    4.387434    4.983464
     66          6           0      -11.498244    5.701900    2.879115
     67          1           0        3.268076    2.514735   -2.875373
     68          1           0        8.575799    4.121141    0.016218
     69          1           0        9.462723   -2.044482    1.370097
     70          1           0        2.142716   -2.117350   -2.101360
     71          1           0        1.633300    0.556146   -2.866370
     72          1           0        4.007930   -0.322274   -4.139293
     73          1           0        2.278912   -0.395169   -4.731507
     74          1           0        2.940166   -1.726439   -4.046666
     75          1           0        0.690668    0.084528   -0.578800
     76          1           0        0.671787   -1.519911    0.073539
     77          1           0       -0.142377   -1.701169   -2.737138
     78          1           0       -0.956105   -0.440088   -1.911774
     79          1           0        3.221380    4.482025   -3.114669
     80          1           0        4.454071    5.618233   -3.491736
     81          1           0        3.522247    5.943425   -2.069819
     82          1           0        5.221377    7.510853   -0.529019
     83          1           0        5.676088    7.179435   -2.266948
     84          1           0        6.677891    8.066512   -1.209283
     85          1           0        9.957961    2.395782    1.969195
     86          1           0       10.783000    0.230519   -0.036350
     87          1           0       10.548559    3.333052   -0.725043
     88          1           0       11.980024    2.392528   -0.125389
     89          1           0       11.406190    3.862691    0.663694
     90          1           0       11.094469   -0.840192    2.544353
     91          1           0       11.275824    0.770689    3.029183
     92          1           0       13.149102   -0.946171    1.866286
     93          1           0       13.433386    0.618883    2.512976
     94          1           0       12.946085    0.465572    0.744769
     95          1           0        7.385154   -5.311150    2.365969
     96          1           0        8.681037   -4.093877    2.544986
     97          1           0        8.310206   -4.864928    0.968674
     98          1           0        3.020436   -4.092247   -0.401015
     99          1           0       -0.524169   -4.217563    1.969349
    100          1           0        0.625939   -5.143720    2.991240
    101          1           0       -0.106201   -5.891036    1.618925
    102          1           0       -3.634898   -2.509596    0.515826
    103          1           0       -3.637864   -3.733009   -0.912254
    104          1           0       -5.207817   -1.496259   -1.794863
    105          1           0       -5.539559   -4.236680    0.726219
    106          1           0       -7.215002   -4.488824    0.198149
    107          1           0       -6.665900   -3.171846    1.444895
    108          1           0       -7.648315   -0.951823   -1.308279
    109          1           0       -8.093319   -1.857169    0.200922
    110          1           0       -9.293026   -3.286706   -0.938375
    111          1           0       -8.236710   -3.363785   -2.355965
    112          1           0       -9.519544   -2.173814   -3.447070
    113          1           0       -9.204439   -0.692618   -2.638272
    114          1           0      -11.075157   -2.312782   -1.091820
    115          1           0      -11.408665   -2.658058   -3.914531
    116          1           0      -12.852689   -1.910269   -3.192650
    117          1           0      -12.199036   -3.415911   -2.559332
    118          1           0      -12.549190   -0.179841   -2.243020
    119          1           0      -10.942952    0.469623   -2.140355
    120          1           0      -11.430514    0.914340   -0.042581
    121          1           0      -11.142127   -0.688868    0.428964
    122          1           0      -13.194662   -0.138598    1.307120
    123          1           0      -13.928723   -0.755064   -0.133748
    124          1           0      -13.288565    1.992800   -0.824750
    125          1           0      -15.574609    1.993783   -1.570983
    126          1           0      -16.138534    1.479661   -0.142884
    127          1           0      -15.607251    0.336205   -1.262712
    128          1           0      -14.387417    1.574241    2.025714
    129          1           0      -14.868459    2.981066    1.131255
    130          1           0      -12.891229    3.912613    0.840038
    131          1           0      -11.926382    2.467380    1.392499
    132          1           0      -13.465079    2.920872    3.651637
    133          1           0      -13.937168    4.369635    2.932888
    134          1           0      -10.983957    3.729839    3.014883
    135          1           0      -10.669492    4.773757    5.278668
    136          1           0      -11.857217    3.383220    5.347935
    137          1           0      -12.516618    4.957691    5.305220
    138          1           0      -12.179142    6.002770    2.082598
    139          1           0      -10.494940    5.611634    2.462455
    140          1           0      -11.428400    6.486825    3.632388
 ---------------------------------------------------------------------

 SCF Done:  E(RPBE1PBE) =  -3005.33686121     A.U. after   15 cycles

 Excitation energies and oscillator strengths:

 Excited State   1:      Singlet-A      1.8486 eV  670.70 nm  f=0.3578  <S**2>=0.000
     245 -> 248       -0.17398
     246 -> 247        0.69333
     246 <- 247       -0.10629
 This state for optimization and/or second-order correction.
 Total Energy, E(TD-HF/TD-DFT) =  -3005.26892756
 Copying the excited state density for this state as the 1-particle RhoCI density.

 Excited State   2:      Singlet-A      2.2443 eV  552.44 nm  f=0.1103  <S**2>=0.000
     245 -> 247        0.65321
     246 -> 248        0.26429

 Excited State   3:      Singlet-A      3.1724 eV  390.82 nm  f=0.0008  <S**2>=0.000
     240 -> 247       -0.23425
     240 -> 249        0.11449
     241 -> 247       -0.12352
     242 -> 247        0.35674
     243 -> 247        0.52386

 Excited State   4:      Singlet-A      3.1990 eV  387.57 nm  f=0.0025  <S**2>=0.000
     240 -> 247       -0.18568
     241 -> 247        0.12474
     242 -> 247        0.48819
     243 -> 247       -0.41352

 Excited State   5:      Singlet-A      3.2721 eV  378.91 nm  f=0.0066  <S**2>=0.000
     240 -> 247        0.31359
     241 -> 247        0.51669
     242 -> 247        0.17308
     243 -> 247        0.19809
     246 -> 248       -0.14748

 The electronic state is 1-A.
 Alpha  occ. eigenvalues --  -46.90937 -19.25851 -19.23412 -19.20557 -19.20233
 Alpha  occ. eigenvalues --  -19.18984 -19.18586 -14.41026 -14.40334 -14.38957
 Alpha  occ. eigenvalues --  -14.38321 -10.37198 -10.34071 -10.33500 -10.31820
 Alpha  occ. eigenvalues --  -10.29827 -10.28910 -10.28132 -10.27837 -10.27233
 Alpha  occ. eigenvalues --  -10.27092 -10.27067 -10.26788 -10.26773 -10.26675
 Alpha  occ. eigenvalues --  -10.26049 -10.25828 -10.25767 -10.25753 -10.25723
 Alpha  occ. eigenvalues --  -10.25672 -10.25368 -10.25300 -10.24979 -10.24813
 Alpha  occ. eigenvalues --  -10.24773 -10.24727 -10.24211 -10.24044 -10.23787
 Alpha  occ. eigenvalues --  -10.23715 -10.23631 -10.23485 -10.23477 -10.23463
 Alpha  occ. eigenvalues --  -10.23385 -10.23324 -10.23317 -10.23296 -10.23293
 Alpha  occ. eigenvalues --  -10.22781 -10.22697 -10.22686 -10.22669 -10.22602
 Alpha  occ. eigenvalues --  -10.22544 -10.22503 -10.22496 -10.22344 -10.22342
 Alpha  occ. eigenvalues --  -10.22114 -10.22079 -10.21715 -10.21667 -10.21309
 Alpha  occ. eigenvalues --  -10.21245  -3.13286  -1.86109  -1.85652  -1.85539
 Alpha  occ. eigenvalues --   -1.11486  -1.10529  -1.06376  -1.05174  -1.02392
 Alpha  occ. eigenvalues --   -1.01801  -0.99403  -0.98693  -0.97799  -0.96791
 Alpha  occ. eigenvalues --   -0.86837  -0.85006  -0.84094  -0.83834  -0.83170
 Alpha  occ. eigenvalues --   -0.83032  -0.81906  -0.81678  -0.81556  -0.80754
 Alpha  occ. eigenvalues --   -0.80151  -0.79848  -0.78943  -0.77658  -0.77320
 Alpha  occ. eigenvalues --   -0.76686  -0.76033  -0.75578  -0.74892  -0.74487
 Alpha  occ. eigenvalues --   -0.74282  -0.72399  -0.72028  -0.71352  -0.69956
 Alpha  occ. eigenvalues --   -0.69650  -0.69320  -0.69189  -0.69051  -0.68203
 Alpha  occ. eigenvalues --   -0.67706  -0.66797  -0.66115  -0.64511  -0.63175
 Alpha  occ. eigenvalues --   -0.62692  -0.62525  -0.61357  -0.60860  -0.59885
 Alpha  occ. eigenvalues --   -0.59662  -0.59488  -0.59194  -0.58761  -0.58741
 Alpha  occ. eigenvalues --   -0.57892  -0.57629  -0.56476  -0.55605  -0.54996
 Alpha  occ. eigenvalues --   -0.54543  -0.53788  -0.53539  -0.52819  -0.52133
 Alpha  occ. eigenvalues --   -0.51569  -0.51342  -0.50815  -0.50611  -0.49903
 Alpha  occ. eigenvalues --   -0.49724  -0.49416  -0.49145  -0.48395  -0.48254
 Alpha  occ. eigenvalues --   -0.47854  -0.47798  -0.47548  -0.47393  -0.47221
 Alpha  occ. eigenvalues --   -0.46959  -0.46828  -0.46412  -0.46171  -0.46061
 Alpha  occ. eigenvalues --   -0.45902  -0.45733  -0.45642  -0.45368  -0.45150
 Alpha  occ. eigenvalues --   -0.45135  -0.44811  -0.44792  -0.44514  -0.44420
 Alpha  occ. eigenvalues --   -0.43912  -0.43787  -0.43638  -0.43531  -0.43439
 Alpha  occ. eigenvalues --   -0.43318  -0.43039  -0.42881  -0.42804  -0.42414
 Alpha  occ. eigenvalues --   -0.42055  -0.41952  -0.41860  -0.41557  -0.41350
 Alpha  occ. eigenvalues --   -0.41028  -0.40898  -0.40529  -0.40424  -0.40356
 Alpha  occ. eigenvalues --   -0.40137  -0.40027  -0.39773  -0.39732  -0.39237
 Alpha  occ. eigenvalues --   -0.39113  -0.38908  -0.38762  -0.38593  -0.38489
 Alpha  occ. eigenvalues --   -0.38209  -0.38104  -0.37716  -0.37564  -0.37521
 Alpha  occ. eigenvalues --   -0.37359  -0.37257  -0.37138  -0.36814  -0.36749
 Alpha  occ. eigenvalues --   -0.36613  -0.36481  -0.36209  -0.35930  -0.35620
 Alpha  occ. eigenvalues --   -0.35521  -0.35440  -0.35384  -0.35149  -0.35094
 Alpha  occ. eigenvalues --   -0.34923  -0.34605  -0.33980  -0.33905  -0.33508
 Alpha  occ. eigenvalues --   -0.33187  -0.33040  -0.32506  -0.32194  -0.32021
 Alpha  occ. eigenvalues --   -0.31984  -0.31813  -0.31765  -0.31367  -0.30861
 Alpha  occ. eigenvalues --   -0.30570  -0.30210  -0.29730  -0.29090  -0.28895
 Alpha  occ. eigenvalues --   -0.28799  -0.28635  -0.27899  -0.26812  -0.26320
 Alpha  occ. eigenvalues --   -0.25748  -0.25545  -0.25381  -0.24923  -0.20580
 Alpha  occ. eigenvalues --   -0.18422
 Alpha virt. eigenvalues --   -0.10743  -0.04665  -0.03943  -0.01905  -0.00277
 Alpha virt. eigenvalues --    0.00470   0.01474   0.01582   0.02818   0.03343
 Alpha virt. eigenvalues --    0.04092   0.05328   0.05350   0.05768   0.06034

 Mulliken charges:
               1
     1  Mg   0.991123
     2  C    0.004269
     3  C   -0.076359
     4  C   -0.070655
     5  C   -0.095060
     6  N   -0.385196
     7  C    0.064746
     8  C   -0.088238
     9  C   -0.124726
    10  C    0.078656
    11  C    0.025565
    12  C    0.012742
    13  C   -0.022645
    14  C    0.235589
    15  O   -0.284491
    16  O   -0.361205
    17  N   -0.506012
    18  C    0.158011
    19  C   -0.158150
    20  C   -0.113429
    21  C    0.127517
    22  C    0.056206
    23  C    0.070185
    24  O   -0.214289
    25  C   -0.022412
    26  N   -0.414317
    27  C    0.092207
    28  C   -0.112898
    29  C   -0.105595
    30  C    0.079082
    31  C    0.012082
    32  C   -0.035830
    33  C   -0.064920
    34  N   -0.446044
    35  C    0.165414
    36  C   -0.187225
    37  C   -0.071459
    38  C    0.143001
    39  C    0.052910
    40  C    0.214076
    41  O   -0.191683
    42  C   -0.193062
    43  C    0.272777
    44  O   -0.231562
    45  O   -0.354396
    46  C    0.139479
    47  C    0.239824
    48  C   -0.128966
    49  C   -0.250749
    50  C    0.011409
    51  C    0.030927
    52  C   -0.062522
    53  C    0.008188
    54  C   -0.227537
    55  C    0.009992
    56  C    0.023248
    57  C   -0.079267
    58  C    0.031876
    59  C   -0.178431
    60  C   -0.034892
    61  C   -0.007900
    62  C   -0.069424
    63  C   -0.024771
    64  C   -0.226477
    65  C    0.001272
    66  C   -0.026245
    67  H   -0.012586
    68  H    0.030242
    69  H    0.002312
    70  H    0.038752
    71  H    0.032157
    72  H    0.059618
    73  H    0.035720
    74  H    0.033306
    75  H    0.042418
    76  H    0.077803
    77  H    0.065663
    78  H    0.050885
    79  H    0.031612
    80  H    0.054883
    81  H    0.063486
    82  H    0.072158
    83  H    0.044855
    84  H    0.044634
    85  H    0.052230
    86  H    0.062408
    87  H    0.051533
    88  H    0.040268
    89  H    0.047212
    90  H    0.026381
    91  H    0.036174
    92  H    0.039752
    93  H    0.042128
    94  H    0.046674
    95  H    0.059739
    96  H    0.049499
    97  H    0.062607
    98  H    0.081311
    99  H    0.050177
   100  H    0.050417
   101  H    0.046063
   102  H    0.072914
   103  H    0.071651
   104  H    0.029653
   105  H    0.037001
   106  H    0.068109
   107  H    0.055211
   108  H    0.031086
   109  H    0.029384
   110  H    0.033000
   111  H    0.036636
   112  H    0.020665
   113  H    0.030988
   114  H    0.039062
   115  H    0.025347
   116  H    0.029786
   117  H    0.027292
   118  H    0.022240
   119  H    0.020533
   120  H    0.015809
   121  H    0.029620
   122  H    0.024232
   123  H    0.025693
   124  H    0.039172
   125  H    0.021405
   126  H    0.017427
   127  H    0.026470
   128  H    0.030992
   129  H    0.019326
   130  H    0.039254
   131  H    0.048392
   132  H    0.015194
   133  H    0.023307
   134  H    0.029464
   135  H    0.049122
   136  H    0.027088
   137  H    0.032548
   138  H    0.032226
   139  H    0.026234
   140  H    0.030641
 Sum of Mulliken charges =  -0.00000

 Dipole moment (field-independent basis, Debye):
    X=             -2.7717    Y=              2.5126    Z=             -3.6320  Tot=              5.2141
 Quadrupole moment (field-independent basis, Debye-Ang):
   XX=           -358.7527   YY=           -418.7525   ZZ=           -398.3095
   XY=              0.5557   XZ=             -5.2176   YZ=             -3.9660

 Normal termination of Gaussian 16 at Wed Apr 27 07:29:07 2022.
