 Gaussian 16, Revision A.03,
 Gaussian 16:  ES64L-G16RevA.03 25-Dec-2016

 --------------------------------
 #p wB97XD/Def2SVP td=(nstates=5)
 --------------------------------

 -----------------------------------------------------
 step_1101_chromophore_22 TDDFT with wB97XD functional
 -----------------------------------------------------
 Symbolic Z-matrix:
 Charge =  0 Multiplicity = 1

                         Standard orientation:
 ---------------------------------------------------------------------
 Center     Atomic      Atomic             Coordinates (Angstroms)
 Number     Number       Type             X           Y           Z
 ---------------------------------------------------------------------
      1         12           0        6.069249    0.626838    0.001591
      2          6           0        3.821683   -2.195690    0.191840
      3          6           0        3.859350    1.993172   -2.119271
      4          6           0        7.969777    3.214145   -0.030855
      5          6           0        8.578365   -1.449893    1.129487
      6          7           0        4.083132   -0.001928   -0.884228
      7          6           0        3.334939   -1.155913   -0.636572
      8          6           0        2.102411   -1.150912   -1.599537
      9          6           0        2.478880   -0.081878   -2.606201
     10          6           0        3.540080    0.714041   -1.935934
     11          6           0        2.985319   -0.642355   -3.938774
     12          6           0        0.762421   -0.965451   -0.860892
     13          6           0       -0.459054   -1.395303   -1.740300
     14          6           0       -1.523054   -2.380564   -1.065467
     15          8           0       -1.284336   -3.442691   -0.469258
     16          8           0       -2.794902   -1.971360   -1.292198
     17          7           0        5.887459    2.390163   -0.865390
     18          6           0        4.828063    2.834741   -1.621996
     19          6           0        4.950347    4.250672   -1.847292
     20          6           0        6.105329    4.621745   -1.105495
     21          6           0        6.716905    3.377086   -0.675588
     22          6           0        3.961794    5.131817   -2.648841
     23          6           0        6.693271    6.034558   -0.745651
     24          8           0        7.638484    6.223567   -0.037118
     25          6           0        6.003356    7.211038   -1.227209
     26          7           0        8.152836    0.753382    0.321447
     27          6           0        8.584375    2.035575    0.473330
     28          6           0       10.081045    2.020177    0.952756
     29          6           0       10.357263    0.472947    0.937347
     30          6           0        8.964999   -0.133132    0.912446
     31          6           0       11.087983    2.957946    0.145475
     32          6           0       11.334406    0.143866    2.140192
     33          6           0       12.840850    0.094634    1.763472
     34          7           0        6.284822   -1.358679    0.568458
     35          6           0        7.318881   -2.027535    1.027287
     36          6           0        6.923578   -3.361095    1.522924
     37          6           0        5.541619   -3.446204    1.290217
     38          6           0        5.173928   -2.209777    0.645723
     39          6           0        7.891189   -4.469089    1.894321
     40          6           0        4.405463   -4.392014    1.369094
     41          8           0        4.220397   -5.520435    1.798268
     42          6           0        3.299690   -3.562326    0.508712
     43          6           0        2.113025   -3.476298    1.365803
     44          8           0        1.948123   -2.747878    2.284964
     45          8           0        1.326081   -4.535079    1.038161
     46          6           0        0.291508   -4.939968    1.973747
     47          6           0       -3.816357   -2.725968   -0.536562
     48          6           0       -5.176543   -2.283987   -1.042587
     49          6           0       -6.368289   -2.640291   -0.489201
     50          6           0       -6.492754   -3.744757    0.533067
     51          6           0       -7.731090   -1.925341   -0.825676
     52          6           0       -8.707889   -2.691821   -1.639117
     53          6           0       -9.611014   -1.690416   -2.474188
     54          6           0      -11.034952   -1.726977   -2.010812
     55          6           0      -11.927885   -2.448285   -2.980124
     56          6           0      -11.601151   -0.288422   -1.716833
     57          6           0      -11.797194   -0.097027   -0.210681
     58          6           0      -13.285767    0.044623    0.236401
     59          6           0      -13.886805    1.445579   -0.095824
     60          6           0      -15.294380    1.273431   -0.802472
     61          6           0      -14.074005    2.239030    1.220436
     62          6           0      -12.838334    3.053081    1.508185
     63          6           0      -13.102162    3.668676    2.946901
     64          6           0      -11.796488    4.298940    3.464647
     65          6           0      -11.645110    4.387434    4.983464
     66          6           0      -11.498244    5.701900    2.879115
     67          1           0        3.268076    2.514735   -2.875373
     68          1           0        8.575799    4.121141    0.016218
     69          1           0        9.462723   -2.044482    1.370097
     70          1           0        2.142716   -2.117350   -2.101360
     71          1           0        1.633300    0.556146   -2.866370
     72          1           0        4.007930   -0.322274   -4.139293
     73          1           0        2.278912   -0.395169   -4.731507
     74          1           0        2.940166   -1.726439   -4.046666
     75          1           0        0.690668    0.084528   -0.578800
     76          1           0        0.671787   -1.519911    0.073539
     77          1           0       -0.142377   -1.701169   -2.737138
     78          1           0       -0.956105   -0.440088   -1.911774
     79          1           0        3.221380    4.482025   -3.114669
     80          1           0        4.454071    5.618233   -3.491736
     81          1           0        3.522247    5.943425   -2.069819
     82          1           0        5.221377    7.510853   -0.529019
     83          1           0        5.676088    7.179435   -2.266948
     84          1           0        6.677891    8.066512   -1.209283
     85          1           0        9.957961    2.395782    1.969195
     86          1           0       10.783000    0.230519   -0.036350
     87          1           0       10.548559    3.333052   -0.725043
     88          1           0       11.980024    2.392528   -0.125389
     89          1           0       11.406190    3.862691    0.663694
     90          1           0       11.094469   -0.840192    2.544353
     91          1           0       11.275824    0.770689    3.029183
     92          1           0       13.149102   -0.946171    1.866286
     93          1           0       13.433386    0.618883    2.512976
     94          1           0       12.946085    0.465572    0.744769
     95          1           0        7.385154   -5.311150    2.365969
     96          1           0        8.681037   -4.093877    2.544986
     97          1           0        8.310206   -4.864928    0.968674
     98          1           0        3.020436   -4.092247   -0.401015
     99          1           0       -0.524169   -4.217563    1.969349
    100          1           0        0.625939   -5.143720    2.991240
    101          1           0       -0.106201   -5.891036    1.618925
    102          1           0       -3.634898   -2.509596    0.515826
    103          1           0       -3.637864   -3.733009   -0.912254
    104          1           0       -5.207817   -1.496259   -1.794863
    105          1           0       -5.539559   -4.236680    0.726219
    106          1           0       -7.215002   -4.488824    0.198149
    107          1           0       -6.665900   -3.171846    1.444895
    108          1           0       -7.648315   -0.951823   -1.308279
    109          1           0       -8.093319   -1.857169    0.200922
    110          1           0       -9.293026   -3.286706   -0.938375
    111          1           0       -8.236710   -3.363785   -2.355965
    112          1           0       -9.519544   -2.173814   -3.447070
    113          1           0       -9.204439   -0.692618   -2.638272
    114          1           0      -11.075157   -2.312782   -1.091820
    115          1           0      -11.408665   -2.658058   -3.914531
    116          1           0      -12.852689   -1.910269   -3.192650
    117          1           0      -12.199036   -3.415911   -2.559332
    118          1           0      -12.549190   -0.179841   -2.243020
    119          1           0      -10.942952    0.469623   -2.140355
    120          1           0      -11.430514    0.914340   -0.042581
    121          1           0      -11.142127   -0.688868    0.428964
    122          1           0      -13.194662   -0.138598    1.307120
    123          1           0      -13.928723   -0.755064   -0.133748
    124          1           0      -13.288565    1.992800   -0.824750
    125          1           0      -15.574609    1.993783   -1.570983
    126          1           0      -16.138534    1.479661   -0.142884
    127          1           0      -15.607251    0.336205   -1.262712
    128          1           0      -14.387417    1.574241    2.025714
    129          1           0      -14.868459    2.981066    1.131255
    130          1           0      -12.891229    3.912613    0.840038
    131          1           0      -11.926382    2.467380    1.392499
    132          1           0      -13.465079    2.920872    3.651637
    133          1           0      -13.937168    4.369635    2.932888
    134          1           0      -10.983957    3.729839    3.014883
    135          1           0      -10.669492    4.773757    5.278668
    136          1           0      -11.857217    3.383220    5.347935
    137          1           0      -12.516618    4.957691    5.305220
    138          1           0      -12.179142    6.002770    2.082598
    139          1           0      -10.494940    5.611634    2.462455
    140          1           0      -11.428400    6.486825    3.632388
 ---------------------------------------------------------------------

 SCF Done:  E(RwB97XD) =  -3007.84353477     A.U. after   19 cycles

 Excitation energies and oscillator strengths:

 Excited State   1:      Singlet-A      1.6469 eV  752.85 nm  f=0.3622  <S**2>=0.000
     245 -> 248       -0.18612
     246 -> 247        0.68334
     245 <- 248       -0.11804
 This state for optimization and/or second-order correction.
 Total Energy, E(TD-HF/TD-DFT) =  -3007.78301345
 Copying the excited state density for this state as the 1-particle RhoCI density.

 Excited State   2:      Singlet-A      2.1936 eV  565.22 nm  f=0.1125  <S**2>=0.000
     245 -> 247        0.63988
     246 -> 248        0.29095

 Excited State   3:      Singlet-A      3.5467 eV  349.58 nm  f=0.1787  <S**2>=0.000
     239 -> 249       -0.13947
     240 -> 247        0.12291
     242 -> 247        0.45557
     243 -> 247       -0.24936
     245 -> 247        0.13865
     246 -> 248       -0.36316

 Excited State   4:      Singlet-A      3.5880 eV  345.55 nm  f=0.3109  <S**2>=0.000
     242 -> 247       -0.11299
     243 -> 247        0.49291
     245 -> 247        0.18817
     246 -> 248       -0.43634

 Excited State   5:      Singlet-A      3.6872 eV  336.26 nm  f=0.2278  <S**2>=0.000
     239 -> 247        0.37128
     239 -> 249       -0.26394
     240 -> 247        0.17274
     240 -> 249       -0.14160
     242 -> 247        0.13364
     243 -> 247        0.30446
     245 -> 247       -0.14139
     246 -> 248        0.24597

 The electronic state is 1-A.
 Alpha  occ. eigenvalues --  -46.93881 -19.30411 -19.28083 -19.25567 -19.24894
 Alpha  occ. eigenvalues --  -19.23650 -19.23460 -14.46214 -14.45257 -14.43999
 Alpha  occ. eigenvalues --  -14.43187 -10.43977 -10.41046 -10.40548 -10.38517
 Alpha  occ. eigenvalues --  -10.36335 -10.35287 -10.34298 -10.34229 -10.33613
 Alpha  occ. eigenvalues --  -10.33504 -10.33383 -10.33276 -10.32975 -10.32860
 Alpha  occ. eigenvalues --  -10.32468 -10.32342 -10.32210 -10.32209 -10.31973
 Alpha  occ. eigenvalues --  -10.31959 -10.31534 -10.31512 -10.31336 -10.31320
 Alpha  occ. eigenvalues --  -10.31221 -10.31138 -10.30362 -10.30325 -10.30240
 Alpha  occ. eigenvalues --  -10.30096 -10.30095 -10.30050 -10.29820 -10.29818
 Alpha  occ. eigenvalues --  -10.29818 -10.29714 -10.29703 -10.29647 -10.29486
 Alpha  occ. eigenvalues --  -10.29149 -10.29088 -10.29067 -10.29025 -10.28964
 Alpha  occ. eigenvalues --  -10.28951 -10.28865 -10.28764 -10.28703 -10.28676
 Alpha  occ. eigenvalues --  -10.28490 -10.28434 -10.28156 -10.28086 -10.27729
 Alpha  occ. eigenvalues --  -10.27671  -3.20067  -1.93644  -1.93189  -1.93067
 Alpha  occ. eigenvalues --   -1.18860  -1.18047  -1.13699  -1.12843  -1.09868
 Alpha  occ. eigenvalues --   -1.09150  -1.06649  -1.06063  -1.05173  -1.04218
 Alpha  occ. eigenvalues --   -0.94587  -0.92675  -0.91772  -0.91465  -0.90834
 Alpha  occ. eigenvalues --   -0.90577  -0.89477  -0.89342  -0.89132  -0.88342
 Alpha  occ. eigenvalues --   -0.87856  -0.87501  -0.86594  -0.85294  -0.84969
 Alpha  occ. eigenvalues --   -0.84319  -0.83647  -0.83227  -0.82546  -0.82128
 Alpha  occ. eigenvalues --   -0.81933  -0.79997  -0.79709  -0.78933  -0.77595
 Alpha  occ. eigenvalues --   -0.77330  -0.76907  -0.76892  -0.76733  -0.75865
 Alpha  occ. eigenvalues --   -0.75326  -0.74394  -0.73646  -0.72119  -0.70777
 Alpha  occ. eigenvalues --   -0.70256  -0.70159  -0.68869  -0.68486  -0.67396
 Alpha  occ. eigenvalues --   -0.67326  -0.66984  -0.66623  -0.66430  -0.66139
 Alpha  occ. eigenvalues --   -0.65553  -0.65121  -0.64103  -0.63062  -0.62382
 Alpha  occ. eigenvalues --   -0.62047  -0.61235  -0.61017  -0.60189  -0.59622
 Alpha  occ. eigenvalues --   -0.59056  -0.58940  -0.58284  -0.57961  -0.57268
 Alpha  occ. eigenvalues --   -0.57218  -0.56899  -0.56589  -0.55798  -0.55684
 Alpha  occ. eigenvalues --   -0.55256  -0.55123  -0.54950  -0.54800  -0.54643
 Alpha  occ. eigenvalues --   -0.54407  -0.54163  -0.53797  -0.53540  -0.53381
 Alpha  occ. eigenvalues --   -0.53255  -0.53051  -0.52984  -0.52732  -0.52703
 Alpha  occ. eigenvalues --   -0.52493  -0.52164  -0.52150  -0.51813  -0.51739
 Alpha  occ. eigenvalues --   -0.51171  -0.51111  -0.50962  -0.50837  -0.50777
 Alpha  occ. eigenvalues --   -0.50649  -0.50329  -0.50165  -0.50072  -0.49675
 Alpha  occ. eigenvalues --   -0.49275  -0.49181  -0.49099  -0.48768  -0.48618
 Alpha  occ. eigenvalues --   -0.48285  -0.48223  -0.47736  -0.47680  -0.47595
 Alpha  occ. eigenvalues --   -0.47244  -0.47192  -0.47083  -0.46984  -0.46489
 Alpha  occ. eigenvalues --   -0.46355  -0.46004  -0.45901  -0.45711  -0.45656
 Alpha  occ. eigenvalues --   -0.45407  -0.45229  -0.44827  -0.44671  -0.44587
 Alpha  occ. eigenvalues --   -0.44534  -0.44418  -0.44232  -0.43907  -0.43790
 Alpha  occ. eigenvalues --   -0.43674  -0.43583  -0.43314  -0.42960  -0.42652
 Alpha  occ. eigenvalues --   -0.42585  -0.42542  -0.42414  -0.42240  -0.42191
 Alpha  occ. eigenvalues --   -0.41983  -0.41704  -0.41003  -0.40984  -0.40614
 Alpha  occ. eigenvalues --   -0.40223  -0.39958  -0.39580  -0.39121  -0.39099
 Alpha  occ. eigenvalues --   -0.39065  -0.38874  -0.38750  -0.38399  -0.37749
 Alpha  occ. eigenvalues --   -0.37485  -0.37404  -0.36608  -0.35967  -0.35944
 Alpha  occ. eigenvalues --   -0.35656  -0.35444  -0.34995  -0.33494  -0.33403
 Alpha  occ. eigenvalues --   -0.32617  -0.32297  -0.31897  -0.31707  -0.25570
 Alpha  occ. eigenvalues --   -0.22640
 Alpha virt. eigenvalues --   -0.06535   0.00792   0.02324   0.04625   0.06365
 Alpha virt. eigenvalues --    0.06585   0.08206   0.08342   0.09455   0.09705
 Alpha virt. eigenvalues --    0.10748   0.12082   0.12110   0.12581   0.12812

 Mulliken charges:
               1
     1  Mg   0.978862
     2  C    0.002661
     3  C   -0.086697
     4  C   -0.086509
     5  C   -0.114030
     6  N   -0.351720
     7  C    0.026963
     8  C   -0.057386
     9  C   -0.095734
    10  C    0.062406
    11  C    0.030381
    12  C    0.025728
    13  C   -0.008806
    14  C    0.227533
    15  O   -0.282771
    16  O   -0.360401
    17  N   -0.470165
    18  C    0.149430
    19  C   -0.150497
    20  C   -0.111649
    21  C    0.118790
    22  C    0.067709
    23  C    0.069385
    24  O   -0.209409
    25  C   -0.015119
    26  N   -0.386856
    27  C    0.079128
    28  C   -0.091632
    29  C   -0.072236
    30  C    0.063686
    31  C    0.027122
    32  C   -0.024181
    33  C   -0.047470
    34  N   -0.408868
    35  C    0.162597
    36  C   -0.186155
    37  C   -0.069995
    38  C    0.133461
    39  C    0.064507
    40  C    0.199921
    41  O   -0.180734
    42  C   -0.152091
    43  C    0.242846
    44  O   -0.223140
    45  O   -0.350232
    46  C    0.153485
    47  C    0.251805
    48  C   -0.139241
    49  C   -0.237502
    50  C    0.024787
    51  C    0.052708
    52  C   -0.047625
    53  C    0.022137
    54  C   -0.196214
    55  C    0.022077
    56  C    0.035555
    57  C   -0.051202
    58  C    0.041309
    59  C   -0.146325
    60  C   -0.024425
    61  C    0.008148
    62  C   -0.047883
    63  C   -0.014072
    64  C   -0.193094
    65  C    0.017535
    66  C   -0.019295
    67  H   -0.022344
    68  H    0.022688
    69  H   -0.005541
    70  H    0.024225
    71  H    0.022505
    72  H    0.054419
    73  H    0.030522
    74  H    0.027201
    75  H    0.035839
    76  H    0.064156
    77  H    0.059766
    78  H    0.045685
    79  H    0.026680
    80  H    0.049182
    81  H    0.058269
    82  H    0.068607
    83  H    0.039405
    84  H    0.042442
    85  H    0.040847
    86  H    0.051483
    87  H    0.044236
    88  H    0.031847
    89  H    0.042637
    90  H    0.017180
    91  H    0.029410
    92  H    0.034091
    93  H    0.037084
    94  H    0.037822
    95  H    0.056890
    96  H    0.045045
    97  H    0.058014
    98  H    0.075972
    99  H    0.045991
   100  H    0.047052
   101  H    0.043328
   102  H    0.068552
   103  H    0.066106
   104  H    0.027767
   105  H    0.031537
   106  H    0.063467
   107  H    0.048809
   108  H    0.022450
   109  H    0.019106
   110  H    0.023672
   111  H    0.029195
   112  H    0.010932
   113  H    0.022571
   114  H    0.022359
   115  H    0.018696
   116  H    0.023668
   117  H    0.022001
   118  H    0.009599
   119  H    0.012968
   120  H    0.000211
   121  H    0.022275
   122  H    0.015777
   123  H    0.016537
   124  H    0.027274
   125  H    0.015921
   126  H    0.010482
   127  H    0.020769
   128  H    0.021146
   129  H    0.009409
   130  H    0.028928
   131  H    0.035655
   132  H    0.005413
   133  H    0.014984
   134  H    0.016281
   135  H    0.044567
   136  H    0.020020
   137  H    0.024615
   138  H    0.026507
   139  H    0.020778
   140  H    0.025058
 Sum of Mulliken charges =  -0.00000

 Dipole moment (field-independent basis, Debye):
    X=             -2.9293    Y=              2.2152    Z=             -3.5098  Tot=              5.0800
 Quadrupole moment (field-independent basis, Debye-Ang):
   XX=           -360.5508   YY=           -417.3849   ZZ=           -397.8838
   XY=             -1.1831   XZ=             -4.9107   YZ=             -4.3518

 Normal termination of Gaussian 16 at Wed Apr 27 07:53:47 2022.
