 Gaussian 16, Revision A.03,
 Gaussian 16:  ES64L-G16RevA.03 25-Dec-2016

 --------------------
 #p ZINDO=(nstates=5)
 --------------------

 ------------------------------
 step_1101_chromophore_22 ZINDO
 ------------------------------
 Symbolic Z-matrix:
 Charge =  0 Multiplicity = 1

                         Standard orientation:
 ---------------------------------------------------------------------
 Center     Atomic      Atomic             Coordinates (Angstroms)
 Number     Number       Type             X           Y           Z
 ---------------------------------------------------------------------
      1         12           0        6.069249    0.626838    0.001591
      2          6           0        3.821683   -2.195690    0.191840
      3          6           0        3.859350    1.993172   -2.119271
      4          6           0        7.969777    3.214145   -0.030855
      5          6           0        8.578365   -1.449893    1.129487
      6          7           0        4.083132   -0.001928   -0.884228
      7          6           0        3.334939   -1.155913   -0.636572
      8          6           0        2.102411   -1.150912   -1.599537
      9          6           0        2.478880   -0.081878   -2.606201
     10          6           0        3.540080    0.714041   -1.935934
     11          6           0        2.985319   -0.642355   -3.938774
     12          6           0        0.762421   -0.965451   -0.860892
     13          6           0       -0.459054   -1.395303   -1.740300
     14          6           0       -1.523054   -2.380564   -1.065467
     15          8           0       -1.284336   -3.442691   -0.469258
     16          8           0       -2.794902   -1.971360   -1.292198
     17          7           0        5.887459    2.390163   -0.865390
     18          6           0        4.828063    2.834741   -1.621996
     19          6           0        4.950347    4.250672   -1.847292
     20          6           0        6.105329    4.621745   -1.105495
     21          6           0        6.716905    3.377086   -0.675588
     22          6           0        3.961794    5.131817   -2.648841
     23          6           0        6.693271    6.034558   -0.745651
     24          8           0        7.638484    6.223567   -0.037118
     25          6           0        6.003356    7.211038   -1.227209
     26          7           0        8.152836    0.753382    0.321447
     27          6           0        8.584375    2.035575    0.473330
     28          6           0       10.081045    2.020177    0.952756
     29          6           0       10.357263    0.472947    0.937347
     30          6           0        8.964999   -0.133132    0.912446
     31          6           0       11.087983    2.957946    0.145475
     32          6           0       11.334406    0.143866    2.140192
     33          6           0       12.840850    0.094634    1.763472
     34          7           0        6.284822   -1.358679    0.568458
     35          6           0        7.318881   -2.027535    1.027287
     36          6           0        6.923578   -3.361095    1.522924
     37          6           0        5.541619   -3.446204    1.290217
     38          6           0        5.173928   -2.209777    0.645723
     39          6           0        7.891189   -4.469089    1.894321
     40          6           0        4.405463   -4.392014    1.369094
     41          8           0        4.220397   -5.520435    1.798268
     42          6           0        3.299690   -3.562326    0.508712
     43          6           0        2.113025   -3.476298    1.365803
     44          8           0        1.948123   -2.747878    2.284964
     45          8           0        1.326081   -4.535079    1.038161
     46          6           0        0.291508   -4.939968    1.973747
     47          6           0       -3.816357   -2.725968   -0.536562
     48          6           0       -5.176543   -2.283987   -1.042587
     49          6           0       -6.368289   -2.640291   -0.489201
     50          6           0       -6.492754   -3.744757    0.533067
     51          6           0       -7.731090   -1.925341   -0.825676
     52          6           0       -8.707889   -2.691821   -1.639117
     53          6           0       -9.611014   -1.690416   -2.474188
     54          6           0      -11.034952   -1.726977   -2.010812
     55          6           0      -11.927885   -2.448285   -2.980124
     56          6           0      -11.601151   -0.288422   -1.716833
     57          6           0      -11.797194   -0.097027   -0.210681
     58          6           0      -13.285767    0.044623    0.236401
     59          6           0      -13.886805    1.445579   -0.095824
     60          6           0      -15.294380    1.273431   -0.802472
     61          6           0      -14.074005    2.239030    1.220436
     62          6           0      -12.838334    3.053081    1.508185
     63          6           0      -13.102162    3.668676    2.946901
     64          6           0      -11.796488    4.298940    3.464647
     65          6           0      -11.645110    4.387434    4.983464
     66          6           0      -11.498244    5.701900    2.879115
     67          1           0        3.268076    2.514735   -2.875373
     68          1           0        8.575799    4.121141    0.016218
     69          1           0        9.462723   -2.044482    1.370097
     70          1           0        2.142716   -2.117350   -2.101360
     71          1           0        1.633300    0.556146   -2.866370
     72          1           0        4.007930   -0.322274   -4.139293
     73          1           0        2.278912   -0.395169   -4.731507
     74          1           0        2.940166   -1.726439   -4.046666
     75          1           0        0.690668    0.084528   -0.578800
     76          1           0        0.671787   -1.519911    0.073539
     77          1           0       -0.142377   -1.701169   -2.737138
     78          1           0       -0.956105   -0.440088   -1.911774
     79          1           0        3.221380    4.482025   -3.114669
     80          1           0        4.454071    5.618233   -3.491736
     81          1           0        3.522247    5.943425   -2.069819
     82          1           0        5.221377    7.510853   -0.529019
     83          1           0        5.676088    7.179435   -2.266948
     84          1           0        6.677891    8.066512   -1.209283
     85          1           0        9.957961    2.395782    1.969195
     86          1           0       10.783000    0.230519   -0.036350
     87          1           0       10.548559    3.333052   -0.725043
     88          1           0       11.980024    2.392528   -0.125389
     89          1           0       11.406190    3.862691    0.663694
     90          1           0       11.094469   -0.840192    2.544353
     91          1           0       11.275824    0.770689    3.029183
     92          1           0       13.149102   -0.946171    1.866286
     93          1           0       13.433386    0.618883    2.512976
     94          1           0       12.946085    0.465572    0.744769
     95          1           0        7.385154   -5.311150    2.365969
     96          1           0        8.681037   -4.093877    2.544986
     97          1           0        8.310206   -4.864928    0.968674
     98          1           0        3.020436   -4.092247   -0.401015
     99          1           0       -0.524169   -4.217563    1.969349
    100          1           0        0.625939   -5.143720    2.991240
    101          1           0       -0.106201   -5.891036    1.618925
    102          1           0       -3.634898   -2.509596    0.515826
    103          1           0       -3.637864   -3.733009   -0.912254
    104          1           0       -5.207817   -1.496259   -1.794863
    105          1           0       -5.539559   -4.236680    0.726219
    106          1           0       -7.215002   -4.488824    0.198149
    107          1           0       -6.665900   -3.171846    1.444895
    108          1           0       -7.648315   -0.951823   -1.308279
    109          1           0       -8.093319   -1.857169    0.200922
    110          1           0       -9.293026   -3.286706   -0.938375
    111          1           0       -8.236710   -3.363785   -2.355965
    112          1           0       -9.519544   -2.173814   -3.447070
    113          1           0       -9.204439   -0.692618   -2.638272
    114          1           0      -11.075157   -2.312782   -1.091820
    115          1           0      -11.408665   -2.658058   -3.914531
    116          1           0      -12.852689   -1.910269   -3.192650
    117          1           0      -12.199036   -3.415911   -2.559332
    118          1           0      -12.549190   -0.179841   -2.243020
    119          1           0      -10.942952    0.469623   -2.140355
    120          1           0      -11.430514    0.914340   -0.042581
    121          1           0      -11.142127   -0.688868    0.428964
    122          1           0      -13.194662   -0.138598    1.307120
    123          1           0      -13.928723   -0.755064   -0.133748
    124          1           0      -13.288565    1.992800   -0.824750
    125          1           0      -15.574609    1.993783   -1.570983
    126          1           0      -16.138534    1.479661   -0.142884
    127          1           0      -15.607251    0.336205   -1.262712
    128          1           0      -14.387417    1.574241    2.025714
    129          1           0      -14.868459    2.981066    1.131255
    130          1           0      -12.891229    3.912613    0.840038
    131          1           0      -11.926382    2.467380    1.392499
    132          1           0      -13.465079    2.920872    3.651637
    133          1           0      -13.937168    4.369635    2.932888
    134          1           0      -10.983957    3.729839    3.014883
    135          1           0      -10.669492    4.773757    5.278668
    136          1           0      -11.857217    3.383220    5.347935
    137          1           0      -12.516618    4.957691    5.305220
    138          1           0      -12.179142    6.002770    2.082598
    139          1           0      -10.494940    5.611634    2.462455
    140          1           0      -11.428400    6.486825    3.632388
 ---------------------------------------------------------------------

 SCF Done:  E(RZINDO/S) =  -474.542090007     A.U. after   19 cycles

 Excitation energies and oscillator strengths:

 Excited State   1:      Singlet-A      1.2528 eV  989.62 nm  f=0.5625  <S**2>=0.000
     175 ->178         0.18968
     176 ->177         0.66300
 This state for optimization and/or second-order correction.
 Total Energy, E(CIS/TDA) =  -474.496048826
 Copying the excited state density for this state as the 1-particle RhoCI density.

 Excited State   2:      Singlet-A      1.8997 eV  652.66 nm  f=0.0353  <S**2>=0.000
     175 ->177         0.54375
     176 ->178        -0.42123

 Excited State   3:      Singlet-A      2.9426 eV  421.34 nm  f=0.4344  <S**2>=0.000
     168 ->177         0.10518
     168 ->179        -0.14349
     175 ->177         0.26312
     176 ->178         0.42106
     176 ->179         0.38701

 Excited State   4:      Singlet-A      3.0486 eV  406.69 nm  f=0.2789  <S**2>=0.000
     170 ->177         0.17566
     170 ->179         0.16562
     170 ->181         0.30200
     170 ->185        -0.14900
     170 ->187         0.18409
     172 ->177        -0.12622
     172 ->181        -0.10966
     175 ->177        -0.18923
     176 ->178        -0.20785
     176 ->179         0.27676
     176 ->181         0.16340

 Excited State   5:      Singlet-A      3.0708 eV  403.76 nm  f=0.3467  <S**2>=0.000
     168 ->177         0.23536
     168 ->178        -0.15472
     168 ->179        -0.32992
     168 ->181         0.12849
     168 ->185         0.14222
     170 ->177        -0.10947
     170 ->181        -0.17744
     170 ->187        -0.10023
     175 ->177        -0.19704
     176 ->178        -0.24337

 The electronic state is 1-A.
 Alpha  occ. eigenvalues --   -1.84443  -1.83742  -1.81099  -1.74238  -1.73385
 Alpha  occ. eigenvalues --   -1.71638  -1.66696  -1.62461  -1.61276  -1.57058
 Alpha  occ. eigenvalues --   -1.55430  -1.51384  -1.49834  -1.48335  -1.46224
 Alpha  occ. eigenvalues --   -1.44321  -1.42992  -1.39880  -1.39457  -1.37862
 Alpha  occ. eigenvalues --   -1.35322  -1.33891  -1.33437  -1.32566  -1.29114
 Alpha  occ. eigenvalues --   -1.26891  -1.25850  -1.21790  -1.20476  -1.18054
 Alpha  occ. eigenvalues --   -1.17474  -1.15032  -1.14543  -1.14234  -1.12397
 Alpha  occ. eigenvalues --   -1.12271  -1.10881  -1.10144  -1.04472  -1.03988
 Alpha  occ. eigenvalues --   -1.02360  -1.00675  -0.98889  -0.97729  -0.95912
 Alpha  occ. eigenvalues --   -0.95587  -0.94492  -0.94013  -0.92829  -0.92317
 Alpha  occ. eigenvalues --   -0.91745  -0.91134  -0.89762  -0.88151  -0.86551
 Alpha  occ. eigenvalues --   -0.86176  -0.84285  -0.83684  -0.81732  -0.80770
 Alpha  occ. eigenvalues --   -0.80193  -0.79264  -0.77426  -0.76851  -0.75644
 Alpha  occ. eigenvalues --   -0.75340  -0.75178  -0.74316  -0.73372  -0.72684
 Alpha  occ. eigenvalues --   -0.72537  -0.72344  -0.71207  -0.70514  -0.70003
 Alpha  occ. eigenvalues --   -0.69951  -0.69603  -0.69123  -0.68902  -0.67830
 Alpha  occ. eigenvalues --   -0.67667  -0.66729  -0.66520  -0.66042  -0.65281
 Alpha  occ. eigenvalues --   -0.65182  -0.64726  -0.63824  -0.63547  -0.63238
 Alpha  occ. eigenvalues --   -0.63072  -0.62804  -0.62366  -0.61953  -0.61815
 Alpha  occ. eigenvalues --   -0.61561  -0.61050  -0.60724  -0.60384  -0.60208
 Alpha  occ. eigenvalues --   -0.59810  -0.59390  -0.59031  -0.58890  -0.58697
 Alpha  occ. eigenvalues --   -0.57818  -0.57625  -0.57514  -0.56820  -0.56404
 Alpha  occ. eigenvalues --   -0.56049  -0.55707  -0.55550  -0.55235  -0.54784
 Alpha  occ. eigenvalues --   -0.54119  -0.53983  -0.53720  -0.53198  -0.52728
 Alpha  occ. eigenvalues --   -0.52342  -0.51976  -0.51711  -0.51656  -0.51080
 Alpha  occ. eigenvalues --   -0.51005  -0.50591  -0.50371  -0.49912  -0.49813
 Alpha  occ. eigenvalues --   -0.49399  -0.49279  -0.49151  -0.48976  -0.48485
 Alpha  occ. eigenvalues --   -0.48240  -0.48135  -0.47995  -0.47830  -0.47421
 Alpha  occ. eigenvalues --   -0.47247  -0.47063  -0.46978  -0.46633  -0.46515
 Alpha  occ. eigenvalues --   -0.46318  -0.45644  -0.45453  -0.45151  -0.45115
 Alpha  occ. eigenvalues --   -0.45013  -0.44467  -0.44259  -0.43907  -0.43759
 Alpha  occ. eigenvalues --   -0.43036  -0.42491  -0.42264  -0.42216  -0.42031
 Alpha  occ. eigenvalues --   -0.41580  -0.41367  -0.41098  -0.38912  -0.38758
 Alpha  occ. eigenvalues --   -0.37768  -0.36518  -0.36020  -0.34825  -0.34368
 Alpha  occ. eigenvalues --   -0.33281  -0.32171  -0.32097  -0.31723  -0.26334
 Alpha  occ. eigenvalues --   -0.21499
 Alpha virt. eigenvalues --   -0.08099  -0.01843  -0.00422   0.01647   0.01839
 Alpha virt. eigenvalues --    0.02496   0.03259   0.03865   0.04744   0.04891
 Alpha virt. eigenvalues --    0.06340   0.06966   0.07408   0.08013   0.08158

 Mulliken charges:
               1
     1  Mg   0.433713
     2  C   -0.030835
     3  C   -0.048317
     4  C   -0.076927
     5  C   -0.083774
     6  N   -0.309512
     7  C    0.120354
     8  C    0.015082
     9  C    0.019596
    10  C    0.112186
    11  C   -0.052509
    12  C   -0.018669
    13  C   -0.001912
    14  C    0.461974
    15  O   -0.520916
    16  O   -0.271299
    17  N   -0.304029
    18  C    0.083567
    19  C   -0.010511
    20  C   -0.071021
    21  C    0.146390
    22  C   -0.044189
    23  C    0.335428
    24  O   -0.515127
    25  C   -0.029304
    26  N   -0.272704
    27  C    0.108093
    28  C   -0.008855
    29  C    0.016420
    30  C    0.143460
    31  C   -0.055642
    32  C   -0.040975
    33  C   -0.063107
    34  N   -0.312579
    35  C    0.145659
    36  C    0.030096
    37  C   -0.042918
    38  C    0.099943
    39  C   -0.035544
    40  C    0.342937
    41  O   -0.487695
    42  C    0.058195
    43  C    0.495987
    44  O   -0.518005
    45  O   -0.269669
    46  C    0.078179
    47  C    0.108473
    48  C   -0.103936
    49  C   -0.018503
    50  C   -0.046420
    51  C   -0.024359
    52  C   -0.030764
    53  C   -0.039206
    54  C   -0.007473
    55  C   -0.056327
    56  C   -0.036465
    57  C   -0.043884
    58  C   -0.029344
    59  C   -0.002703
    60  C   -0.077352
    61  C   -0.029607
    62  C   -0.038949
    63  C   -0.036207
    64  C   -0.017482
    65  C   -0.056453
    66  C   -0.062071
    67  H    0.007075
    68  H    0.044531
    69  H    0.017280
    70  H    0.025512
    71  H    0.019319
    72  H    0.030822
    73  H    0.014728
    74  H    0.016766
    75  H    0.026679
    76  H    0.040867
    77  H    0.048305
    78  H    0.025072
    79  H    0.022882
    80  H    0.023771
    81  H    0.033132
    82  H    0.046214
    83  H    0.026131
    84  H    0.026207
    85  H    0.033990
    86  H    0.043610
    87  H    0.027839
    88  H    0.020868
    89  H    0.026138
    90  H    0.010136
    91  H    0.026984
    92  H    0.016978
    93  H    0.022487
    94  H    0.028371
    95  H    0.033372
    96  H    0.029863
    97  H    0.033744
    98  H    0.056269
    99  H    0.045670
   100  H    0.043805
   101  H    0.026669
   102  H    0.062381
   103  H    0.060857
   104  H    0.031142
   105  H    0.017971
   106  H    0.038188
   107  H    0.034143
   108  H    0.028770
   109  H    0.022326
   110  H    0.021616
   111  H    0.020614
   112  H    0.008579
   113  H    0.029798
   114  H    0.021453
   115  H    0.017784
   116  H    0.018933
   117  H    0.011120
   118  H    0.020079
   119  H    0.018048
   120  H    0.003165
   121  H    0.028241
   122  H    0.012619
   123  H    0.022372
   124  H    0.030626
   125  H    0.011297
   126  H    0.008460
   127  H    0.019027
   128  H    0.025015
   129  H    0.012099
   130  H    0.022679
   131  H    0.035788
   132  H    0.014104
   133  H    0.021588
   134  H    0.014532
   135  H    0.031043
   136  H    0.010093
   137  H    0.021085
   138  H    0.018930
   139  H    0.010668
   140  H    0.019002
 Sum of Mulliken charges =  -0.00000

 Dipole moment (field-independent basis, Debye):
    X=             -2.6797    Y=              2.1712    Z=             -5.5033  Tot=              6.4947
 N-N= 4.184054128406D+03 E-N= 0.000000000000D+00  KE=-9.043179125525D+03
 Leave Link  601 at Wed Apr 27 08:04:33 2022, MaxMem=  6710886400 cpu:               0.7 elap:               0.0
 (Enter /sw/apps/gaussian-16.0/g16/l9999.exe)
 1\1\GINC-BP1-COMPUTE174\SP\RZINDO CIS\STO-3G\C55H74Mg1N4O6\OF15641\27-
 Apr-2022\0\\#p ZINDO=(nstates=5)\\step_1101_chromophore_22 ZINDO\\0,1\
 Mg,0,9.043,47.843,24.855\C,0,6.902,47.702,27.762\C,0,11.388,49.116,26.
 887\C,0,11.01,47.801,22.318\C,0,6.202,47.722,22.907\N,0,9.159,48.368,2
 7.054\C,0,8.2,48.186,28.054\C,0,8.744,48.831,29.371\C,0,9.901,49.672,2
 8.869\C,0,10.222,49.115,27.529\C,0,9.578,51.166,28.769\C,0,9.066,47.79
 1,30.462\C,0,9.179,48.442,31.881\C,0,8.351,47.749,33.061\O,0,7.15,47.4

 Normal termination of Gaussian 16 at Wed Apr 27 08:04:33 2022.
