 Gaussian 16, Revision A.03,
 Gaussian 16:  ES64L-G16RevA.03 25-Dec-2016

 ------------------------------
 #p blyp/Def2SVP td=(nstates=5)
 ------------------------------

 --------------------------------------------------
 step_1051_chromophore_6 TDDFT with blyp functional
 --------------------------------------------------
 Symbolic Z-matrix:
 Charge =  0 Multiplicity = 1

                         Standard orientation:
 ---------------------------------------------------------------------
 Center     Atomic      Atomic             Coordinates (Angstroms)
 Number     Number       Type             X           Y           Z
 ---------------------------------------------------------------------
      1         12           0       -5.427897    1.151385   -0.348589
      2          6           0       -4.613879   -2.256559   -0.245977
      3          6           0       -2.029901    1.822780   -0.421417
      4          6           0       -6.084993    4.427232    0.071345
      5          6           0       -8.780887    0.456981    0.176387
      6          7           0       -3.489632   -0.138551   -0.115986
      7          6           0       -3.426292   -1.507905   -0.228290
      8          6           0       -1.961856   -2.036434   -0.202239
      9          6           0       -1.169880   -0.633682   -0.345068
     10          6           0       -2.297251    0.444285   -0.277871
     11          6           0       -0.113957   -0.431535    0.801357
     12          6           0       -1.726411   -3.039293   -1.431497
     13          6           0       -0.938871   -4.376912   -1.236091
     14          6           0        0.012163   -4.552132   -0.070656
     15          8           0       -0.310410   -4.771712    1.071231
     16          8           0        1.308097   -4.285468   -0.498615
     17          7           0       -4.224949    2.842755   -0.439149
     18          6           0       -2.903375    2.959661   -0.464253
     19          6           0       -2.446371    4.333876   -0.573651
     20          6           0       -3.628293    5.125879   -0.454422
     21          6           0       -4.696240    4.174680   -0.230717
     22          6           0       -0.921115    4.699046   -0.748330
     23          6           0       -3.786325    6.638297   -0.438783
     24          8           0       -4.827663    7.191725   -0.186938
     25          6           0       -2.621969    7.445763   -0.592629
     26          7           0       -7.192663    2.247042    0.129480
     27          6           0       -7.261159    3.589103    0.194462
     28          6           0       -8.588131    4.100866    0.718986
     29          6           0       -9.483327    2.819057    0.628697
     30          6           0       -8.435933    1.733598    0.293425
     31          6           0       -8.566504    4.873677    1.990219
     32          6           0      -10.847386    2.839128   -0.208204
     33          6           0      -12.131781    2.765757    0.614782
     34          7           0       -6.496427   -0.428202   -0.096395
     35          6           0       -7.920464   -0.630345   -0.004584
     36          6           0       -8.307686   -2.003450   -0.126767
     37          6           0       -7.020018   -2.716491   -0.144469
     38          6           0       -5.980349   -1.699922   -0.128806
     39          6           0       -9.680413   -2.478070   -0.149797
     40          6           0       -6.379428   -3.987510   -0.143559
     41          8           0       -6.903682   -5.101101    0.058021
     42          6           0       -4.822345   -3.776411   -0.273183
     43          6           0       -4.165974   -4.550853    0.773418
     44          8           0       -4.047854   -4.300507    1.996843
     45          8           0       -3.750996   -5.784252    0.250491
     46          6           0       -3.363330   -6.796735    1.337274
     47          6           0        2.407428   -4.461933    0.440996
     48          6           0        3.623871   -3.818936   -0.201251
     49          6           0        4.894500   -3.926186    0.284471
     50          6           0        5.316795   -4.449895    1.647460
     51          6           0        5.977489   -3.224139   -0.534955
     52          6           0        5.997094   -1.718187   -0.204425
     53          6           0        7.522802   -1.355652   -0.354389
     54          6           0        8.019679   -0.547584   -1.603853
     55          6           0        8.318140   -1.337111   -2.924157
     56          6           0        9.064369    0.480584   -1.312519
     57          6           0       10.355252   -0.043702   -0.635429
     58          6           0       11.693936    0.010020   -1.441839
     59          6           0       12.456271    1.370477   -1.149800
     60          6           0       12.605288    2.364458   -2.398686
     61          6           0       13.749997    1.304891   -0.380839
     62          6           0       13.699010    1.866610    1.065488
     63          6           0       15.008499    1.580356    1.679295
     64          6           0       15.926215    2.854213    1.870526
     65          6           0       15.473249    3.625033    3.012381
     66          6           0       17.442873    2.400159    1.848335
     67          1           0       -0.944602    1.937177   -0.459945
     68          1           0       -6.327532    5.435702    0.413219
     69          1           0       -9.858893    0.300541    0.100529
     70          1           0       -1.662304   -2.465829    0.753436
     71          1           0       -0.559726   -0.646697   -1.247713
     72          1           0       -0.323208    0.435739    1.426691
     73          1           0        0.911522   -0.366920    0.438085
     74          1           0        0.016742   -1.281138    1.471414
     75          1           0       -1.239749   -2.485460   -2.234333
     76          1           0       -2.739706   -3.258601   -1.768365
     77          1           0       -0.293912   -4.272448   -2.108517
     78          1           0       -1.548368   -5.281274   -1.249844
     79          1           0       -0.641544    5.249904    0.150398
     80          1           0       -0.729213    5.254279   -1.665833
     81          1           0       -0.212201    3.871855   -0.782182
     82          1           0       -1.816709    7.282986    0.123722
     83          1           0       -3.020231    8.459467   -0.536196
     84          1           0       -2.194861    7.277240   -1.580851
     85          1           0       -8.858522    4.875455    0.000636
     86          1           0       -9.743549    2.579385    1.659473
     87          1           0       -9.160664    4.429541    2.788432
     88          1           0       -8.744800    5.936116    1.824765
     89          1           0       -7.550855    4.932684    2.382982
     90          1           0      -10.813257    2.033690   -0.942614
     91          1           0      -10.908227    3.834375   -0.649648
     92          1           0      -12.125917    2.964427    1.685855
     93          1           0      -12.486875    1.752868    0.424294
     94          1           0      -12.891637    3.387786    0.140663
     95          1           0      -10.305351   -1.808537   -0.742701
     96          1           0      -10.104500   -2.400405    0.851258
     97          1           0       -9.751140   -3.528509   -0.432678
     98          1           0       -4.528565   -4.076815   -1.279220
     99          1           0       -2.501121   -6.348649    1.830129
    100          1           0       -3.008459   -7.690954    0.824224
    101          1           0       -4.163792   -7.044101    2.035220
    102          1           0        2.664020   -5.516039    0.547279
    103          1           0        2.022941   -4.106856    1.397594
    104          1           0        3.380114   -3.324612   -1.141434
    105          1           0        4.480042   -4.532735    2.341361
    106          1           0        5.971973   -3.748876    2.163792
    107          1           0        5.780655   -5.430939    1.539538
    108          1           0        5.765366   -3.309908   -1.600492
    109          1           0        6.896720   -3.747659   -0.273111
    110          1           0        5.577952   -1.454037    0.766214
    111          1           0        5.437092   -1.194799   -0.979100
    112          1           0        8.214936   -2.196566   -0.398298
    113          1           0        7.877843   -0.732882    0.466874
    114          1           0        7.097831   -0.034956   -1.875105
    115          1           0        9.113406   -0.996397   -3.587575
    116          1           0        7.464469   -1.591470   -3.552688
    117          1           0        8.714147   -2.296618   -2.593306
    118          1           0        8.674542    1.085978   -0.494048
    119          1           0        9.195460    1.128331   -2.180121
    120          1           0       10.161574   -1.069946   -0.322836
    121          1           0       10.459937    0.518859    0.292023
    122          1           0       11.612641   -0.138022   -2.519081
    123          1           0       12.211889   -0.814428   -0.951257
    124          1           0       11.839028    2.049832   -0.561600
    125          1           0       13.629674    2.455567   -2.758101
    126          1           0       12.090381    3.261455   -2.054046
    127          1           0       12.061826    2.180460   -3.326457
    128          1           0       14.500350    1.871152   -0.933728
    129          1           0       14.045990    0.263731   -0.249377
    130          1           0       12.792438    1.546510    1.578055
    131          1           0       13.573937    2.929256    0.856396
    132          1           0       15.586786    0.882653    1.072048
    133          1           0       14.927919    1.198548    2.696360
    134          1           0       15.836007    3.519612    1.012376
    135          1           0       16.387065    4.047227    3.430401
    136          1           0       14.890697    3.055516    3.735794
    137          1           0       14.903472    4.449090    2.583437
    138          1           0       17.864607    2.899661    0.975104
    139          1           0       17.672365    1.337066    1.781024
    140          1           0       17.897189    2.721510    2.785060
 ---------------------------------------------------------------------

 SCF Done:  E(RB-LYP) =  -3007.33283158     A.U. after   21 cycles

 Excitation energies and oscillator strengths:

 Excited State   1:      Singlet-A      1.7685 eV  701.08 nm  f=0.1544  <S**2>=0.000
     244 -> 247       -0.43189
     245 -> 247       -0.12713
     245 -> 248        0.14410
     246 -> 247        0.52964
     246 <- 247       -0.10715
 This state for optimization and/or second-order correction.
 Total Energy, E(TD-HF/TD-DFT) =  -3007.26784126
 Copying the excited state density for this state as the 1-particle RhoCI density.

 Excited State   2:      Singlet-A      1.8243 eV  679.61 nm  f=0.1383  <S**2>=0.000
     244 -> 247        0.54097
     245 -> 248        0.13046
     246 -> 247        0.43091

 Excited State   3:      Singlet-A      1.9508 eV  635.57 nm  f=0.0998  <S**2>=0.000
     244 -> 247       -0.13776
     245 -> 247        0.64190
     246 -> 248       -0.21258

 Excited State   4:      Singlet-A      2.1647 eV  572.76 nm  f=0.0012  <S**2>=0.000
     243 -> 247        0.69999

 Excited State   5:      Singlet-A      2.2616 eV  548.21 nm  f=0.0001  <S**2>=0.000
     242 -> 247        0.70670

 The electronic state is 1-A.
 Alpha  occ. eigenvalues --  -46.26414 -18.81822 -18.80393 -18.77489 -18.75956
 Alpha  occ. eigenvalues --  -18.75277 -18.74689 -14.02850 -14.02731 -14.01374
 Alpha  occ. eigenvalues --  -14.00987 -10.04178 -10.02668  -9.99775  -9.98981
 Alpha  occ. eigenvalues --   -9.97747  -9.96557  -9.96535  -9.96530  -9.96466
 Alpha  occ. eigenvalues --   -9.96039  -9.95936  -9.95368  -9.95273  -9.95164
 Alpha  occ. eigenvalues --   -9.94793  -9.94155  -9.94132  -9.94085  -9.93938
 Alpha  occ. eigenvalues --   -9.93847  -9.93836  -9.93794  -9.93773  -9.93472
 Alpha  occ. eigenvalues --   -9.93372  -9.93292  -9.93117  -9.93094  -9.93034
 Alpha  occ. eigenvalues --   -9.92672  -9.92612  -9.92601  -9.92223  -9.92029
 Alpha  occ. eigenvalues --   -9.92011  -9.91989  -9.91947  -9.91867  -9.91816
 Alpha  occ. eigenvalues --   -9.91754  -9.91729  -9.91653  -9.91589  -9.91571
 Alpha  occ. eigenvalues --   -9.91496  -9.91385  -9.91285  -9.90981  -9.90873
 Alpha  occ. eigenvalues --   -9.90847  -9.90787  -9.90736  -9.90617  -9.90521
 Alpha  occ. eigenvalues --   -9.90308  -2.91297  -1.71694  -1.71197  -1.71020
 Alpha  occ. eigenvalues --   -0.97761  -0.94150  -0.93211  -0.90754  -0.89202
 Alpha  occ. eigenvalues --   -0.86656  -0.86143  -0.85823  -0.85156  -0.83640
 Alpha  occ. eigenvalues --   -0.74535  -0.73868  -0.73410  -0.72471  -0.72234
 Alpha  occ. eigenvalues --   -0.71933  -0.71569  -0.70888  -0.70585  -0.70326
 Alpha  occ. eigenvalues --   -0.70131  -0.68965  -0.68110  -0.67924  -0.67087
 Alpha  occ. eigenvalues --   -0.66657  -0.66384  -0.65393  -0.64885  -0.64171
 Alpha  occ. eigenvalues --   -0.63794  -0.62754  -0.62063  -0.61861  -0.60735
 Alpha  occ. eigenvalues --   -0.60461  -0.60135  -0.59927  -0.59627  -0.58815
 Alpha  occ. eigenvalues --   -0.57869  -0.57555  -0.56103  -0.55477  -0.54535
 Alpha  occ. eigenvalues --   -0.53932  -0.53686  -0.53193  -0.52876  -0.51905
 Alpha  occ. eigenvalues --   -0.51455  -0.51058  -0.50660  -0.49761  -0.49691
 Alpha  occ. eigenvalues --   -0.49501  -0.48714  -0.47376  -0.46959  -0.46516
 Alpha  occ. eigenvalues --   -0.46357  -0.45756  -0.45185  -0.44483  -0.44192
 Alpha  occ. eigenvalues --   -0.43652  -0.43281  -0.42999  -0.42387  -0.42158
 Alpha  occ. eigenvalues --   -0.41974  -0.41720  -0.41657  -0.41240  -0.41035
 Alpha  occ. eigenvalues --   -0.40812  -0.40695  -0.40480  -0.40413  -0.40309
 Alpha  occ. eigenvalues --   -0.40072  -0.39964  -0.39242  -0.39186  -0.38867
 Alpha  occ. eigenvalues --   -0.38589  -0.38526  -0.38368  -0.38221  -0.38021
 Alpha  occ. eigenvalues --   -0.37960  -0.37721  -0.37630  -0.37564  -0.37143
 Alpha  occ. eigenvalues --   -0.37066  -0.36811  -0.36642  -0.36456  -0.36398
 Alpha  occ. eigenvalues --   -0.36286  -0.36141  -0.36066  -0.35623  -0.35378
 Alpha  occ. eigenvalues --   -0.35338  -0.35098  -0.35075  -0.34994  -0.34761
 Alpha  occ. eigenvalues --   -0.34539  -0.34329  -0.34043  -0.33776  -0.33647
 Alpha  occ. eigenvalues --   -0.33562  -0.33517  -0.33381  -0.33141  -0.32923
 Alpha  occ. eigenvalues --   -0.32609  -0.32471  -0.32378  -0.32313  -0.32235
 Alpha  occ. eigenvalues --   -0.32061  -0.31761  -0.31696  -0.31424  -0.31340
 Alpha  occ. eigenvalues --   -0.31134  -0.31012  -0.30916  -0.30852  -0.30765
 Alpha  occ. eigenvalues --   -0.30626  -0.30379  -0.30293  -0.30039  -0.29927
 Alpha  occ. eigenvalues --   -0.29538  -0.29365  -0.29142  -0.29053  -0.28748
 Alpha  occ. eigenvalues --   -0.28537  -0.28333  -0.28280  -0.28140  -0.27906
 Alpha  occ. eigenvalues --   -0.27330  -0.26949  -0.26920  -0.26577  -0.26473
 Alpha  occ. eigenvalues --   -0.26000  -0.25858  -0.25765  -0.25315  -0.25163
 Alpha  occ. eigenvalues --   -0.24747  -0.23952  -0.23720  -0.23496  -0.23481
 Alpha  occ. eigenvalues --   -0.23190  -0.22268  -0.21863  -0.20998  -0.20268
 Alpha  occ. eigenvalues --   -0.20011  -0.19844  -0.19363  -0.18062  -0.16823
 Alpha  occ. eigenvalues --   -0.15845
 Alpha virt. eigenvalues --   -0.11533  -0.06894  -0.06049  -0.04382  -0.03320
 Alpha virt. eigenvalues --   -0.02452  -0.02153  -0.02056  -0.01304  -0.00195
 Alpha virt. eigenvalues --    0.01395   0.01903   0.01949   0.02415   0.02721

 Mulliken charges:
               1
     1  Mg   0.732145
     2  C    0.002017
     3  C   -0.056123
     4  C   -0.044392
     5  C   -0.127070
     6  N   -0.172285
     7  C   -0.083073
     8  C    0.032611
     9  C   -0.022466
    10  C   -0.003967
    11  C    0.083426
    12  C    0.097596
    13  C    0.158210
    14  C    0.057602
    15  O   -0.172299
    16  O   -0.290691
    17  N   -0.283916
    18  C    0.169921
    19  C   -0.143088
    20  C    0.045527
    21  C    0.099300
    22  C    0.152726
    23  C   -0.089721
    24  O   -0.140740
    25  C    0.145450
    26  N   -0.202311
    27  C   -0.021084
    28  C    0.017921
    29  C    0.061153
    30  C    0.030265
    31  C    0.150353
    32  C    0.097849
    33  C    0.055693
    34  N   -0.364344
    35  C    0.176466
    36  C   -0.166996
    37  C    0.108447
    38  C    0.085467
    39  C    0.200525
    40  C   -0.089687
    41  O   -0.163439
    42  C    0.093298
    43  C    0.149027
    44  O   -0.211816
    45  O   -0.313439
    46  C    0.217402
    47  C    0.298506
    48  C   -0.120202
    49  C   -0.137594
    50  C    0.143708
    51  C    0.109025
    52  C    0.129398
    53  C    0.062692
    54  C   -0.069681
    55  C    0.088571
    56  C    0.127927
    57  C    0.022611
    58  C    0.171994
    59  C   -0.050242
    60  C    0.057754
    61  C    0.061663
    62  C    0.076283
    63  C    0.130618
    64  C   -0.156420
    65  C    0.168316
    66  C    0.101568
    67  H   -0.077718
    68  H   -0.044307
    69  H   -0.073903
    70  H    0.023341
    71  H   -0.018180
    72  H   -0.000084
    73  H   -0.021149
    74  H   -0.007057
    75  H   -0.024594
    76  H   -0.020728
    77  H   -0.017888
    78  H    0.019294
    79  H    0.008612
    80  H    0.010012
    81  H   -0.011833
    82  H    0.012793
    83  H   -0.006802
    84  H   -0.002441
    85  H   -0.024686
    86  H   -0.025229
    87  H   -0.009275
    88  H   -0.010014
    89  H   -0.017383
    90  H   -0.009098
    91  H   -0.015360
    92  H    0.006336
    93  H   -0.016252
    94  H   -0.014206
    95  H   -0.007916
    96  H   -0.003122
    97  H    0.010361
    98  H    0.009738
    99  H    0.027433
   100  H    0.002305
   101  H    0.030805
   102  H    0.001338
   103  H    0.009236
   104  H   -0.027197
   105  H   -0.014834
   106  H   -0.002437
   107  H    0.011005
   108  H   -0.018392
   109  H   -0.025829
   110  H   -0.014524
   111  H   -0.023215
   112  H   -0.014957
   113  H   -0.044139
   114  H   -0.056126
   115  H   -0.015470
   116  H   -0.015723
   117  H   -0.036964
   118  H   -0.050107
   119  H   -0.030540
   120  H   -0.039336
   121  H   -0.031004
   122  H   -0.021896
   123  H   -0.038761
   124  H   -0.038542
   125  H   -0.008749
   126  H   -0.015048
   127  H   -0.031419
   128  H   -0.033598
   129  H   -0.032348
   130  H   -0.029920
   131  H   -0.037914
   132  H   -0.034097
   133  H   -0.040257
   134  H   -0.043646
   135  H   -0.029826
   136  H   -0.012329
   137  H   -0.019434
   138  H   -0.009651
   139  H   -0.013007
   140  H   -0.026092
 Sum of Mulliken charges =  -0.00000

 Dipole moment (field-independent basis, Debye):
    X=              3.7963    Y=              3.4812    Z=             -2.4804  Tot=              5.7169
 Quadrupole moment (field-independent basis, Debye-Ang):
   XX=           -380.1978   YY=           -426.7880   ZZ=           -407.3235
   XY=            -30.4398   XZ=             10.4860   YZ=              5.4324

 Normal termination of Gaussian 16 at Wed Apr 27 04:27:52 2022.
