 Gaussian 16, Revision A.03,
 Gaussian 16:  ES64L-G16RevA.03 25-Dec-2016

 -----------------------------------
 #p cam-b3lyp/Def2SVP td=(nstates=5)
 -----------------------------------

 -------------------------------------------------------
 step_1051_chromophore_6 TDDFT with cam-b3lyp functional
 -------------------------------------------------------
 Symbolic Z-matrix:
 Charge =  0 Multiplicity = 1

                         Standard orientation:
 ---------------------------------------------------------------------
 Center     Atomic      Atomic             Coordinates (Angstroms)
 Number     Number       Type             X           Y           Z
 ---------------------------------------------------------------------
      1         12           0       -5.427897    1.151385   -0.348589
      2          6           0       -4.613879   -2.256559   -0.245977
      3          6           0       -2.029901    1.822780   -0.421417
      4          6           0       -6.084993    4.427232    0.071345
      5          6           0       -8.780887    0.456981    0.176387
      6          7           0       -3.489632   -0.138551   -0.115986
      7          6           0       -3.426292   -1.507905   -0.228290
      8          6           0       -1.961856   -2.036434   -0.202239
      9          6           0       -1.169880   -0.633682   -0.345068
     10          6           0       -2.297251    0.444285   -0.277871
     11          6           0       -0.113957   -0.431535    0.801357
     12          6           0       -1.726411   -3.039293   -1.431497
     13          6           0       -0.938871   -4.376912   -1.236091
     14          6           0        0.012163   -4.552132   -0.070656
     15          8           0       -0.310410   -4.771712    1.071231
     16          8           0        1.308097   -4.285468   -0.498615
     17          7           0       -4.224949    2.842755   -0.439149
     18          6           0       -2.903375    2.959661   -0.464253
     19          6           0       -2.446371    4.333876   -0.573651
     20          6           0       -3.628293    5.125879   -0.454422
     21          6           0       -4.696240    4.174680   -0.230717
     22          6           0       -0.921115    4.699046   -0.748330
     23          6           0       -3.786325    6.638297   -0.438783
     24          8           0       -4.827663    7.191725   -0.186938
     25          6           0       -2.621969    7.445763   -0.592629
     26          7           0       -7.192663    2.247042    0.129480
     27          6           0       -7.261159    3.589103    0.194462
     28          6           0       -8.588131    4.100866    0.718986
     29          6           0       -9.483327    2.819057    0.628697
     30          6           0       -8.435933    1.733598    0.293425
     31          6           0       -8.566504    4.873677    1.990219
     32          6           0      -10.847386    2.839128   -0.208204
     33          6           0      -12.131781    2.765757    0.614782
     34          7           0       -6.496427   -0.428202   -0.096395
     35          6           0       -7.920464   -0.630345   -0.004584
     36          6           0       -8.307686   -2.003450   -0.126767
     37          6           0       -7.020018   -2.716491   -0.144469
     38          6           0       -5.980349   -1.699922   -0.128806
     39          6           0       -9.680413   -2.478070   -0.149797
     40          6           0       -6.379428   -3.987510   -0.143559
     41          8           0       -6.903682   -5.101101    0.058021
     42          6           0       -4.822345   -3.776411   -0.273183
     43          6           0       -4.165974   -4.550853    0.773418
     44          8           0       -4.047854   -4.300507    1.996843
     45          8           0       -3.750996   -5.784252    0.250491
     46          6           0       -3.363330   -6.796735    1.337274
     47          6           0        2.407428   -4.461933    0.440996
     48          6           0        3.623871   -3.818936   -0.201251
     49          6           0        4.894500   -3.926186    0.284471
     50          6           0        5.316795   -4.449895    1.647460
     51          6           0        5.977489   -3.224139   -0.534955
     52          6           0        5.997094   -1.718187   -0.204425
     53          6           0        7.522802   -1.355652   -0.354389
     54          6           0        8.019679   -0.547584   -1.603853
     55          6           0        8.318140   -1.337111   -2.924157
     56          6           0        9.064369    0.480584   -1.312519
     57          6           0       10.355252   -0.043702   -0.635429
     58          6           0       11.693936    0.010020   -1.441839
     59          6           0       12.456271    1.370477   -1.149800
     60          6           0       12.605288    2.364458   -2.398686
     61          6           0       13.749997    1.304891   -0.380839
     62          6           0       13.699010    1.866610    1.065488
     63          6           0       15.008499    1.580356    1.679295
     64          6           0       15.926215    2.854213    1.870526
     65          6           0       15.473249    3.625033    3.012381
     66          6           0       17.442873    2.400159    1.848335
     67          1           0       -0.944602    1.937177   -0.459945
     68          1           0       -6.327532    5.435702    0.413219
     69          1           0       -9.858893    0.300541    0.100529
     70          1           0       -1.662304   -2.465829    0.753436
     71          1           0       -0.559726   -0.646697   -1.247713
     72          1           0       -0.323208    0.435739    1.426691
     73          1           0        0.911522   -0.366920    0.438085
     74          1           0        0.016742   -1.281138    1.471414
     75          1           0       -1.239749   -2.485460   -2.234333
     76          1           0       -2.739706   -3.258601   -1.768365
     77          1           0       -0.293912   -4.272448   -2.108517
     78          1           0       -1.548368   -5.281274   -1.249844
     79          1           0       -0.641544    5.249904    0.150398
     80          1           0       -0.729213    5.254279   -1.665833
     81          1           0       -0.212201    3.871855   -0.782182
     82          1           0       -1.816709    7.282986    0.123722
     83          1           0       -3.020231    8.459467   -0.536196
     84          1           0       -2.194861    7.277240   -1.580851
     85          1           0       -8.858522    4.875455    0.000636
     86          1           0       -9.743549    2.579385    1.659473
     87          1           0       -9.160664    4.429541    2.788432
     88          1           0       -8.744800    5.936116    1.824765
     89          1           0       -7.550855    4.932684    2.382982
     90          1           0      -10.813257    2.033690   -0.942614
     91          1           0      -10.908227    3.834375   -0.649648
     92          1           0      -12.125917    2.964427    1.685855
     93          1           0      -12.486875    1.752868    0.424294
     94          1           0      -12.891637    3.387786    0.140663
     95          1           0      -10.305351   -1.808537   -0.742701
     96          1           0      -10.104500   -2.400405    0.851258
     97          1           0       -9.751140   -3.528509   -0.432678
     98          1           0       -4.528565   -4.076815   -1.279220
     99          1           0       -2.501121   -6.348649    1.830129
    100          1           0       -3.008459   -7.690954    0.824224
    101          1           0       -4.163792   -7.044101    2.035220
    102          1           0        2.664020   -5.516039    0.547279
    103          1           0        2.022941   -4.106856    1.397594
    104          1           0        3.380114   -3.324612   -1.141434
    105          1           0        4.480042   -4.532735    2.341361
    106          1           0        5.971973   -3.748876    2.163792
    107          1           0        5.780655   -5.430939    1.539538
    108          1           0        5.765366   -3.309908   -1.600492
    109          1           0        6.896720   -3.747659   -0.273111
    110          1           0        5.577952   -1.454037    0.766214
    111          1           0        5.437092   -1.194799   -0.979100
    112          1           0        8.214936   -2.196566   -0.398298
    113          1           0        7.877843   -0.732882    0.466874
    114          1           0        7.097831   -0.034956   -1.875105
    115          1           0        9.113406   -0.996397   -3.587575
    116          1           0        7.464469   -1.591470   -3.552688
    117          1           0        8.714147   -2.296618   -2.593306
    118          1           0        8.674542    1.085978   -0.494048
    119          1           0        9.195460    1.128331   -2.180121
    120          1           0       10.161574   -1.069946   -0.322836
    121          1           0       10.459937    0.518859    0.292023
    122          1           0       11.612641   -0.138022   -2.519081
    123          1           0       12.211889   -0.814428   -0.951257
    124          1           0       11.839028    2.049832   -0.561600
    125          1           0       13.629674    2.455567   -2.758101
    126          1           0       12.090381    3.261455   -2.054046
    127          1           0       12.061826    2.180460   -3.326457
    128          1           0       14.500350    1.871152   -0.933728
    129          1           0       14.045990    0.263731   -0.249377
    130          1           0       12.792438    1.546510    1.578055
    131          1           0       13.573937    2.929256    0.856396
    132          1           0       15.586786    0.882653    1.072048
    133          1           0       14.927919    1.198548    2.696360
    134          1           0       15.836007    3.519612    1.012376
    135          1           0       16.387065    4.047227    3.430401
    136          1           0       14.890697    3.055516    3.735794
    137          1           0       14.903472    4.449090    2.583437
    138          1           0       17.864607    2.899661    0.975104
    139          1           0       17.672365    1.337066    1.781024
    140          1           0       17.897189    2.721510    2.785060
 ---------------------------------------------------------------------

 SCF Done:  E(RCAM-B3LYP) =  -3007.11749824     A.U. after   19 cycles

 Excitation energies and oscillator strengths:

 Excited State   1:      Singlet-A      1.7450 eV  710.51 nm  f=0.3632  <S**2>=0.000
     245 -> 248        0.17958
     246 -> 247        0.68334
     245 <- 248        0.10203
 This state for optimization and/or second-order correction.
 Total Energy, E(TD-HF/TD-DFT) =  -3007.05337028
 Copying the excited state density for this state as the 1-particle RhoCI density.

 Excited State   2:      Singlet-A      2.1617 eV  573.54 nm  f=0.1642  <S**2>=0.000
     245 -> 247        0.65576
     246 -> 248       -0.24634

 Excited State   3:      Singlet-A      3.3838 eV  366.41 nm  f=0.0187  <S**2>=0.000
     241 -> 247       -0.18828
     242 -> 247        0.10655
     244 -> 247        0.63799

 Excited State   4:      Singlet-A      3.4809 eV  356.19 nm  f=0.1740  <S**2>=0.000
     240 -> 247        0.21471
     241 -> 247        0.29465
     242 -> 247        0.34046
     242 -> 249       -0.17780
     242 -> 250       -0.13091
     245 -> 247        0.12561
     246 -> 248        0.40165

 Excited State   5:      Singlet-A      3.5298 eV  351.25 nm  f=0.0830  <S**2>=0.000
     240 -> 247       -0.18665
     241 -> 247       -0.11783
     242 -> 247        0.44914
     242 -> 249       -0.21869
     242 -> 250       -0.16496
     244 -> 247       -0.21759
     246 -> 248       -0.31657

 The electronic state is 1-A.
 Alpha  occ. eigenvalues --  -46.87899 -19.24621 -19.23109 -19.20445 -19.19650
 Alpha  occ. eigenvalues --  -19.18185 -19.17254 -14.41870 -14.41447 -14.40118
 Alpha  occ. eigenvalues --  -14.39158 -10.39445 -10.38040 -10.35316 -10.33886
 Alpha  occ. eigenvalues --  -10.31749 -10.31582 -10.31475 -10.31299 -10.30900
 Alpha  occ. eigenvalues --  -10.30812 -10.30151 -10.29945 -10.29445 -10.29198
 Alpha  occ. eigenvalues --  -10.28755 -10.28489 -10.28370 -10.28272 -10.28245
 Alpha  occ. eigenvalues --  -10.28010 -10.27923 -10.27806 -10.27665 -10.27653
 Alpha  occ. eigenvalues --  -10.27451 -10.27264 -10.27105 -10.27041 -10.27002
 Alpha  occ. eigenvalues --  -10.26739 -10.26711 -10.26380 -10.26029 -10.26021
 Alpha  occ. eigenvalues --  -10.25762 -10.25692 -10.25678 -10.25622 -10.25563
 Alpha  occ. eigenvalues --  -10.25525 -10.25489 -10.25460 -10.25345 -10.25312
 Alpha  occ. eigenvalues --  -10.25095 -10.25032 -10.24993 -10.24639 -10.24556
 Alpha  occ. eigenvalues --  -10.24521 -10.24420 -10.24376 -10.24296 -10.24184
 Alpha  occ. eigenvalues --  -10.23851  -3.16695  -1.91564  -1.91151  -1.91031
 Alpha  occ. eigenvalues --   -1.16191  -1.12413  -1.12136  -1.08577  -1.07000
 Alpha  occ. eigenvalues --   -1.04493  -1.03773  -1.03731  -1.02846  -1.00710
 Alpha  occ. eigenvalues --   -0.91386  -0.90770  -0.90264  -0.89237  -0.88885
 Alpha  occ. eigenvalues --   -0.88568  -0.88233  -0.87788  -0.87495  -0.86927
 Alpha  occ. eigenvalues --   -0.86406  -0.85303  -0.84397  -0.84072  -0.83487
 Alpha  occ. eigenvalues --   -0.83099  -0.82514  -0.81313  -0.80695  -0.79967
 Alpha  occ. eigenvalues --   -0.79610  -0.78623  -0.77572  -0.77357  -0.76131
 Alpha  occ. eigenvalues --   -0.75881  -0.75465  -0.75263  -0.74816  -0.74075
 Alpha  occ. eigenvalues --   -0.72875  -0.72510  -0.71009  -0.70305  -0.69121
 Alpha  occ. eigenvalues --   -0.68637  -0.68393  -0.67629  -0.67361  -0.66293
 Alpha  occ. eigenvalues --   -0.65497  -0.65225  -0.64701  -0.63684  -0.63544
 Alpha  occ. eigenvalues --   -0.63486  -0.62646  -0.61105  -0.60660  -0.60359
 Alpha  occ. eigenvalues --   -0.59753  -0.59225  -0.58659  -0.57893  -0.57289
 Alpha  occ. eigenvalues --   -0.56924  -0.56759  -0.56348  -0.55683  -0.55192
 Alpha  occ. eigenvalues --   -0.55008  -0.54666  -0.54520  -0.53982  -0.53874
 Alpha  occ. eigenvalues --   -0.53648  -0.53514  -0.53239  -0.53172  -0.53041
 Alpha  occ. eigenvalues --   -0.52892  -0.52655  -0.51979  -0.51757  -0.51532
 Alpha  occ. eigenvalues --   -0.51154  -0.50915  -0.50852  -0.50744  -0.50660
 Alpha  occ. eigenvalues --   -0.50503  -0.50262  -0.50080  -0.49888  -0.49628
 Alpha  occ. eigenvalues --   -0.49400  -0.49075  -0.49039  -0.48824  -0.48541
 Alpha  occ. eigenvalues --   -0.48413  -0.48385  -0.48140  -0.47905  -0.47781
 Alpha  occ. eigenvalues --   -0.47444  -0.47225  -0.47089  -0.46914  -0.46695
 Alpha  occ. eigenvalues --   -0.46379  -0.46155  -0.46076  -0.45670  -0.45471
 Alpha  occ. eigenvalues --   -0.45353  -0.45281  -0.45083  -0.44851  -0.44518
 Alpha  occ. eigenvalues --   -0.44255  -0.44078  -0.43939  -0.43880  -0.43851
 Alpha  occ. eigenvalues --   -0.43697  -0.43563  -0.43456  -0.43093  -0.42766
 Alpha  occ. eigenvalues --   -0.42701  -0.42559  -0.42460  -0.42321  -0.42100
 Alpha  occ. eigenvalues --   -0.41980  -0.41839  -0.41549  -0.41371  -0.41268
 Alpha  occ. eigenvalues --   -0.40926  -0.40575  -0.40394  -0.40327  -0.39962
 Alpha  occ. eigenvalues --   -0.39751  -0.39582  -0.39347  -0.39102  -0.39002
 Alpha  occ. eigenvalues --   -0.38300  -0.38084  -0.37836  -0.37485  -0.37265
 Alpha  occ. eigenvalues --   -0.36895  -0.36534  -0.36426  -0.36220  -0.36126
 Alpha  occ. eigenvalues --   -0.35345  -0.34641  -0.34533  -0.34396  -0.34110
 Alpha  occ. eigenvalues --   -0.33900  -0.33026  -0.32551  -0.32296  -0.31230
 Alpha  occ. eigenvalues --   -0.30469  -0.29784  -0.29448  -0.28766  -0.23524
 Alpha  occ. eigenvalues --   -0.21319
 Alpha virt. eigenvalues --   -0.08690  -0.01605   0.00399   0.02562   0.02840
 Alpha virt. eigenvalues --    0.04401   0.05249   0.05543   0.05939   0.06595
 Alpha virt. eigenvalues --    0.07926   0.08064   0.08481   0.08866   0.09080

 Mulliken charges:
               1
     1  Mg   0.866027
     2  C   -0.021294
     3  C   -0.079110
     4  C   -0.064439
     5  C   -0.121748
     6  N   -0.244115
     7  C   -0.043173
     8  C   -0.015071
     9  C   -0.071017
    10  C    0.022533
    11  C    0.027136
    12  C    0.052116
    13  C    0.085184
    14  C    0.137751
    15  O   -0.212460
    16  O   -0.357903
    17  N   -0.372587
    18  C    0.184991
    19  C   -0.146683
    20  C   -0.021591
    21  C    0.120307
    22  C    0.103186
    23  C   -0.001882
    24  O   -0.178904
    25  C    0.053992
    26  N   -0.272547
    27  C    0.011326
    28  C   -0.037169
    29  C    0.009535
    30  C    0.039312
    31  C    0.082192
    32  C    0.038026
    33  C   -0.005195
    34  N   -0.454664
    35  C    0.168048
    36  C   -0.156312
    37  C    0.022221
    38  C    0.122214
    39  C    0.140132
    40  C    0.009735
    41  O   -0.207372
    42  C    0.011233
    43  C    0.233573
    44  O   -0.248253
    45  O   -0.377959
    46  C    0.180296
    47  C    0.269229
    48  C   -0.138873
    49  C   -0.162540
    50  C    0.080560
    51  C    0.052166
    52  C    0.074883
    53  C    0.005299
    54  C   -0.119355
    55  C    0.032054
    56  C    0.070737
    57  C   -0.029061
    58  C    0.117094
    59  C   -0.110903
    60  C    0.005318
    61  C    0.014962
    62  C    0.022828
    63  C    0.066769
    64  C   -0.207305
    65  C    0.102400
    66  C    0.041517
    67  H   -0.044343
    68  H   -0.004978
    69  H   -0.039259
    70  H    0.055208
    71  H    0.015786
    72  H    0.025342
    73  H    0.003803
    74  H    0.017978
    75  H    0.005341
    76  H    0.008413
    77  H    0.018347
    78  H    0.050331
    79  H    0.034742
    80  H    0.036793
    81  H    0.019633
    82  H    0.041635
    83  H    0.031295
    84  H    0.026604
    85  H    0.010824
    86  H    0.009536
    87  H    0.018087
    88  H    0.016315
    89  H    0.010117
    90  H    0.019300
    91  H    0.012047
    92  H    0.028667
    93  H    0.006600
    94  H    0.010544
    95  H    0.014465
    96  H    0.023135
    97  H    0.037569
    98  H    0.051922
    99  H    0.050772
   100  H    0.025424
   101  H    0.053696
   102  H    0.026945
   103  H    0.037286
   104  H    0.007862
   105  H    0.010265
   106  H    0.021665
   107  H    0.035614
   108  H    0.010716
   109  H    0.003641
   110  H    0.014490
   111  H    0.003985
   112  H    0.007937
   113  H   -0.013075
   114  H   -0.022796
   115  H    0.008802
   116  H    0.008264
   117  H   -0.014521
   118  H   -0.018715
   119  H   -0.002355
   120  H   -0.011139
   121  H   -0.003869
   122  H    0.004443
   123  H   -0.008275
   124  H   -0.006827
   125  H    0.014362
   126  H    0.007659
   127  H   -0.006934
   128  H   -0.006042
   129  H   -0.004585
   130  H   -0.001548
   131  H   -0.011110
   132  H   -0.004350
   133  H   -0.010312
   134  H   -0.011862
   135  H   -0.004095
   136  H    0.011606
   137  H    0.005122
   138  H    0.013780
   139  H    0.011258
   140  H   -0.002378
 Sum of Mulliken charges =  -0.00000

 Dipole moment (field-independent basis, Debye):
    X=              4.7319    Y=              4.9210    Z=             -2.7112  Tot=              7.3456
 Quadrupole moment (field-independent basis, Debye-Ang):
   XX=           -385.9525   YY=           -420.9325   ZZ=           -407.2943
   XY=            -36.5874   XZ=             10.7009   YZ=              5.1318

 Normal termination of Gaussian 16 at Wed Apr 27 03:32:34 2022.
