 Gaussian 16, Revision A.03,
 Gaussian 16:  ES64L-G16RevA.03 25-Dec-2016

 ---------------------------------
 #p PBE1PBE/Def2SVP td=(nstates=5)
 ---------------------------------

 -----------------------------------------------------
 step_1051_chromophore_6 TDDFT with PBE1PBE functional
 -----------------------------------------------------
 Symbolic Z-matrix:
 Charge =  0 Multiplicity = 1

                         Standard orientation:
 ---------------------------------------------------------------------
 Center     Atomic      Atomic             Coordinates (Angstroms)
 Number     Number       Type             X           Y           Z
 ---------------------------------------------------------------------
      1         12           0       -5.427897    1.151385   -0.348589
      2          6           0       -4.613879   -2.256559   -0.245977
      3          6           0       -2.029901    1.822780   -0.421417
      4          6           0       -6.084993    4.427232    0.071345
      5          6           0       -8.780887    0.456981    0.176387
      6          7           0       -3.489632   -0.138551   -0.115986
      7          6           0       -3.426292   -1.507905   -0.228290
      8          6           0       -1.961856   -2.036434   -0.202239
      9          6           0       -1.169880   -0.633682   -0.345068
     10          6           0       -2.297251    0.444285   -0.277871
     11          6           0       -0.113957   -0.431535    0.801357
     12          6           0       -1.726411   -3.039293   -1.431497
     13          6           0       -0.938871   -4.376912   -1.236091
     14          6           0        0.012163   -4.552132   -0.070656
     15          8           0       -0.310410   -4.771712    1.071231
     16          8           0        1.308097   -4.285468   -0.498615
     17          7           0       -4.224949    2.842755   -0.439149
     18          6           0       -2.903375    2.959661   -0.464253
     19          6           0       -2.446371    4.333876   -0.573651
     20          6           0       -3.628293    5.125879   -0.454422
     21          6           0       -4.696240    4.174680   -0.230717
     22          6           0       -0.921115    4.699046   -0.748330
     23          6           0       -3.786325    6.638297   -0.438783
     24          8           0       -4.827663    7.191725   -0.186938
     25          6           0       -2.621969    7.445763   -0.592629
     26          7           0       -7.192663    2.247042    0.129480
     27          6           0       -7.261159    3.589103    0.194462
     28          6           0       -8.588131    4.100866    0.718986
     29          6           0       -9.483327    2.819057    0.628697
     30          6           0       -8.435933    1.733598    0.293425
     31          6           0       -8.566504    4.873677    1.990219
     32          6           0      -10.847386    2.839128   -0.208204
     33          6           0      -12.131781    2.765757    0.614782
     34          7           0       -6.496427   -0.428202   -0.096395
     35          6           0       -7.920464   -0.630345   -0.004584
     36          6           0       -8.307686   -2.003450   -0.126767
     37          6           0       -7.020018   -2.716491   -0.144469
     38          6           0       -5.980349   -1.699922   -0.128806
     39          6           0       -9.680413   -2.478070   -0.149797
     40          6           0       -6.379428   -3.987510   -0.143559
     41          8           0       -6.903682   -5.101101    0.058021
     42          6           0       -4.822345   -3.776411   -0.273183
     43          6           0       -4.165974   -4.550853    0.773418
     44          8           0       -4.047854   -4.300507    1.996843
     45          8           0       -3.750996   -5.784252    0.250491
     46          6           0       -3.363330   -6.796735    1.337274
     47          6           0        2.407428   -4.461933    0.440996
     48          6           0        3.623871   -3.818936   -0.201251
     49          6           0        4.894500   -3.926186    0.284471
     50          6           0        5.316795   -4.449895    1.647460
     51          6           0        5.977489   -3.224139   -0.534955
     52          6           0        5.997094   -1.718187   -0.204425
     53          6           0        7.522802   -1.355652   -0.354389
     54          6           0        8.019679   -0.547584   -1.603853
     55          6           0        8.318140   -1.337111   -2.924157
     56          6           0        9.064369    0.480584   -1.312519
     57          6           0       10.355252   -0.043702   -0.635429
     58          6           0       11.693936    0.010020   -1.441839
     59          6           0       12.456271    1.370477   -1.149800
     60          6           0       12.605288    2.364458   -2.398686
     61          6           0       13.749997    1.304891   -0.380839
     62          6           0       13.699010    1.866610    1.065488
     63          6           0       15.008499    1.580356    1.679295
     64          6           0       15.926215    2.854213    1.870526
     65          6           0       15.473249    3.625033    3.012381
     66          6           0       17.442873    2.400159    1.848335
     67          1           0       -0.944602    1.937177   -0.459945
     68          1           0       -6.327532    5.435702    0.413219
     69          1           0       -9.858893    0.300541    0.100529
     70          1           0       -1.662304   -2.465829    0.753436
     71          1           0       -0.559726   -0.646697   -1.247713
     72          1           0       -0.323208    0.435739    1.426691
     73          1           0        0.911522   -0.366920    0.438085
     74          1           0        0.016742   -1.281138    1.471414
     75          1           0       -1.239749   -2.485460   -2.234333
     76          1           0       -2.739706   -3.258601   -1.768365
     77          1           0       -0.293912   -4.272448   -2.108517
     78          1           0       -1.548368   -5.281274   -1.249844
     79          1           0       -0.641544    5.249904    0.150398
     80          1           0       -0.729213    5.254279   -1.665833
     81          1           0       -0.212201    3.871855   -0.782182
     82          1           0       -1.816709    7.282986    0.123722
     83          1           0       -3.020231    8.459467   -0.536196
     84          1           0       -2.194861    7.277240   -1.580851
     85          1           0       -8.858522    4.875455    0.000636
     86          1           0       -9.743549    2.579385    1.659473
     87          1           0       -9.160664    4.429541    2.788432
     88          1           0       -8.744800    5.936116    1.824765
     89          1           0       -7.550855    4.932684    2.382982
     90          1           0      -10.813257    2.033690   -0.942614
     91          1           0      -10.908227    3.834375   -0.649648
     92          1           0      -12.125917    2.964427    1.685855
     93          1           0      -12.486875    1.752868    0.424294
     94          1           0      -12.891637    3.387786    0.140663
     95          1           0      -10.305351   -1.808537   -0.742701
     96          1           0      -10.104500   -2.400405    0.851258
     97          1           0       -9.751140   -3.528509   -0.432678
     98          1           0       -4.528565   -4.076815   -1.279220
     99          1           0       -2.501121   -6.348649    1.830129
    100          1           0       -3.008459   -7.690954    0.824224
    101          1           0       -4.163792   -7.044101    2.035220
    102          1           0        2.664020   -5.516039    0.547279
    103          1           0        2.022941   -4.106856    1.397594
    104          1           0        3.380114   -3.324612   -1.141434
    105          1           0        4.480042   -4.532735    2.341361
    106          1           0        5.971973   -3.748876    2.163792
    107          1           0        5.780655   -5.430939    1.539538
    108          1           0        5.765366   -3.309908   -1.600492
    109          1           0        6.896720   -3.747659   -0.273111
    110          1           0        5.577952   -1.454037    0.766214
    111          1           0        5.437092   -1.194799   -0.979100
    112          1           0        8.214936   -2.196566   -0.398298
    113          1           0        7.877843   -0.732882    0.466874
    114          1           0        7.097831   -0.034956   -1.875105
    115          1           0        9.113406   -0.996397   -3.587575
    116          1           0        7.464469   -1.591470   -3.552688
    117          1           0        8.714147   -2.296618   -2.593306
    118          1           0        8.674542    1.085978   -0.494048
    119          1           0        9.195460    1.128331   -2.180121
    120          1           0       10.161574   -1.069946   -0.322836
    121          1           0       10.459937    0.518859    0.292023
    122          1           0       11.612641   -0.138022   -2.519081
    123          1           0       12.211889   -0.814428   -0.951257
    124          1           0       11.839028    2.049832   -0.561600
    125          1           0       13.629674    2.455567   -2.758101
    126          1           0       12.090381    3.261455   -2.054046
    127          1           0       12.061826    2.180460   -3.326457
    128          1           0       14.500350    1.871152   -0.933728
    129          1           0       14.045990    0.263731   -0.249377
    130          1           0       12.792438    1.546510    1.578055
    131          1           0       13.573937    2.929256    0.856396
    132          1           0       15.586786    0.882653    1.072048
    133          1           0       14.927919    1.198548    2.696360
    134          1           0       15.836007    3.519612    1.012376
    135          1           0       16.387065    4.047227    3.430401
    136          1           0       14.890697    3.055516    3.735794
    137          1           0       14.903472    4.449090    2.583437
    138          1           0       17.864607    2.899661    0.975104
    139          1           0       17.672365    1.337066    1.781024
    140          1           0       17.897189    2.721510    2.785060
 ---------------------------------------------------------------------

 SCF Done:  E(RPBE1PBE) =  -3005.30564879     A.U. after   16 cycles

 Excitation energies and oscillator strengths:

 Excited State   1:      Singlet-A      1.8549 eV  668.43 nm  f=0.3500  <S**2>=0.000
     245 -> 248        0.17724
     246 -> 247        0.68874
 This state for optimization and/or second-order correction.
 Total Energy, E(TD-HF/TD-DFT) =  -3005.23748387
 Copying the excited state density for this state as the 1-particle RhoCI density.

 Excited State   2:      Singlet-A      2.1598 eV  574.05 nm  f=0.1500  <S**2>=0.000
     245 -> 247        0.66399
     246 -> 248       -0.23049

 Excited State   3:      Singlet-A      2.8702 eV  431.97 nm  f=0.0014  <S**2>=0.000
     242 -> 247       -0.29890
     242 -> 249       -0.11352
     244 -> 247        0.61202

 Excited State   4:      Singlet-A      3.0293 eV  409.28 nm  f=0.0111  <S**2>=0.000
     241 -> 247       -0.12012
     242 -> 247        0.60876
     244 -> 247        0.31242

 Excited State   5:      Singlet-A      3.2528 eV  381.17 nm  f=0.0119  <S**2>=0.000
     240 -> 247        0.49595
     241 -> 247        0.41241
     246 -> 248        0.23171

 The electronic state is 1-A.
 Alpha  occ. eigenvalues --  -46.91330 -19.25365 -19.23893 -19.20715 -19.19550
 Alpha  occ. eigenvalues --  -19.18550 -19.17902 -14.41261 -14.41024 -14.39596
 Alpha  occ. eigenvalues --  -14.39065 -10.36502 -10.35174 -10.32108 -10.31356
 Alpha  occ. eigenvalues --  -10.29157 -10.28934 -10.28909 -10.28754 -10.28743
 Alpha  occ. eigenvalues --  -10.28132 -10.27480 -10.27401 -10.27281 -10.27148
 Alpha  occ. eigenvalues --  -10.26967 -10.26131 -10.26043 -10.26043 -10.25752
 Alpha  occ. eigenvalues --  -10.25749 -10.25658 -10.25643 -10.25568 -10.25518
 Alpha  occ. eigenvalues --  -10.25152 -10.24952 -10.24739 -10.24587 -10.24566
 Alpha  occ. eigenvalues --  -10.24396 -10.24089 -10.23962 -10.23599 -10.23331
 Alpha  occ. eigenvalues --  -10.23308 -10.23256 -10.23214 -10.23184 -10.23175
 Alpha  occ. eigenvalues --  -10.23101 -10.23076 -10.23071 -10.23006 -10.22963
 Alpha  occ. eigenvalues --  -10.22868 -10.22748 -10.22569 -10.22049 -10.22020
 Alpha  occ. eigenvalues --  -10.21986 -10.21921 -10.21841 -10.21784 -10.21735
 Alpha  occ. eigenvalues --  -10.21196  -3.13699  -1.86509  -1.86074  -1.85960
 Alpha  occ. eigenvalues --   -1.11017  -1.07259  -1.06582  -1.03480  -1.02080
 Alpha  occ. eigenvalues --   -0.99026  -0.98683  -0.98202  -0.97432  -0.95641
 Alpha  occ. eigenvalues --   -0.85905  -0.84884  -0.84357  -0.83356  -0.83143
 Alpha  occ. eigenvalues --   -0.82913  -0.82486  -0.81738  -0.81610  -0.81193
 Alpha  occ. eigenvalues --   -0.80936  -0.79523  -0.78584  -0.78374  -0.77582
 Alpha  occ. eigenvalues --   -0.77205  -0.76731  -0.75663  -0.74984  -0.74137
 Alpha  occ. eigenvalues --   -0.73924  -0.72835  -0.71922  -0.71661  -0.70283
 Alpha  occ. eigenvalues --   -0.69968  -0.69750  -0.69460  -0.69194  -0.68237
 Alpha  occ. eigenvalues --   -0.67303  -0.66941  -0.65397  -0.64615  -0.63478
 Alpha  occ. eigenvalues --   -0.62939  -0.62658  -0.61912  -0.61804  -0.60464
 Alpha  occ. eigenvalues --   -0.59942  -0.59649  -0.59292  -0.58284  -0.57954
 Alpha  occ. eigenvalues --   -0.57686  -0.56805  -0.55339  -0.55206  -0.54789
 Alpha  occ. eigenvalues --   -0.54216  -0.53852  -0.53247  -0.52437  -0.52070
 Alpha  occ. eigenvalues --   -0.51499  -0.51207  -0.50899  -0.50108  -0.49787
 Alpha  occ. eigenvalues --   -0.49547  -0.49258  -0.48912  -0.48416  -0.48331
 Alpha  occ. eigenvalues --   -0.48005  -0.47833  -0.47740  -0.47659  -0.47543
 Alpha  occ. eigenvalues --   -0.47416  -0.47203  -0.46645  -0.46428  -0.46068
 Alpha  occ. eigenvalues --   -0.45773  -0.45485  -0.45351  -0.45216  -0.45122
 Alpha  occ. eigenvalues --   -0.44949  -0.44864  -0.44739  -0.44443  -0.44298
 Alpha  occ. eigenvalues --   -0.43997  -0.43703  -0.43628  -0.43363  -0.43109
 Alpha  occ. eigenvalues --   -0.43071  -0.42971  -0.42738  -0.42651  -0.42317
 Alpha  occ. eigenvalues --   -0.42208  -0.41853  -0.41678  -0.41492  -0.41379
 Alpha  occ. eigenvalues --   -0.41093  -0.40859  -0.40736  -0.40397  -0.40257
 Alpha  occ. eigenvalues --   -0.40127  -0.39988  -0.39764  -0.39630  -0.39373
 Alpha  occ. eigenvalues --   -0.39244  -0.38835  -0.38700  -0.38659  -0.38533
 Alpha  occ. eigenvalues --   -0.38369  -0.38253  -0.38214  -0.37884  -0.37575
 Alpha  occ. eigenvalues --   -0.37411  -0.37323  -0.37266  -0.36999  -0.36897
 Alpha  occ. eigenvalues --   -0.36813  -0.36719  -0.36265  -0.36247  -0.36201
 Alpha  occ. eigenvalues --   -0.35753  -0.35463  -0.35370  -0.35284  -0.34985
 Alpha  occ. eigenvalues --   -0.34638  -0.34351  -0.34088  -0.33969  -0.33866
 Alpha  occ. eigenvalues --   -0.33316  -0.33133  -0.32671  -0.32373  -0.32071
 Alpha  occ. eigenvalues --   -0.31767  -0.31467  -0.31354  -0.31280  -0.31065
 Alpha  occ. eigenvalues --   -0.30252  -0.29816  -0.29595  -0.29327  -0.29024
 Alpha  occ. eigenvalues --   -0.28805  -0.28564  -0.27445  -0.26985  -0.26395
 Alpha  occ. eigenvalues --   -0.26025  -0.25095  -0.24753  -0.24624  -0.20462
 Alpha  occ. eigenvalues --   -0.18848
 Alpha virt. eigenvalues --   -0.11157  -0.05167  -0.03798  -0.01838  -0.00192
 Alpha virt. eigenvalues --    0.00187   0.00598   0.00938   0.01560   0.02711
 Alpha virt. eigenvalues --    0.04398   0.04688   0.04858   0.05325   0.05622

 Mulliken charges:
               1
     1  Mg   1.020376
     2  C   -0.030206
     3  C   -0.064745
     4  C   -0.060649
     5  C   -0.111339
     6  N   -0.344305
     7  C    0.023856
     8  C   -0.081248
     9  C   -0.142969
    10  C    0.058317
    11  C   -0.026240
    12  C    0.004594
    13  C    0.005662
    14  C    0.207648
    15  O   -0.247276
    16  O   -0.390842
    17  N   -0.483677
    18  C    0.199798
    19  C   -0.167905
    20  C   -0.072965
    21  C    0.137144
    22  C    0.044920
    23  C    0.051250
    24  O   -0.219719
    25  C   -0.017669
    26  N   -0.380819
    27  C    0.049017
    28  C   -0.111721
    29  C   -0.057076
    30  C    0.075313
    31  C    0.024006
    32  C   -0.032139
    33  C   -0.075031
    34  N   -0.578390
    35  C    0.180480
    36  C   -0.162364
    37  C   -0.028851
    38  C    0.174095
    39  C    0.083246
    40  C    0.102653
    41  O   -0.247643
    42  C   -0.099808
    43  C    0.319860
    44  O   -0.282226
    45  O   -0.406642
    46  C    0.122600
    47  C    0.236006
    48  C   -0.148312
    49  C   -0.209046
    50  C    0.016842
    51  C   -0.014099
    52  C    0.015274
    53  C   -0.051006
    54  C   -0.204352
    55  C   -0.022272
    56  C    0.010837
    57  C   -0.092564
    58  C    0.058892
    59  C   -0.193608
    60  C   -0.050362
    61  C   -0.037451
    62  C   -0.040486
    63  C    0.002832
    64  C   -0.294599
    65  C    0.042587
    66  C   -0.019252
    67  H   -0.009345
    68  H    0.026369
    69  H   -0.006820
    70  H    0.091201
    71  H    0.050552
    72  H    0.052383
    73  H    0.030587
    74  H    0.044026
    75  H    0.036459
    76  H    0.043328
    77  H    0.052423
    78  H    0.081546
    79  H    0.060751
    80  H    0.062012
    81  H    0.044170
    82  H    0.067283
    83  H    0.057419
    84  H    0.053656
    85  H    0.049146
    86  H    0.049686
    87  H    0.044191
    88  H    0.042849
    89  H    0.038853
    90  H    0.050290
    91  H    0.046520
    92  H    0.054761
    93  H    0.034298
    94  H    0.039131
    95  H    0.042839
    96  H    0.053556
    97  H    0.066328
    98  H    0.090108
    99  H    0.074648
   100  H    0.047801
   101  H    0.075259
   102  H    0.054569
   103  H    0.061230
   104  H    0.036783
   105  H    0.037563
   106  H    0.048627
   107  H    0.063075
   108  H    0.043662
   109  H    0.036517
   110  H    0.045919
   111  H    0.035784
   112  H    0.038255
   113  H    0.021101
   114  H    0.018644
   115  H    0.035352
   116  H    0.034987
   117  H    0.013016
   118  H    0.016231
   119  H    0.029755
   120  H    0.022338
   121  H    0.028363
   122  H    0.035857
   123  H    0.025239
   124  H    0.032531
   125  H    0.040204
   126  H    0.034222
   127  H    0.020041
   128  H    0.026954
   129  H    0.028534
   130  H    0.031139
   131  H    0.023267
   132  H    0.027882
   133  H    0.024038
   134  H    0.026154
   135  H    0.024092
   136  H    0.037722
   137  H    0.032786
   138  H    0.040973
   139  H    0.037363
   140  H    0.024737
 Sum of Mulliken charges =  -0.00000

 Dipole moment (field-independent basis, Debye):
    X=              4.2959    Y=              4.2589    Z=             -2.6343  Tot=              6.5979
 Quadrupole moment (field-independent basis, Debye-Ang):
   XX=           -375.7226   YY=           -419.7128   ZZ=           -404.8995
   XY=            -33.5841   XZ=             10.2619   YZ=              5.3889

 Normal termination of Gaussian 16 at Wed Apr 27 03:54:31 2022.
