 Gaussian 16, Revision A.03,
 Gaussian 16:  ES64L-G16RevA.03 25-Dec-2016

 --------------------------------
 #p wB97XD/Def2SVP td=(nstates=5)
 --------------------------------

 ----------------------------------------------------
 step_1051_chromophore_6 TDDFT with wB97XD functional
 ----------------------------------------------------
 Symbolic Z-matrix:
 Charge =  0 Multiplicity = 1

                         Standard orientation:
 ---------------------------------------------------------------------
 Center     Atomic      Atomic             Coordinates (Angstroms)
 Number     Number       Type             X           Y           Z
 ---------------------------------------------------------------------
      1         12           0       -5.427897    1.151385   -0.348589
      2          6           0       -4.613879   -2.256559   -0.245977
      3          6           0       -2.029901    1.822780   -0.421417
      4          6           0       -6.084993    4.427232    0.071345
      5          6           0       -8.780887    0.456981    0.176387
      6          7           0       -3.489632   -0.138551   -0.115986
      7          6           0       -3.426292   -1.507905   -0.228290
      8          6           0       -1.961856   -2.036434   -0.202239
      9          6           0       -1.169880   -0.633682   -0.345068
     10          6           0       -2.297251    0.444285   -0.277871
     11          6           0       -0.113957   -0.431535    0.801357
     12          6           0       -1.726411   -3.039293   -1.431497
     13          6           0       -0.938871   -4.376912   -1.236091
     14          6           0        0.012163   -4.552132   -0.070656
     15          8           0       -0.310410   -4.771712    1.071231
     16          8           0        1.308097   -4.285468   -0.498615
     17          7           0       -4.224949    2.842755   -0.439149
     18          6           0       -2.903375    2.959661   -0.464253
     19          6           0       -2.446371    4.333876   -0.573651
     20          6           0       -3.628293    5.125879   -0.454422
     21          6           0       -4.696240    4.174680   -0.230717
     22          6           0       -0.921115    4.699046   -0.748330
     23          6           0       -3.786325    6.638297   -0.438783
     24          8           0       -4.827663    7.191725   -0.186938
     25          6           0       -2.621969    7.445763   -0.592629
     26          7           0       -7.192663    2.247042    0.129480
     27          6           0       -7.261159    3.589103    0.194462
     28          6           0       -8.588131    4.100866    0.718986
     29          6           0       -9.483327    2.819057    0.628697
     30          6           0       -8.435933    1.733598    0.293425
     31          6           0       -8.566504    4.873677    1.990219
     32          6           0      -10.847386    2.839128   -0.208204
     33          6           0      -12.131781    2.765757    0.614782
     34          7           0       -6.496427   -0.428202   -0.096395
     35          6           0       -7.920464   -0.630345   -0.004584
     36          6           0       -8.307686   -2.003450   -0.126767
     37          6           0       -7.020018   -2.716491   -0.144469
     38          6           0       -5.980349   -1.699922   -0.128806
     39          6           0       -9.680413   -2.478070   -0.149797
     40          6           0       -6.379428   -3.987510   -0.143559
     41          8           0       -6.903682   -5.101101    0.058021
     42          6           0       -4.822345   -3.776411   -0.273183
     43          6           0       -4.165974   -4.550853    0.773418
     44          8           0       -4.047854   -4.300507    1.996843
     45          8           0       -3.750996   -5.784252    0.250491
     46          6           0       -3.363330   -6.796735    1.337274
     47          6           0        2.407428   -4.461933    0.440996
     48          6           0        3.623871   -3.818936   -0.201251
     49          6           0        4.894500   -3.926186    0.284471
     50          6           0        5.316795   -4.449895    1.647460
     51          6           0        5.977489   -3.224139   -0.534955
     52          6           0        5.997094   -1.718187   -0.204425
     53          6           0        7.522802   -1.355652   -0.354389
     54          6           0        8.019679   -0.547584   -1.603853
     55          6           0        8.318140   -1.337111   -2.924157
     56          6           0        9.064369    0.480584   -1.312519
     57          6           0       10.355252   -0.043702   -0.635429
     58          6           0       11.693936    0.010020   -1.441839
     59          6           0       12.456271    1.370477   -1.149800
     60          6           0       12.605288    2.364458   -2.398686
     61          6           0       13.749997    1.304891   -0.380839
     62          6           0       13.699010    1.866610    1.065488
     63          6           0       15.008499    1.580356    1.679295
     64          6           0       15.926215    2.854213    1.870526
     65          6           0       15.473249    3.625033    3.012381
     66          6           0       17.442873    2.400159    1.848335
     67          1           0       -0.944602    1.937177   -0.459945
     68          1           0       -6.327532    5.435702    0.413219
     69          1           0       -9.858893    0.300541    0.100529
     70          1           0       -1.662304   -2.465829    0.753436
     71          1           0       -0.559726   -0.646697   -1.247713
     72          1           0       -0.323208    0.435739    1.426691
     73          1           0        0.911522   -0.366920    0.438085
     74          1           0        0.016742   -1.281138    1.471414
     75          1           0       -1.239749   -2.485460   -2.234333
     76          1           0       -2.739706   -3.258601   -1.768365
     77          1           0       -0.293912   -4.272448   -2.108517
     78          1           0       -1.548368   -5.281274   -1.249844
     79          1           0       -0.641544    5.249904    0.150398
     80          1           0       -0.729213    5.254279   -1.665833
     81          1           0       -0.212201    3.871855   -0.782182
     82          1           0       -1.816709    7.282986    0.123722
     83          1           0       -3.020231    8.459467   -0.536196
     84          1           0       -2.194861    7.277240   -1.580851
     85          1           0       -8.858522    4.875455    0.000636
     86          1           0       -9.743549    2.579385    1.659473
     87          1           0       -9.160664    4.429541    2.788432
     88          1           0       -8.744800    5.936116    1.824765
     89          1           0       -7.550855    4.932684    2.382982
     90          1           0      -10.813257    2.033690   -0.942614
     91          1           0      -10.908227    3.834375   -0.649648
     92          1           0      -12.125917    2.964427    1.685855
     93          1           0      -12.486875    1.752868    0.424294
     94          1           0      -12.891637    3.387786    0.140663
     95          1           0      -10.305351   -1.808537   -0.742701
     96          1           0      -10.104500   -2.400405    0.851258
     97          1           0       -9.751140   -3.528509   -0.432678
     98          1           0       -4.528565   -4.076815   -1.279220
     99          1           0       -2.501121   -6.348649    1.830129
    100          1           0       -3.008459   -7.690954    0.824224
    101          1           0       -4.163792   -7.044101    2.035220
    102          1           0        2.664020   -5.516039    0.547279
    103          1           0        2.022941   -4.106856    1.397594
    104          1           0        3.380114   -3.324612   -1.141434
    105          1           0        4.480042   -4.532735    2.341361
    106          1           0        5.971973   -3.748876    2.163792
    107          1           0        5.780655   -5.430939    1.539538
    108          1           0        5.765366   -3.309908   -1.600492
    109          1           0        6.896720   -3.747659   -0.273111
    110          1           0        5.577952   -1.454037    0.766214
    111          1           0        5.437092   -1.194799   -0.979100
    112          1           0        8.214936   -2.196566   -0.398298
    113          1           0        7.877843   -0.732882    0.466874
    114          1           0        7.097831   -0.034956   -1.875105
    115          1           0        9.113406   -0.996397   -3.587575
    116          1           0        7.464469   -1.591470   -3.552688
    117          1           0        8.714147   -2.296618   -2.593306
    118          1           0        8.674542    1.085978   -0.494048
    119          1           0        9.195460    1.128331   -2.180121
    120          1           0       10.161574   -1.069946   -0.322836
    121          1           0       10.459937    0.518859    0.292023
    122          1           0       11.612641   -0.138022   -2.519081
    123          1           0       12.211889   -0.814428   -0.951257
    124          1           0       11.839028    2.049832   -0.561600
    125          1           0       13.629674    2.455567   -2.758101
    126          1           0       12.090381    3.261455   -2.054046
    127          1           0       12.061826    2.180460   -3.326457
    128          1           0       14.500350    1.871152   -0.933728
    129          1           0       14.045990    0.263731   -0.249377
    130          1           0       12.792438    1.546510    1.578055
    131          1           0       13.573937    2.929256    0.856396
    132          1           0       15.586786    0.882653    1.072048
    133          1           0       14.927919    1.198548    2.696360
    134          1           0       15.836007    3.519612    1.012376
    135          1           0       16.387065    4.047227    3.430401
    136          1           0       14.890697    3.055516    3.735794
    137          1           0       14.903472    4.449090    2.583437
    138          1           0       17.864607    2.899661    0.975104
    139          1           0       17.672365    1.337066    1.781024
    140          1           0       17.897189    2.721510    2.785060
 ---------------------------------------------------------------------

 SCF Done:  E(RwB97XD) =  -3007.81339498     A.U. after   19 cycles

 Excitation energies and oscillator strengths:

 Excited State   1:      Singlet-A      1.7137 eV  723.48 nm  f=0.3628  <S**2>=0.000
     245 -> 248        0.18188
     246 -> 247        0.68114
     245 <- 248        0.10877
 This state for optimization and/or second-order correction.
 Total Energy, E(TD-HF/TD-DFT) =  -3007.75041707
 Copying the excited state density for this state as the 1-particle RhoCI density.

 Excited State   2:      Singlet-A      2.1136 eV  586.60 nm  f=0.1611  <S**2>=0.000
     245 -> 247        0.65274
     246 -> 248       -0.24752

 Excited State   3:      Singlet-A      3.4382 eV  360.61 nm  f=0.0435  <S**2>=0.000
     240 -> 247       -0.12932
     241 -> 247       -0.29312
     244 -> 247        0.57853
     246 -> 248       -0.12666

 Excited State   4:      Singlet-A      3.5009 eV  354.15 nm  f=0.1752  <S**2>=0.000
     240 -> 247        0.26985
     241 -> 247        0.26085
     242 -> 247        0.15987
     242 -> 249       -0.11527
     244 -> 247        0.26233
     245 -> 247        0.11742
     246 -> 248        0.44134

 Excited State   5:      Singlet-A      3.5882 eV  345.53 nm  f=0.0233  <S**2>=0.000
     242 -> 247        0.52362
     242 -> 249       -0.28972
     242 -> 250       -0.22274
     244 -> 247       -0.15477
     246 -> 248       -0.17424

 The electronic state is 1-A.
 Alpha  occ. eigenvalues --  -46.94257 -19.29859 -19.28288 -19.25329 -19.24734
 Alpha  occ. eigenvalues --  -19.23087 -19.22235 -14.46490 -14.46010 -14.44793
 Alpha  occ. eigenvalues --  -14.43738 -10.43229 -10.41851 -10.39315 -10.37831
 Alpha  occ. eigenvalues --  -10.35790 -10.35620 -10.35585 -10.35393 -10.35049
 Alpha  occ. eigenvalues --  -10.34805 -10.34456 -10.33681 -10.33410 -10.33115
 Alpha  occ. eigenvalues --  -10.32678 -10.32577 -10.32522 -10.32339 -10.32320
 Alpha  occ. eigenvalues --  -10.32100 -10.31911 -10.31798 -10.31710 -10.31682
 Alpha  occ. eigenvalues --  -10.31500 -10.31278 -10.31266 -10.30975 -10.30916
 Alpha  occ. eigenvalues --  -10.30824 -10.30541 -10.30339 -10.29978 -10.29938
 Alpha  occ. eigenvalues --  -10.29711 -10.29584 -10.29570 -10.29553 -10.29551
 Alpha  occ. eigenvalues --  -10.29469 -10.29331 -10.29324 -10.29288 -10.29259
 Alpha  occ. eigenvalues --  -10.29023 -10.28972 -10.28961 -10.28475 -10.28450
 Alpha  occ. eigenvalues --  -10.28414 -10.28318 -10.28228 -10.28199 -10.28105
 Alpha  occ. eigenvalues --  -10.27642  -3.20474  -1.94035  -1.93602  -1.93482
 Alpha  occ. eigenvalues --   -1.18335  -1.14514  -1.14414  -1.10757  -1.09154
 Alpha  occ. eigenvalues --   -1.06529  -1.05907  -1.05847  -1.04869  -1.02670
 Alpha  occ. eigenvalues --   -0.93296  -0.92566  -0.92029  -0.91030  -0.90759
 Alpha  occ. eigenvalues --   -0.90467  -0.90103  -0.89824  -0.89281  -0.88889
 Alpha  occ. eigenvalues --   -0.88285  -0.87179  -0.86271  -0.85929  -0.85461
 Alpha  occ. eigenvalues --   -0.85028  -0.84388  -0.83225  -0.82583  -0.81806
 Alpha  occ. eigenvalues --   -0.81573  -0.80625  -0.79468  -0.79251  -0.77966
 Alpha  occ. eigenvalues --   -0.77670  -0.77374  -0.77145  -0.76723  -0.75916
 Alpha  occ. eigenvalues --   -0.74820  -0.74465  -0.72988  -0.72240  -0.71066
 Alpha  occ. eigenvalues --   -0.70608  -0.70304  -0.69500  -0.69368  -0.68140
 Alpha  occ. eigenvalues --   -0.67415  -0.67172  -0.66720  -0.65688  -0.65416
 Alpha  occ. eigenvalues --   -0.65366  -0.64466  -0.62968  -0.62691  -0.62379
 Alpha  occ. eigenvalues --   -0.61693  -0.61217  -0.60619  -0.59887  -0.59259
 Alpha  occ. eigenvalues --   -0.58900  -0.58748  -0.58260  -0.57557  -0.57123
 Alpha  occ. eigenvalues --   -0.56942  -0.56583  -0.56388  -0.55855  -0.55781
 Alpha  occ. eigenvalues --   -0.55634  -0.55404  -0.55152  -0.55086  -0.54950
 Alpha  occ. eigenvalues --   -0.54816  -0.54561  -0.53867  -0.53657  -0.53433
 Alpha  occ. eigenvalues --   -0.53101  -0.52868  -0.52767  -0.52689  -0.52599
 Alpha  occ. eigenvalues --   -0.52444  -0.52146  -0.51999  -0.51768  -0.51527
 Alpha  occ. eigenvalues --   -0.51299  -0.51036  -0.50992  -0.50764  -0.50426
 Alpha  occ. eigenvalues --   -0.50323  -0.50267  -0.50017  -0.49859  -0.49727
 Alpha  occ. eigenvalues --   -0.49351  -0.49111  -0.48975  -0.48764  -0.48596
 Alpha  occ. eigenvalues --   -0.48337  -0.48076  -0.47972  -0.47584  -0.47398
 Alpha  occ. eigenvalues --   -0.47238  -0.47184  -0.46974  -0.46759  -0.46423
 Alpha  occ. eigenvalues --   -0.46137  -0.45986  -0.45867  -0.45793  -0.45722
 Alpha  occ. eigenvalues --   -0.45620  -0.45440  -0.45414  -0.45044  -0.44790
 Alpha  occ. eigenvalues --   -0.44571  -0.44465  -0.44392  -0.44194  -0.43972
 Alpha  occ. eigenvalues --   -0.43884  -0.43760  -0.43389  -0.43287  -0.43206
 Alpha  occ. eigenvalues --   -0.42809  -0.42505  -0.42300  -0.42270  -0.41899
 Alpha  occ. eigenvalues --   -0.41683  -0.41430  -0.41209  -0.40962  -0.40906
 Alpha  occ. eigenvalues --   -0.40206  -0.39988  -0.39702  -0.39404  -0.39115
 Alpha  occ. eigenvalues --   -0.38797  -0.38561  -0.38388  -0.38163  -0.38029
 Alpha  occ. eigenvalues --   -0.37203  -0.36611  -0.36497  -0.36245  -0.36007
 Alpha  occ. eigenvalues --   -0.35760  -0.35275  -0.34481  -0.34276  -0.33465
 Alpha  occ. eigenvalues --   -0.32684  -0.31693  -0.31484  -0.30845  -0.25470
 Alpha  occ. eigenvalues --   -0.23151
 Alpha virt. eigenvalues --   -0.07030   0.00322   0.02451   0.04663   0.05951
 Alpha virt. eigenvalues --    0.06694   0.07462   0.07766   0.08332   0.09142
 Alpha virt. eigenvalues --    0.10752   0.11523   0.11627   0.12105   0.12399

 Mulliken charges:
               1
     1  Mg   1.008166
     2  C   -0.034554
     3  C   -0.089620
     4  C   -0.075525
     5  C   -0.122500
     6  N   -0.310783
     7  C   -0.002519
     8  C   -0.060939
     9  C   -0.120581
    10  C    0.051228
    11  C   -0.016328
    12  C    0.019133
    13  C    0.023815
    14  C    0.192832
    15  O   -0.242669
    16  O   -0.388970
    17  N   -0.456500
    18  C    0.201894
    19  C   -0.161228
    20  C   -0.065621
    21  C    0.138045
    22  C    0.058169
    23  C    0.051065
    24  O   -0.211524
    25  C   -0.010182
    26  N   -0.344601
    27  C    0.039595
    28  C   -0.088153
    29  C   -0.032550
    30  C    0.060569
    31  C    0.031856
    32  C   -0.014054
    33  C   -0.060530
    34  N   -0.546812
    35  C    0.172605
    36  C   -0.162559
    37  C   -0.026623
    38  C    0.156335
    39  C    0.092414
    40  C    0.083874
    41  O   -0.242404
    42  C   -0.056835
    43  C    0.293710
    44  O   -0.276198
    45  O   -0.405879
    46  C    0.139100
    47  C    0.245197
    48  C   -0.157991
    49  C   -0.192574
    50  C    0.028778
    51  C    0.007043
    52  C    0.027049
    53  C   -0.031038
    54  C   -0.172984
    55  C   -0.013859
    56  C    0.027219
    57  C   -0.073395
    58  C    0.072756
    59  C   -0.164622
    60  C   -0.038442
    61  C   -0.018182
    62  C   -0.023907
    63  C    0.024161
    64  C   -0.264692
    65  C    0.051482
    66  C   -0.007129
    67  H   -0.020644
    68  H    0.020984
    69  H   -0.016350
    70  H    0.078433
    71  H    0.041688
    72  H    0.045747
    73  H    0.025475
    74  H    0.039594
    75  H    0.029439
    76  H    0.030742
    77  H    0.046192
    78  H    0.075894
    79  H    0.056462
    80  H    0.059065
    81  H    0.043533
    82  H    0.063191
    83  H    0.057614
    84  H    0.048793
    85  H    0.038244
    86  H    0.034686
    87  H    0.040773
    88  H    0.038938
    89  H    0.031154
    90  H    0.043066
    91  H    0.037084
    92  H    0.049395
    93  H    0.027845
    94  H    0.033375
    95  H    0.035306
    96  H    0.046628
    97  H    0.062617
    98  H    0.081109
    99  H    0.069024
   100  H    0.044199
   101  H    0.072014
   102  H    0.048883
   103  H    0.057042
   104  H    0.034167
   105  H    0.032355
   106  H    0.043050
   107  H    0.058348
   108  H    0.036061
   109  H    0.026757
   110  H    0.038970
   111  H    0.027545
   112  H    0.022702
   113  H    0.011736
   114  H    0.004253
   115  H    0.030278
   116  H    0.030456
   117  H    0.004460
   118  H    0.006258
   119  H    0.022066
   120  H    0.012275
   121  H    0.018620
   122  H    0.028277
   123  H    0.016878
   124  H    0.014975
   125  H    0.034358
   126  H    0.028628
   127  H    0.014148
   128  H    0.015296
   129  H    0.016917
   130  H    0.023781
   131  H    0.010547
   132  H    0.015763
   133  H    0.014503
   134  H    0.014031
   135  H    0.017337
   136  H    0.032059
   137  H    0.027228
   138  H    0.035608
   139  H    0.032061
   140  H    0.017977
 Sum of Mulliken charges =  -0.00000

 Dipole moment (field-independent basis, Debye):
    X=              4.8846    Y=              5.2210    Z=             -2.7473  Tot=              7.6594
 Quadrupole moment (field-independent basis, Debye-Ang):
   XX=           -381.9506   YY=           -416.1974   ZZ=           -404.4837
   XY=            -37.5410   XZ=             10.6070   YZ=              5.0679

 Normal termination of Gaussian 16 at Wed Apr 27 04:16:19 2022.
