 Gaussian 16, Revision A.03,
 Gaussian 16:  ES64L-G16RevA.03 25-Dec-2016

 --------------------
 #p ZINDO=(nstates=5)
 --------------------

 -----------------------------
 step_1051_chromophore_6 ZINDO
 -----------------------------
 Symbolic Z-matrix:
 Charge =  0 Multiplicity = 1

                         Standard orientation:
 ---------------------------------------------------------------------
 Center     Atomic      Atomic             Coordinates (Angstroms)
 Number     Number       Type             X           Y           Z
 ---------------------------------------------------------------------
      1         12           0       -5.427897    1.151385   -0.348589
      2          6           0       -4.613879   -2.256559   -0.245977
      3          6           0       -2.029901    1.822780   -0.421417
      4          6           0       -6.084993    4.427232    0.071345
      5          6           0       -8.780887    0.456981    0.176387
      6          7           0       -3.489632   -0.138551   -0.115986
      7          6           0       -3.426292   -1.507905   -0.228290
      8          6           0       -1.961856   -2.036434   -0.202239
      9          6           0       -1.169880   -0.633682   -0.345068
     10          6           0       -2.297251    0.444285   -0.277871
     11          6           0       -0.113957   -0.431535    0.801357
     12          6           0       -1.726411   -3.039293   -1.431497
     13          6           0       -0.938871   -4.376912   -1.236091
     14          6           0        0.012163   -4.552132   -0.070656
     15          8           0       -0.310410   -4.771712    1.071231
     16          8           0        1.308097   -4.285468   -0.498615
     17          7           0       -4.224949    2.842755   -0.439149
     18          6           0       -2.903375    2.959661   -0.464253
     19          6           0       -2.446371    4.333876   -0.573651
     20          6           0       -3.628293    5.125879   -0.454422
     21          6           0       -4.696240    4.174680   -0.230717
     22          6           0       -0.921115    4.699046   -0.748330
     23          6           0       -3.786325    6.638297   -0.438783
     24          8           0       -4.827663    7.191725   -0.186938
     25          6           0       -2.621969    7.445763   -0.592629
     26          7           0       -7.192663    2.247042    0.129480
     27          6           0       -7.261159    3.589103    0.194462
     28          6           0       -8.588131    4.100866    0.718986
     29          6           0       -9.483327    2.819057    0.628697
     30          6           0       -8.435933    1.733598    0.293425
     31          6           0       -8.566504    4.873677    1.990219
     32          6           0      -10.847386    2.839128   -0.208204
     33          6           0      -12.131781    2.765757    0.614782
     34          7           0       -6.496427   -0.428202   -0.096395
     35          6           0       -7.920464   -0.630345   -0.004584
     36          6           0       -8.307686   -2.003450   -0.126767
     37          6           0       -7.020018   -2.716491   -0.144469
     38          6           0       -5.980349   -1.699922   -0.128806
     39          6           0       -9.680413   -2.478070   -0.149797
     40          6           0       -6.379428   -3.987510   -0.143559
     41          8           0       -6.903682   -5.101101    0.058021
     42          6           0       -4.822345   -3.776411   -0.273183
     43          6           0       -4.165974   -4.550853    0.773418
     44          8           0       -4.047854   -4.300507    1.996843
     45          8           0       -3.750996   -5.784252    0.250491
     46          6           0       -3.363330   -6.796735    1.337274
     47          6           0        2.407428   -4.461933    0.440996
     48          6           0        3.623871   -3.818936   -0.201251
     49          6           0        4.894500   -3.926186    0.284471
     50          6           0        5.316795   -4.449895    1.647460
     51          6           0        5.977489   -3.224139   -0.534955
     52          6           0        5.997094   -1.718187   -0.204425
     53          6           0        7.522802   -1.355652   -0.354389
     54          6           0        8.019679   -0.547584   -1.603853
     55          6           0        8.318140   -1.337111   -2.924157
     56          6           0        9.064369    0.480584   -1.312519
     57          6           0       10.355252   -0.043702   -0.635429
     58          6           0       11.693936    0.010020   -1.441839
     59          6           0       12.456271    1.370477   -1.149800
     60          6           0       12.605288    2.364458   -2.398686
     61          6           0       13.749997    1.304891   -0.380839
     62          6           0       13.699010    1.866610    1.065488
     63          6           0       15.008499    1.580356    1.679295
     64          6           0       15.926215    2.854213    1.870526
     65          6           0       15.473249    3.625033    3.012381
     66          6           0       17.442873    2.400159    1.848335
     67          1           0       -0.944602    1.937177   -0.459945
     68          1           0       -6.327532    5.435702    0.413219
     69          1           0       -9.858893    0.300541    0.100529
     70          1           0       -1.662304   -2.465829    0.753436
     71          1           0       -0.559726   -0.646697   -1.247713
     72          1           0       -0.323208    0.435739    1.426691
     73          1           0        0.911522   -0.366920    0.438085
     74          1           0        0.016742   -1.281138    1.471414
     75          1           0       -1.239749   -2.485460   -2.234333
     76          1           0       -2.739706   -3.258601   -1.768365
     77          1           0       -0.293912   -4.272448   -2.108517
     78          1           0       -1.548368   -5.281274   -1.249844
     79          1           0       -0.641544    5.249904    0.150398
     80          1           0       -0.729213    5.254279   -1.665833
     81          1           0       -0.212201    3.871855   -0.782182
     82          1           0       -1.816709    7.282986    0.123722
     83          1           0       -3.020231    8.459467   -0.536196
     84          1           0       -2.194861    7.277240   -1.580851
     85          1           0       -8.858522    4.875455    0.000636
     86          1           0       -9.743549    2.579385    1.659473
     87          1           0       -9.160664    4.429541    2.788432
     88          1           0       -8.744800    5.936116    1.824765
     89          1           0       -7.550855    4.932684    2.382982
     90          1           0      -10.813257    2.033690   -0.942614
     91          1           0      -10.908227    3.834375   -0.649648
     92          1           0      -12.125917    2.964427    1.685855
     93          1           0      -12.486875    1.752868    0.424294
     94          1           0      -12.891637    3.387786    0.140663
     95          1           0      -10.305351   -1.808537   -0.742701
     96          1           0      -10.104500   -2.400405    0.851258
     97          1           0       -9.751140   -3.528509   -0.432678
     98          1           0       -4.528565   -4.076815   -1.279220
     99          1           0       -2.501121   -6.348649    1.830129
    100          1           0       -3.008459   -7.690954    0.824224
    101          1           0       -4.163792   -7.044101    2.035220
    102          1           0        2.664020   -5.516039    0.547279
    103          1           0        2.022941   -4.106856    1.397594
    104          1           0        3.380114   -3.324612   -1.141434
    105          1           0        4.480042   -4.532735    2.341361
    106          1           0        5.971973   -3.748876    2.163792
    107          1           0        5.780655   -5.430939    1.539538
    108          1           0        5.765366   -3.309908   -1.600492
    109          1           0        6.896720   -3.747659   -0.273111
    110          1           0        5.577952   -1.454037    0.766214
    111          1           0        5.437092   -1.194799   -0.979100
    112          1           0        8.214936   -2.196566   -0.398298
    113          1           0        7.877843   -0.732882    0.466874
    114          1           0        7.097831   -0.034956   -1.875105
    115          1           0        9.113406   -0.996397   -3.587575
    116          1           0        7.464469   -1.591470   -3.552688
    117          1           0        8.714147   -2.296618   -2.593306
    118          1           0        8.674542    1.085978   -0.494048
    119          1           0        9.195460    1.128331   -2.180121
    120          1           0       10.161574   -1.069946   -0.322836
    121          1           0       10.459937    0.518859    0.292023
    122          1           0       11.612641   -0.138022   -2.519081
    123          1           0       12.211889   -0.814428   -0.951257
    124          1           0       11.839028    2.049832   -0.561600
    125          1           0       13.629674    2.455567   -2.758101
    126          1           0       12.090381    3.261455   -2.054046
    127          1           0       12.061826    2.180460   -3.326457
    128          1           0       14.500350    1.871152   -0.933728
    129          1           0       14.045990    0.263731   -0.249377
    130          1           0       12.792438    1.546510    1.578055
    131          1           0       13.573937    2.929256    0.856396
    132          1           0       15.586786    0.882653    1.072048
    133          1           0       14.927919    1.198548    2.696360
    134          1           0       15.836007    3.519612    1.012376
    135          1           0       16.387065    4.047227    3.430401
    136          1           0       14.890697    3.055516    3.735794
    137          1           0       14.903472    4.449090    2.583437
    138          1           0       17.864607    2.899661    0.975104
    139          1           0       17.672365    1.337066    1.781024
    140          1           0       17.897189    2.721510    2.785060
 ---------------------------------------------------------------------

 SCF Done:  E(RZINDO/S) =  -474.041551864     A.U. after   19 cycles

 Excitation energies and oscillator strengths:

 Excited State   1:      Singlet-A      1.3402 eV  925.10 nm  f=0.5158  <S**2>=0.000
     175 ->178         0.15836
     176 ->177         0.66851
 This state for optimization and/or second-order correction.
 Total Energy, E(CIS/TDA) =  -473.992299751
 Copying the excited state density for this state as the 1-particle RhoCI density.

 Excited State   2:      Singlet-A      1.9092 eV  649.40 nm  f=0.1059  <S**2>=0.000
     175 ->177         0.57329
     176 ->178        -0.35951

 Excited State   3:      Singlet-A      2.9236 eV  424.07 nm  f=0.0149  <S**2>=0.000
     168 ->177        -0.31362
     168 ->178         0.22288
     168 ->179         0.37530
     168 ->180        -0.24941
     168 ->184        -0.13984
     168 ->186         0.18519

 Excited State   4:      Singlet-A      2.9495 eV  420.36 nm  f=0.8885  <S**2>=0.000
     170 ->177        -0.12789
     175 ->177         0.33803
     176 ->178         0.53832
     176 ->179        -0.15486

 Excited State   5:      Singlet-A      3.0501 eV  406.49 nm  f=0.0560  <S**2>=0.000
     171 ->177         0.25497
     171 ->179         0.31238
     171 ->180         0.36526
     171 ->186         0.17681
     171 ->188         0.17390
     171 ->203        -0.13702
     176 ->178        -0.11554
     176 ->179        -0.18538

 The electronic state is 1-A.
 Alpha  occ. eigenvalues --   -1.82042  -1.79921  -1.78415  -1.72224  -1.69118
 Alpha  occ. eigenvalues --   -1.67593  -1.66362  -1.63698  -1.63342  -1.55843
 Alpha  occ. eigenvalues --   -1.54924  -1.51861  -1.48398  -1.46443  -1.45185
 Alpha  occ. eigenvalues --   -1.43507  -1.41570  -1.39439  -1.38261  -1.38077
 Alpha  occ. eigenvalues --   -1.35241  -1.33781  -1.32984  -1.31714  -1.29024
 Alpha  occ. eigenvalues --   -1.26888  -1.24728  -1.23346  -1.21141  -1.17740
 Alpha  occ. eigenvalues --   -1.17234  -1.16834  -1.15678  -1.14912  -1.13523
 Alpha  occ. eigenvalues --   -1.12623  -1.11446  -1.10098  -1.04146  -1.02490
 Alpha  occ. eigenvalues --   -1.01358  -1.00578  -0.99080  -0.98244  -0.97138
 Alpha  occ. eigenvalues --   -0.96203  -0.94917  -0.93938  -0.93208  -0.92129
 Alpha  occ. eigenvalues --   -0.90827  -0.90752  -0.88958  -0.88543  -0.86101
 Alpha  occ. eigenvalues --   -0.85501  -0.84277  -0.82991  -0.81592  -0.80362
 Alpha  occ. eigenvalues --   -0.79646  -0.78113  -0.76968  -0.76494  -0.75367
 Alpha  occ. eigenvalues --   -0.75281  -0.74677  -0.74229  -0.73954  -0.73673
 Alpha  occ. eigenvalues --   -0.73169  -0.72259  -0.71262  -0.70455  -0.70303
 Alpha  occ. eigenvalues --   -0.69811  -0.69255  -0.68913  -0.68600  -0.68108
 Alpha  occ. eigenvalues --   -0.67606  -0.67041  -0.66081  -0.65669  -0.65080
 Alpha  occ. eigenvalues --   -0.65011  -0.64448  -0.63898  -0.63646  -0.63008
 Alpha  occ. eigenvalues --   -0.62793  -0.62642  -0.62317  -0.62028  -0.61805
 Alpha  occ. eigenvalues --   -0.61201  -0.61024  -0.60720  -0.60479  -0.60421
 Alpha  occ. eigenvalues --   -0.60043  -0.59689  -0.59163  -0.58942  -0.58362
 Alpha  occ. eigenvalues --   -0.57795  -0.57415  -0.56815  -0.56402  -0.56065
 Alpha  occ. eigenvalues --   -0.55675  -0.55303  -0.55075  -0.54770  -0.54401
 Alpha  occ. eigenvalues --   -0.54299  -0.53821  -0.53702  -0.53059  -0.52768
 Alpha  occ. eigenvalues --   -0.52255  -0.51794  -0.51595  -0.51422  -0.51327
 Alpha  occ. eigenvalues --   -0.51171  -0.50770  -0.50695  -0.50264  -0.50026
 Alpha  occ. eigenvalues --   -0.49695  -0.49516  -0.49386  -0.48999  -0.48652
 Alpha  occ. eigenvalues --   -0.48536  -0.48246  -0.47940  -0.47806  -0.47625
 Alpha  occ. eigenvalues --   -0.47224  -0.47008  -0.46852  -0.46733  -0.46281
 Alpha  occ. eigenvalues --   -0.46148  -0.46091  -0.45701  -0.45682  -0.45466
 Alpha  occ. eigenvalues --   -0.44677  -0.44655  -0.44136  -0.43740  -0.43593
 Alpha  occ. eigenvalues --   -0.43278  -0.42815  -0.42461  -0.42314  -0.42091
 Alpha  occ. eigenvalues --   -0.41810  -0.41304  -0.40018  -0.38527  -0.38359
 Alpha  occ. eigenvalues --   -0.37454  -0.36935  -0.36591  -0.35075  -0.33766
 Alpha  occ. eigenvalues --   -0.33348  -0.32149  -0.31677  -0.30790  -0.26322
 Alpha  occ. eigenvalues --   -0.22096
 Alpha virt. eigenvalues --   -0.08392  -0.02002  -0.00638   0.01487   0.02352
 Alpha virt. eigenvalues --    0.02586   0.03248   0.03487   0.04341   0.04480
 Alpha virt. eigenvalues --    0.05702   0.06587   0.07241   0.07754   0.08248

 Mulliken charges:
               1
     1  Mg   0.432985
     2  C   -0.050414
     3  C   -0.121361
     4  C   -0.073205
     5  C   -0.041371
     6  N   -0.293105
     7  C    0.107733
     8  C   -0.003794
     9  C   -0.002473
    10  C    0.183615
    11  C   -0.058116
    12  C   -0.025146
    13  C    0.000494
    14  C    0.468051
    15  O   -0.500052
    16  O   -0.289699
    17  N   -0.331899
    18  C    0.174826
    19  C    0.014116
    20  C   -0.021889
    21  C    0.135224
    22  C   -0.041765
    23  C    0.345689
    24  O   -0.506829
    25  C   -0.028075
    26  N   -0.249618
    27  C    0.171191
    28  C    0.017958
    29  C   -0.014368
    30  C    0.083658
    31  C   -0.044063
    32  C   -0.026218
    33  C   -0.058780
    34  N   -0.324630
    35  C    0.043980
    36  C    0.022542
    37  C   -0.083518
    38  C    0.109624
    39  C   -0.028546
    40  C    0.330774
    41  O   -0.553383
    42  C    0.068015
    43  C    0.492827
    44  O   -0.526995
    45  O   -0.286196
    46  C    0.073618
    47  C    0.098459
    48  C   -0.094716
    49  C   -0.016206
    50  C   -0.036826
    51  C   -0.021427
    52  C   -0.023007
    53  C   -0.043211
    54  C   -0.007578
    55  C   -0.063302
    56  C   -0.025464
    57  C   -0.035481
    58  C   -0.032341
    59  C   -0.024250
    60  C   -0.073634
    61  C   -0.031980
    62  C   -0.032963
    63  C   -0.030329
    64  C   -0.014277
    65  C   -0.049586
    66  C   -0.066980
    67  H    0.019052
    68  H    0.039084
    69  H    0.023959
    70  H    0.063760
    71  H    0.034909
    72  H    0.023600
    73  H    0.013110
    74  H    0.026556
    75  H    0.022434
    76  H    0.027748
    77  H    0.026718
    78  H    0.055114
    79  H    0.031113
    80  H    0.033617
    81  H    0.030219
    82  H    0.043372
    83  H    0.038165
    84  H    0.033835
    85  H    0.026647
    86  H    0.025611
    87  H    0.027899
    88  H    0.024324
    89  H    0.016204
    90  H    0.034419
    91  H    0.018226
    92  H    0.032299
    93  H    0.013258
    94  H    0.014296
    95  H    0.024174
    96  H    0.029668
    97  H    0.034532
    98  H    0.052907
    99  H    0.049572
   100  H    0.025674
   101  H    0.058533
   102  H    0.043600
   103  H    0.059417
   104  H    0.039462
   105  H    0.019825
   106  H    0.026740
   107  H    0.034099
   108  H    0.025240
   109  H    0.024007
   110  H    0.032988
   111  H    0.024883
   112  H    0.023428
   113  H    0.012138
   114  H    0.000628
   115  H    0.022971
   116  H    0.019563
   117  H    0.005793
   118  H    0.005311
   119  H    0.023155
   120  H    0.015326
   121  H    0.018286
   122  H    0.033127
   123  H    0.017862
   124  H    0.016087
   125  H    0.024615
   126  H    0.019039
   127  H    0.011563
   128  H    0.023021
   129  H    0.014579
   130  H    0.024697
   131  H    0.013851
   132  H    0.017741
   133  H    0.016088
   134  H    0.014881
   135  H    0.015609
   136  H    0.026226
   137  H    0.015461
   138  H    0.018611
   139  H    0.022164
   140  H    0.017003
 Sum of Mulliken charges =  -0.00000

 Dipole moment (field-independent basis, Debye):
    X=              8.7439    Y=              8.4752    Z=             -5.0925  Tot=             13.1992
 N-N= 4.235652546653D+03 E-N= 0.000000000000D+00  KE=-9.145980129490D+03
 Leave Link  601 at Wed Apr 27 04:28:01 2022, MaxMem=  6710886400 cpu:               3.6 elap:               0.2
 (Enter /sw/apps/gaussian-16.0/g16/l9999.exe)
 1\1\GINC-BP1-COMPUTE139\SP\RZINDO CIS\STO-3G\C55H74Mg1N4O6\OF15641\27-
 Apr-2022\0\\#p ZINDO=(nstates=5)\\step_1051_chromophore_6 ZINDO\\0,1\M
 g,0,17.628,-1.641,27.861\C,0,16.739,0.33,30.62\C,0,19.361,-3.689,30.05
 3\C,0,18.955,-3.29,25.242\C,0,16.269,0.666,25.663\N,0,18.18,-1.528,30.
 132\C,0,17.581,-0.705,31.057\C,0,18.053,-1.006,32.51\C,0,18.845,-2.392
 ,32.251\C,0,18.815,-2.559,30.699\C,0,20.319,-2.341,32.794\C,0,16.779,-
 1.16,33.472\C,0,16.765,-0.51,34.895\C,0,18.059,-0.147,35.593\O,0,18.74

 Normal termination of Gaussian 16 at Wed Apr 27 04:28:01 2022.
