 Gaussian 16, Revision A.03,
 Gaussian 16:  ES64L-G16RevA.03 25-Dec-2016

 ------------------------------
 #p blyp/Def2SVP td=(nstates=5)
 ------------------------------

 -------------------------------------------------
 step_651_chromophore_6 TDDFT with blyp functional
 -------------------------------------------------
 Symbolic Z-matrix:
 Charge =  0 Multiplicity = 1

                         Standard orientation:
 ---------------------------------------------------------------------
 Center     Atomic      Atomic             Coordinates (Angstroms)
 Number     Number       Type             X           Y           Z
 ---------------------------------------------------------------------
      1         12           0       -5.481646    1.058742   -0.708124
      2          6           0       -4.549159   -2.244780    0.124300
      3          6           0       -2.248991    1.853458   -0.913784
      4          6           0       -6.323191    4.344229   -0.212515
      5          6           0       -8.729441    0.211511    0.507088
      6          7           0       -3.677768   -0.043364   -0.292564
      7          6           0       -3.476875   -1.430485   -0.120462
      8          6           0       -1.986603   -1.828336   -0.223087
      9          6           0       -1.277621   -0.419697   -0.296815
     10          6           0       -2.483359    0.523391   -0.600291
     11          6           0       -0.321620    0.033378    0.937833
     12          6           0       -1.741814   -2.729063   -1.539219
     13          6           0       -0.713899   -3.853540   -1.573510
     14          6           0        0.317487   -3.838220   -0.357570
     15          8           0        0.196472   -4.571926    0.627141
     16          8           0        1.443809   -3.003970   -0.608309
     17          7           0       -4.426825    2.845356   -0.900003
     18          6           0       -3.148057    2.921398   -1.076001
     19          6           0       -2.794048    4.296090   -1.270085
     20          6           0       -3.934336    5.066820   -0.814576
     21          6           0       -5.018068    4.056996   -0.631289
     22          6           0       -1.454890    4.801165   -1.686225
     23          6           0       -4.126639    6.633172   -0.673502
     24          8           0       -5.176873    7.137779   -0.377147
     25          6           0       -2.861054    7.501793   -0.892564
     26          7           0       -7.282742    2.058619   -0.015678
     27          6           0       -7.382149    3.444232    0.053989
     28          6           0       -8.654284    3.930798    0.700367
     29          6           0       -9.508423    2.638567    0.710013
     30          6           0       -8.463298    1.544097    0.397281
     31          6           0       -8.354945    4.352097    2.154768
     32          6           0      -10.694380    2.579866   -0.273741
     33          6           0      -12.032938    2.144865    0.350821
     34          7           0       -6.513663   -0.636281   -0.130088
     35          6           0       -7.831787   -0.868169    0.233027
     36          6           0       -8.090059   -2.234153    0.436517
     37          6           0       -6.833879   -2.832903    0.464440
     38          6           0       -5.908416   -1.789378    0.099119
     39          6           0       -9.439950   -2.886842    0.657793
     40          6           0       -6.214708   -4.091710    0.634585
     41          8           0       -6.768114   -5.179529    0.799494
     42          6           0       -4.734503   -3.799071    0.269421
     43          6           0       -3.941039   -4.401645    1.373104
     44          8           0       -3.300592   -3.806748    2.221972
     45          8           0       -3.977961   -5.770160    1.291943
     46          6           0       -3.295855   -6.470843    2.353580
     47          6           0        2.539070   -2.738576    0.420726
     48          6           0        3.969842   -2.841424   -0.217372
     49          6           0        4.640362   -3.967643   -0.517950
     50          6           0        3.905747   -5.272561   -0.560562
     51          6           0        6.185464   -3.833240   -0.794888
     52          6           0        6.630256   -2.681274   -1.752067
     53          6           0        8.133727   -2.362082   -1.810692
     54          6           0        8.360169   -0.890512   -1.426917
     55          6           0        8.114093    0.096134   -2.481945
     56          6           0        9.702835   -0.657659   -0.659587
     57          6           0       11.031671   -0.700874   -1.465056
     58          6           0       12.275004   -0.761282   -0.572713
     59          6           0       13.196052    0.420804   -0.647679
     60          6           0       14.044043    0.507952   -1.910975
     61          6           0       14.053395    0.494604    0.572960
     62          6           0       14.602493    1.934499    0.728947
     63          6           0       14.149759    2.552585    2.097119
     64          6           0       15.080412    3.772579    2.455415
     65          6           0       14.442502    5.180427    2.331204
     66          6           0       15.601581    3.778263    3.896845
     67          1           0       -1.199929    2.132392   -1.032732
     68          1           0       -6.629493    5.390236   -0.147198
     69          1           0       -9.769045   -0.007931    0.758434
     70          1           0       -1.648650   -2.286852    0.705913
     71          1           0       -0.506149   -0.404282   -1.066763
     72          1           0        0.561481    0.575169    0.598563
     73          1           0        0.004643   -0.858509    1.472860
     74          1           0       -0.938120    0.610820    1.627452
     75          1           0       -1.616964   -2.128585   -2.441000
     76          1           0       -2.725991   -3.124653   -1.789299
     77          1           0       -0.203316   -3.886052   -2.536074
     78          1           0       -1.185143   -4.831797   -1.475493
     79          1           0       -1.594512    5.295424   -2.646913
     80          1           0       -0.829969    3.968117   -2.008021
     81          1           0       -0.913718    5.342463   -0.908999
     82          1           0       -2.284921    7.292301   -1.793813
     83          1           0       -2.205208    7.182953   -0.084296
     84          1           0       -3.105528    8.561883   -0.822555
     85          1           0       -9.099094    4.774978    0.174370
     86          1           0      -10.008493    2.309816    1.621390
     87          1           0       -7.282746    4.478061    2.301298
     88          1           0       -8.635046    3.611736    2.904156
     89          1           0       -8.835980    5.302386    2.387016
     90          1           0      -10.433111    1.849817   -1.040014
     91          1           0      -10.764163    3.584464   -0.692372
     92          1           0      -12.756976    2.136574   -0.463786
     93          1           0      -12.314466    2.728386    1.227730
     94          1           0      -11.987248    1.140921    0.774656
     95          1           0       -9.812130   -2.462332    1.590795
     96          1           0       -9.354740   -3.969675    0.747216
     97          1           0      -10.136012   -2.556516   -0.113669
     98          1           0       -4.518160   -4.374918   -0.630465
     99          1           0       -3.626698   -7.507964    2.414171
    100          1           0       -3.609807   -6.104802    3.331390
    101          1           0       -2.237480   -6.397972    2.105340
    102          1           0        2.442366   -3.531056    1.161805
    103          1           0        2.317443   -1.834089    0.986568
    104          1           0        4.573264   -1.947848   -0.051733
    105          1           0        4.688087   -6.027993   -0.636006
    106          1           0        3.228245   -5.437835   -1.398250
    107          1           0        3.330630   -5.419734    0.353325
    108          1           0        6.641273   -4.773521   -1.103684
    109          1           0        6.642259   -3.520747    0.143898
    110          1           0        6.012145   -1.804275   -1.562609
    111          1           0        6.288599   -3.051321   -2.718581
    112          1           0        8.499706   -2.566445   -2.816990
    113          1           0        8.623683   -3.024053   -1.097041
    114          1           0        7.633368   -0.566513   -0.681903
    115          1           0        7.270556    0.731332   -2.210456
    116          1           0        8.213773   -0.200757   -3.525815
    117          1           0        8.889243    0.858548   -2.417139
    118          1           0        9.654368   -1.348980    0.181422
    119          1           0        9.479555    0.281461   -0.154175
    120          1           0       11.056936    0.261306   -1.975581
    121          1           0       11.173606   -1.608989   -2.050441
    122          1           0       12.815895   -1.651638   -0.893564
    123          1           0       11.990373   -0.897251    0.470978
    124          1           0       12.491142    1.251508   -0.605993
    125          1           0       15.123693    0.615418   -1.809869
    126          1           0       13.603340    1.351837   -2.440978
    127          1           0       13.825993   -0.359406   -2.533238
    128          1           0       14.860522   -0.233064    0.657215
    129          1           0       13.372540    0.471472    1.423679
    130          1           0       14.293384    2.461587   -0.174284
    131          1           0       15.692393    1.929213    0.741026
    132          1           0       13.894000    1.886018    2.919956
    133          1           0       13.177015    3.002132    1.897497
    134          1           0       15.900732    3.704710    1.741464
    135          1           0       13.857851    5.545108    3.175805
    136          1           0       13.626723    5.033499    1.623499
    137          1           0       15.161738    5.944415    2.033936
    138          1           0       16.505797    3.171033    3.882023
    139          1           0       14.846419    3.281888    4.505295
    140          1           0       15.822901    4.799356    4.208997
 ---------------------------------------------------------------------

 SCF Done:  E(RB-LYP) =  -3007.35684887     A.U. after   22 cycles

 Excitation energies and oscillator strengths:

 Excited State   1:      Singlet-A      1.7740 eV  698.88 nm  f=0.3070  <S**2>=0.000
     244 -> 247        0.10481
     245 -> 248       -0.16400
     246 -> 247        0.69015
     246 <- 247       -0.15707
 This state for optimization and/or second-order correction.
 Total Energy, E(TD-HF/TD-DFT) =  -3007.29165407
 Copying the excited state density for this state as the 1-particle RhoCI density.

 Excited State   2:      Singlet-A      1.9235 eV  644.56 nm  f=0.0136  <S**2>=0.000
     244 -> 247        0.65102
     245 -> 247        0.24756

 Excited State   3:      Singlet-A      2.0875 eV  593.95 nm  f=0.0765  <S**2>=0.000
     244 -> 247       -0.24572
     245 -> 247        0.59636
     246 -> 248        0.24867

 Excited State   4:      Singlet-A      2.2145 eV  559.88 nm  f=0.0002  <S**2>=0.000
     243 -> 247        0.70224

 Excited State   5:      Singlet-A      2.5270 eV  490.64 nm  f=0.0009  <S**2>=0.000
     240 -> 247        0.65753
     241 -> 247       -0.23500
     242 -> 247        0.10927

 The electronic state is 1-A.
 Alpha  occ. eigenvalues --  -46.27056 -18.81372 -18.80259 -18.77535 -18.76590
 Alpha  occ. eigenvalues --  -18.75384 -18.75237 -14.03179 -14.02944 -14.00804
 Alpha  occ. eigenvalues --  -14.00715 -10.04820 -10.02518 -10.00798  -9.98799
 Alpha  occ. eigenvalues --   -9.98618  -9.96437  -9.96337  -9.96110  -9.95998
 Alpha  occ. eigenvalues --   -9.95839  -9.95418  -9.95117  -9.94833  -9.94276
 Alpha  occ. eigenvalues --   -9.94272  -9.94261  -9.94022  -9.93820  -9.93817
 Alpha  occ. eigenvalues --   -9.93790  -9.93695  -9.93460  -9.93329  -9.93074
 Alpha  occ. eigenvalues --   -9.93034  -9.92983  -9.92829  -9.92565  -9.92514
 Alpha  occ. eigenvalues --   -9.92393  -9.92249  -9.92187  -9.92121  -9.92120
 Alpha  occ. eigenvalues --   -9.92117  -9.92102  -9.92095  -9.91922  -9.91693
 Alpha  occ. eigenvalues --   -9.91658  -9.91614  -9.91604  -9.91559  -9.91481
 Alpha  occ. eigenvalues --   -9.91395  -9.91299  -9.91109  -9.91083  -9.90893
 Alpha  occ. eigenvalues --   -9.90668  -9.90570  -9.90448  -9.90342  -9.90275
 Alpha  occ. eigenvalues --   -9.90012  -2.91759  -1.72155  -1.71651  -1.71474
 Alpha  occ. eigenvalues --   -0.96732  -0.95073  -0.93166  -0.90400  -0.88592
 Alpha  occ. eigenvalues --   -0.88542  -0.87025  -0.86568  -0.85389  -0.84595
 Alpha  occ. eigenvalues --   -0.74841  -0.74274  -0.73554  -0.72474  -0.72323
 Alpha  occ. eigenvalues --   -0.71936  -0.71654  -0.71274  -0.70585  -0.70347
 Alpha  occ. eigenvalues --   -0.69800  -0.68492  -0.68121  -0.67329  -0.67182
 Alpha  occ. eigenvalues --   -0.66853  -0.65292  -0.64874  -0.64692  -0.64426
 Alpha  occ. eigenvalues --   -0.64212  -0.62173  -0.61806  -0.61292  -0.61045
 Alpha  occ. eigenvalues --   -0.60190  -0.60116  -0.59670  -0.59413  -0.59328
 Alpha  occ. eigenvalues --   -0.58163  -0.57824  -0.56379  -0.55634  -0.55050
 Alpha  occ. eigenvalues --   -0.54178  -0.53785  -0.52507  -0.52362  -0.51298
 Alpha  occ. eigenvalues --   -0.51049  -0.50932  -0.50617  -0.49947  -0.49604
 Alpha  occ. eigenvalues --   -0.49020  -0.48985  -0.48031  -0.47317  -0.46419
 Alpha  occ. eigenvalues --   -0.45856  -0.45447  -0.45328  -0.45052  -0.44170
 Alpha  occ. eigenvalues --   -0.43721  -0.42912  -0.42782  -0.42456  -0.42196
 Alpha  occ. eigenvalues --   -0.41930  -0.41765  -0.41524  -0.41149  -0.41002
 Alpha  occ. eigenvalues --   -0.40770  -0.40631  -0.40300  -0.39970  -0.39870
 Alpha  occ. eigenvalues --   -0.39820  -0.39419  -0.39334  -0.39191  -0.39064
 Alpha  occ. eigenvalues --   -0.38781  -0.38391  -0.38251  -0.38212  -0.38123
 Alpha  occ. eigenvalues --   -0.37950  -0.37748  -0.37635  -0.37327  -0.37286
 Alpha  occ. eigenvalues --   -0.37101  -0.36841  -0.36804  -0.36624  -0.36558
 Alpha  occ. eigenvalues --   -0.36435  -0.36057  -0.35847  -0.35757  -0.35613
 Alpha  occ. eigenvalues --   -0.35541  -0.35282  -0.35139  -0.34974  -0.34753
 Alpha  occ. eigenvalues --   -0.34515  -0.34240  -0.34072  -0.33977  -0.33818
 Alpha  occ. eigenvalues --   -0.33649  -0.33521  -0.33354  -0.33218  -0.33153
 Alpha  occ. eigenvalues --   -0.32747  -0.32561  -0.32330  -0.32160  -0.32148
 Alpha  occ. eigenvalues --   -0.32068  -0.31959  -0.31697  -0.31602  -0.31340
 Alpha  occ. eigenvalues --   -0.31198  -0.31120  -0.31087  -0.30844  -0.30790
 Alpha  occ. eigenvalues --   -0.30546  -0.30057  -0.29847  -0.29694  -0.29531
 Alpha  occ. eigenvalues --   -0.29331  -0.29022  -0.29009  -0.28756  -0.28650
 Alpha  occ. eigenvalues --   -0.28409  -0.28263  -0.28042  -0.27879  -0.27766
 Alpha  occ. eigenvalues --   -0.27598  -0.27206  -0.26940  -0.26612  -0.26243
 Alpha  occ. eigenvalues --   -0.26128  -0.25907  -0.25869  -0.25535  -0.24973
 Alpha  occ. eigenvalues --   -0.24814  -0.24746  -0.23772  -0.23585  -0.23523
 Alpha  occ. eigenvalues --   -0.23142  -0.22247  -0.21966  -0.20756  -0.20616
 Alpha  occ. eigenvalues --   -0.20420  -0.20294  -0.19356  -0.18295  -0.17206
 Alpha  occ. eigenvalues --   -0.15420
 Alpha virt. eigenvalues --   -0.11318  -0.06417  -0.05867  -0.04348  -0.03942
 Alpha virt. eigenvalues --   -0.03604  -0.03304  -0.01576  -0.00901   0.00483
 Alpha virt. eigenvalues --    0.01952   0.01988   0.02203   0.02644   0.02885

 Mulliken charges:
               1
     1  Mg   0.714967
     2  C    0.067852
     3  C   -0.079099
     4  C   -0.051751
     5  C   -0.089244
     6  N   -0.256004
     7  C   -0.086707
     8  C    0.046444
     9  C   -0.026130
    10  C    0.076612
    11  C    0.089017
    12  C    0.105507
    13  C    0.168237
    14  C    0.094575
    15  O   -0.191370
    16  O   -0.327477
    17  N   -0.251830
    18  C    0.139399
    19  C   -0.170167
    20  C   -0.033363
    21  C    0.120486
    22  C    0.185898
    23  C   -0.040414
    24  O   -0.132392
    25  C    0.115858
    26  N   -0.213087
    27  C    0.014455
    28  C    0.033972
    29  C    0.025696
    30  C    0.010642
    31  C    0.127075
    32  C    0.105319
    33  C    0.056576
    34  N   -0.230094
    35  C    0.120635
    36  C   -0.195931
    37  C    0.084810
    38  C    0.063260
    39  C    0.199191
    40  C   -0.070502
    41  O   -0.134407
    42  C    0.032945
    43  C    0.091961
    44  O   -0.182963
    45  O   -0.263649
    46  C    0.227997
    47  C    0.286150
    48  C   -0.066880
    49  C   -0.166867
    50  C    0.160827
    51  C    0.128839
    52  C    0.036556
    53  C    0.171577
    54  C   -0.087595
    55  C    0.154155
    56  C    0.053699
    57  C    0.138344
    58  C    0.107857
    59  C   -0.118036
    60  C    0.148893
    61  C    0.122255
    62  C    0.039327
    63  C    0.102879
    64  C   -0.097159
    65  C    0.092534
    66  C    0.121131
    67  H   -0.074120
    68  H   -0.036052
    69  H   -0.077522
    70  H    0.012473
    71  H   -0.029548
    72  H    0.001425
    73  H    0.006878
    74  H    0.000091
    75  H   -0.032801
    76  H   -0.031581
    77  H   -0.006190
    78  H   -0.003342
    79  H    0.005452
    80  H   -0.032199
    81  H    0.013834
    82  H    0.003037
    83  H    0.004764
    84  H   -0.002680
    85  H   -0.019847
    86  H   -0.037137
    87  H   -0.006882
    88  H   -0.009269
    89  H   -0.005957
    90  H   -0.020044
    91  H   -0.025649
    92  H   -0.000516
    93  H   -0.006243
    94  H   -0.014242
    95  H   -0.004264
    96  H    0.012213
    97  H   -0.008753
    98  H    0.021641
    99  H    0.000904
   100  H    0.007108
   101  H    0.023545
   102  H   -0.003899
   103  H   -0.002621
   104  H   -0.035037
   105  H   -0.023754
   106  H    0.015392
   107  H    0.007872
   108  H   -0.026534
   109  H   -0.017355
   110  H   -0.019912
   111  H   -0.038806
   112  H   -0.027966
   113  H   -0.042695
   114  H   -0.051415
   115  H   -0.026650
   116  H   -0.014607
   117  H   -0.052401
   118  H   -0.043084
   119  H   -0.048579
   120  H   -0.028295
   121  H   -0.026667
   122  H   -0.051369
   123  H   -0.046311
   124  H   -0.049204
   125  H   -0.002054
   126  H   -0.017185
   127  H   -0.028469
   128  H   -0.026744
   129  H   -0.046373
   130  H   -0.024207
   131  H   -0.031765
   132  H   -0.021087
   133  H   -0.050692
   134  H   -0.033081
   135  H   -0.021684
   136  H   -0.038730
   137  H   -0.003142
   138  H   -0.024760
   139  H   -0.014253
   140  H   -0.011696
 Sum of Mulliken charges =  -0.00000

 Dipole moment (field-independent basis, Debye):
    X=              3.4855    Y=              2.4415    Z=             -3.1858  Tot=              5.3159
 Quadrupole moment (field-independent basis, Debye-Ang):
   XX=           -380.2651   YY=           -432.0047   ZZ=           -403.2725
   XY=            -21.5504   XZ=              1.9074   YZ=              7.0007

 Normal termination of Gaussian 16 at Sat Apr 30 09:25:27 2022.
