 Gaussian 16, Revision A.03,
 Gaussian 16:  ES64L-G16RevA.03 25-Dec-2016

 -----------------------------------
 #p cam-b3lyp/Def2SVP td=(nstates=5)
 -----------------------------------

 ------------------------------------------------------
 step_651_chromophore_6 TDDFT with cam-b3lyp functional
 ------------------------------------------------------
 Symbolic Z-matrix:
 Charge =  0 Multiplicity = 1

                         Standard orientation:
 ---------------------------------------------------------------------
 Center     Atomic      Atomic             Coordinates (Angstroms)
 Number     Number       Type             X           Y           Z
 ---------------------------------------------------------------------
      1         12           0       -5.481646    1.058742   -0.708124
      2          6           0       -4.549159   -2.244780    0.124300
      3          6           0       -2.248991    1.853458   -0.913784
      4          6           0       -6.323191    4.344229   -0.212515
      5          6           0       -8.729441    0.211511    0.507088
      6          7           0       -3.677768   -0.043364   -0.292564
      7          6           0       -3.476875   -1.430485   -0.120462
      8          6           0       -1.986603   -1.828336   -0.223087
      9          6           0       -1.277621   -0.419697   -0.296815
     10          6           0       -2.483359    0.523391   -0.600291
     11          6           0       -0.321620    0.033378    0.937833
     12          6           0       -1.741814   -2.729063   -1.539219
     13          6           0       -0.713899   -3.853540   -1.573510
     14          6           0        0.317487   -3.838220   -0.357570
     15          8           0        0.196472   -4.571926    0.627141
     16          8           0        1.443809   -3.003970   -0.608309
     17          7           0       -4.426825    2.845356   -0.900003
     18          6           0       -3.148057    2.921398   -1.076001
     19          6           0       -2.794048    4.296090   -1.270085
     20          6           0       -3.934336    5.066820   -0.814576
     21          6           0       -5.018068    4.056996   -0.631289
     22          6           0       -1.454890    4.801165   -1.686225
     23          6           0       -4.126639    6.633172   -0.673502
     24          8           0       -5.176873    7.137779   -0.377147
     25          6           0       -2.861054    7.501793   -0.892564
     26          7           0       -7.282742    2.058619   -0.015678
     27          6           0       -7.382149    3.444232    0.053989
     28          6           0       -8.654284    3.930798    0.700367
     29          6           0       -9.508423    2.638567    0.710013
     30          6           0       -8.463298    1.544097    0.397281
     31          6           0       -8.354945    4.352097    2.154768
     32          6           0      -10.694380    2.579866   -0.273741
     33          6           0      -12.032938    2.144865    0.350821
     34          7           0       -6.513663   -0.636281   -0.130088
     35          6           0       -7.831787   -0.868169    0.233027
     36          6           0       -8.090059   -2.234153    0.436517
     37          6           0       -6.833879   -2.832903    0.464440
     38          6           0       -5.908416   -1.789378    0.099119
     39          6           0       -9.439950   -2.886842    0.657793
     40          6           0       -6.214708   -4.091710    0.634585
     41          8           0       -6.768114   -5.179529    0.799494
     42          6           0       -4.734503   -3.799071    0.269421
     43          6           0       -3.941039   -4.401645    1.373104
     44          8           0       -3.300592   -3.806748    2.221972
     45          8           0       -3.977961   -5.770160    1.291943
     46          6           0       -3.295855   -6.470843    2.353580
     47          6           0        2.539070   -2.738576    0.420726
     48          6           0        3.969842   -2.841424   -0.217372
     49          6           0        4.640362   -3.967643   -0.517950
     50          6           0        3.905747   -5.272561   -0.560562
     51          6           0        6.185464   -3.833240   -0.794888
     52          6           0        6.630256   -2.681274   -1.752067
     53          6           0        8.133727   -2.362082   -1.810692
     54          6           0        8.360169   -0.890512   -1.426917
     55          6           0        8.114093    0.096134   -2.481945
     56          6           0        9.702835   -0.657659   -0.659587
     57          6           0       11.031671   -0.700874   -1.465056
     58          6           0       12.275004   -0.761282   -0.572713
     59          6           0       13.196052    0.420804   -0.647679
     60          6           0       14.044043    0.507952   -1.910975
     61          6           0       14.053395    0.494604    0.572960
     62          6           0       14.602493    1.934499    0.728947
     63          6           0       14.149759    2.552585    2.097119
     64          6           0       15.080412    3.772579    2.455415
     65          6           0       14.442502    5.180427    2.331204
     66          6           0       15.601581    3.778263    3.896845
     67          1           0       -1.199929    2.132392   -1.032732
     68          1           0       -6.629493    5.390236   -0.147198
     69          1           0       -9.769045   -0.007931    0.758434
     70          1           0       -1.648650   -2.286852    0.705913
     71          1           0       -0.506149   -0.404282   -1.066763
     72          1           0        0.561481    0.575169    0.598563
     73          1           0        0.004643   -0.858509    1.472860
     74          1           0       -0.938120    0.610820    1.627452
     75          1           0       -1.616964   -2.128585   -2.441000
     76          1           0       -2.725991   -3.124653   -1.789299
     77          1           0       -0.203316   -3.886052   -2.536074
     78          1           0       -1.185143   -4.831797   -1.475493
     79          1           0       -1.594512    5.295424   -2.646913
     80          1           0       -0.829969    3.968117   -2.008021
     81          1           0       -0.913718    5.342463   -0.908999
     82          1           0       -2.284921    7.292301   -1.793813
     83          1           0       -2.205208    7.182953   -0.084296
     84          1           0       -3.105528    8.561883   -0.822555
     85          1           0       -9.099094    4.774978    0.174370
     86          1           0      -10.008493    2.309816    1.621390
     87          1           0       -7.282746    4.478061    2.301298
     88          1           0       -8.635046    3.611736    2.904156
     89          1           0       -8.835980    5.302386    2.387016
     90          1           0      -10.433111    1.849817   -1.040014
     91          1           0      -10.764163    3.584464   -0.692372
     92          1           0      -12.756976    2.136574   -0.463786
     93          1           0      -12.314466    2.728386    1.227730
     94          1           0      -11.987248    1.140921    0.774656
     95          1           0       -9.812130   -2.462332    1.590795
     96          1           0       -9.354740   -3.969675    0.747216
     97          1           0      -10.136012   -2.556516   -0.113669
     98          1           0       -4.518160   -4.374918   -0.630465
     99          1           0       -3.626698   -7.507964    2.414171
    100          1           0       -3.609807   -6.104802    3.331390
    101          1           0       -2.237480   -6.397972    2.105340
    102          1           0        2.442366   -3.531056    1.161805
    103          1           0        2.317443   -1.834089    0.986568
    104          1           0        4.573264   -1.947848   -0.051733
    105          1           0        4.688087   -6.027993   -0.636006
    106          1           0        3.228245   -5.437835   -1.398250
    107          1           0        3.330630   -5.419734    0.353325
    108          1           0        6.641273   -4.773521   -1.103684
    109          1           0        6.642259   -3.520747    0.143898
    110          1           0        6.012145   -1.804275   -1.562609
    111          1           0        6.288599   -3.051321   -2.718581
    112          1           0        8.499706   -2.566445   -2.816990
    113          1           0        8.623683   -3.024053   -1.097041
    114          1           0        7.633368   -0.566513   -0.681903
    115          1           0        7.270556    0.731332   -2.210456
    116          1           0        8.213773   -0.200757   -3.525815
    117          1           0        8.889243    0.858548   -2.417139
    118          1           0        9.654368   -1.348980    0.181422
    119          1           0        9.479555    0.281461   -0.154175
    120          1           0       11.056936    0.261306   -1.975581
    121          1           0       11.173606   -1.608989   -2.050441
    122          1           0       12.815895   -1.651638   -0.893564
    123          1           0       11.990373   -0.897251    0.470978
    124          1           0       12.491142    1.251508   -0.605993
    125          1           0       15.123693    0.615418   -1.809869
    126          1           0       13.603340    1.351837   -2.440978
    127          1           0       13.825993   -0.359406   -2.533238
    128          1           0       14.860522   -0.233064    0.657215
    129          1           0       13.372540    0.471472    1.423679
    130          1           0       14.293384    2.461587   -0.174284
    131          1           0       15.692393    1.929213    0.741026
    132          1           0       13.894000    1.886018    2.919956
    133          1           0       13.177015    3.002132    1.897497
    134          1           0       15.900732    3.704710    1.741464
    135          1           0       13.857851    5.545108    3.175805
    136          1           0       13.626723    5.033499    1.623499
    137          1           0       15.161738    5.944415    2.033936
    138          1           0       16.505797    3.171033    3.882023
    139          1           0       14.846419    3.281888    4.505295
    140          1           0       15.822901    4.799356    4.208997
 ---------------------------------------------------------------------

 SCF Done:  E(RCAM-B3LYP) =  -3007.15018934     A.U. after   19 cycles

 Excitation energies and oscillator strengths:

 Excited State   1:      Singlet-A      1.6752 eV  740.13 nm  f=0.3821  <S**2>=0.000
     245 -> 248        0.16205
     246 -> 247        0.69002
     245 <- 248        0.10333
 This state for optimization and/or second-order correction.
 Total Energy, E(TD-HF/TD-DFT) =  -3007.08862779
 Copying the excited state density for this state as the 1-particle RhoCI density.

 Excited State   2:      Singlet-A      2.2907 eV  541.24 nm  f=0.1225  <S**2>=0.000
     245 -> 247        0.63870
     246 -> 248       -0.28728

 Excited State   3:      Singlet-A      3.4350 eV  360.94 nm  f=0.0418  <S**2>=0.000
     242 -> 247       -0.41406
     243 -> 247        0.45921
     244 -> 247        0.18930
     246 -> 248       -0.24609

 Excited State   4:      Singlet-A      3.4888 eV  355.38 nm  f=0.0036  <S**2>=0.000
     242 -> 247       -0.12140
     242 -> 249       -0.17450
     242 -> 251       -0.11947
     243 -> 247       -0.30998
     243 -> 249       -0.17307
     243 -> 251       -0.12420
     244 -> 247        0.49142
     244 -> 249        0.14522

 Excited State   5:      Singlet-A      3.5420 eV  350.04 nm  f=0.0655  <S**2>=0.000
     242 -> 247        0.33987
     243 -> 247        0.31513
     243 -> 249        0.11588
     244 -> 247        0.38386
     246 -> 248        0.27974

 The electronic state is 1-A.
 Alpha  occ. eigenvalues --  -46.88619 -19.24149 -19.23037 -19.20459 -19.20151
 Alpha  occ. eigenvalues --  -19.18380 -19.18002 -14.41978 -14.41943 -14.39400
 Alpha  occ. eigenvalues --  -14.38942 -10.40238 -10.37861 -10.36384 -10.33811
 Alpha  occ. eigenvalues --  -10.32889 -10.31060 -10.30817 -10.30779 -10.30593
 Alpha  occ. eigenvalues --  -10.29803 -10.29775 -10.29445 -10.28528 -10.28428
 Alpha  occ. eigenvalues --  -10.28337 -10.28313 -10.28259 -10.28230 -10.27990
 Alpha  occ. eigenvalues --  -10.27924 -10.27766 -10.27716 -10.27589 -10.27400
 Alpha  occ. eigenvalues --  -10.27187 -10.26890 -10.26732 -10.26540 -10.26539
 Alpha  occ. eigenvalues --  -10.26459 -10.26384 -10.26273 -10.26147 -10.26044
 Alpha  occ. eigenvalues --  -10.25987 -10.25722 -10.25686 -10.25397 -10.25393
 Alpha  occ. eigenvalues --  -10.25365 -10.25304 -10.25275 -10.25217 -10.25170
 Alpha  occ. eigenvalues --  -10.25115 -10.25026 -10.24817 -10.24724 -10.24465
 Alpha  occ. eigenvalues --  -10.24227 -10.24183 -10.24026 -10.23985 -10.23927
 Alpha  occ. eigenvalues --  -10.23580  -3.17224  -1.92098  -1.91681  -1.91531
 Alpha  occ. eigenvalues --   -1.15168  -1.13396  -1.11958  -1.08399  -1.06407
 Alpha  occ. eigenvalues --   -1.06228  -1.04962  -1.04018  -1.03019  -1.02101
 Alpha  occ. eigenvalues --   -0.91775  -0.91186  -0.90392  -0.89209  -0.88959
 Alpha  occ. eigenvalues --   -0.88717  -0.88330  -0.87920  -0.87236  -0.87021
 Alpha  occ. eigenvalues --   -0.86359  -0.84797  -0.84446  -0.83452  -0.83287
 Alpha  occ. eigenvalues --   -0.82961  -0.81664  -0.80700  -0.80508  -0.80342
 Alpha  occ. eigenvalues --   -0.79943  -0.77957  -0.77422  -0.76755  -0.76424
 Alpha  occ. eigenvalues --   -0.75466  -0.75426  -0.74944  -0.74716  -0.74630
 Alpha  occ. eigenvalues --   -0.73167  -0.72793  -0.71282  -0.70434  -0.69790
 Alpha  occ. eigenvalues --   -0.68691  -0.68320  -0.67109  -0.66848  -0.65354
 Alpha  occ. eigenvalues --   -0.65290  -0.65050  -0.64719  -0.63841  -0.63627
 Alpha  occ. eigenvalues --   -0.62971  -0.62538  -0.61814  -0.60887  -0.60226
 Alpha  occ. eigenvalues --   -0.59366  -0.58832  -0.58677  -0.58491  -0.57533
 Alpha  occ. eigenvalues --   -0.57178  -0.56308  -0.55979  -0.55489  -0.55387
 Alpha  occ. eigenvalues --   -0.54843  -0.54715  -0.54447  -0.53922  -0.53896
 Alpha  occ. eigenvalues --   -0.53412  -0.53389  -0.53265  -0.52868  -0.52628
 Alpha  occ. eigenvalues --   -0.52465  -0.52338  -0.52209  -0.51688  -0.51553
 Alpha  occ. eigenvalues --   -0.51415  -0.51114  -0.50702  -0.50657  -0.50611
 Alpha  occ. eigenvalues --   -0.50415  -0.50363  -0.49988  -0.49800  -0.49660
 Alpha  occ. eigenvalues --   -0.49499  -0.49318  -0.49148  -0.48998  -0.48866
 Alpha  occ. eigenvalues --   -0.48721  -0.48442  -0.48139  -0.48073  -0.47766
 Alpha  occ. eigenvalues --   -0.47608  -0.47501  -0.47439  -0.46814  -0.46694
 Alpha  occ. eigenvalues --   -0.46436  -0.46159  -0.45894  -0.45636  -0.45551
 Alpha  occ. eigenvalues --   -0.45301  -0.45266  -0.45208  -0.44859  -0.44770
 Alpha  occ. eigenvalues --   -0.44305  -0.44143  -0.44047  -0.43907  -0.43801
 Alpha  occ. eigenvalues --   -0.43606  -0.43542  -0.43475  -0.43246  -0.43019
 Alpha  occ. eigenvalues --   -0.42810  -0.42633  -0.42521  -0.42263  -0.42129
 Alpha  occ. eigenvalues --   -0.41828  -0.41324  -0.41058  -0.40968  -0.40892
 Alpha  occ. eigenvalues --   -0.40539  -0.40068  -0.40066  -0.39892  -0.39805
 Alpha  occ. eigenvalues --   -0.39764  -0.39607  -0.39230  -0.39110  -0.38840
 Alpha  occ. eigenvalues --   -0.38456  -0.38108  -0.37767  -0.37423  -0.37264
 Alpha  occ. eigenvalues --   -0.36933  -0.36708  -0.36560  -0.36318  -0.36193
 Alpha  occ. eigenvalues --   -0.35488  -0.35433  -0.35259  -0.34405  -0.34088
 Alpha  occ. eigenvalues --   -0.33926  -0.33095  -0.32431  -0.31654  -0.31213
 Alpha  occ. eigenvalues --   -0.30353  -0.30057  -0.29959  -0.29403  -0.24062
 Alpha  occ. eigenvalues --   -0.20727
 Alpha virt. eigenvalues --   -0.08427  -0.01087   0.00700   0.01600   0.02528
 Alpha virt. eigenvalues --    0.03383   0.04254   0.05612   0.06873   0.07537
 Alpha virt. eigenvalues --    0.08129   0.08315   0.08767   0.09085   0.09319

 Mulliken charges:
               1
     1  Mg   0.845833
     2  C    0.045398
     3  C   -0.099567
     4  C   -0.069402
     5  C   -0.087126
     6  N   -0.327690
     7  C   -0.045806
     8  C   -0.010347
     9  C   -0.070391
    10  C    0.095413
    11  C    0.039050
    12  C    0.054329
    13  C    0.105856
    14  C    0.167348
    15  O   -0.232051
    16  O   -0.393360
    17  N   -0.345693
    18  C    0.156618
    19  C   -0.175080
    20  C   -0.087300
    21  C    0.143328
    22  C    0.117825
    23  C    0.036973
    24  O   -0.172326
    25  C    0.037329
    26  N   -0.278884
    27  C    0.033628
    28  C   -0.027459
    29  C   -0.027032
    30  C    0.021787
    31  C    0.068629
    32  C    0.049563
    33  C   -0.004146
    34  N   -0.319483
    35  C    0.117442
    36  C   -0.187394
    37  C    0.002616
    38  C    0.094274
    39  C    0.144307
    40  C    0.025095
    41  O   -0.175992
    42  C   -0.043299
    43  C    0.181603
    44  O   -0.220065
    45  O   -0.325459
    46  C    0.186598
    47  C    0.261021
    48  C   -0.093745
    49  C   -0.183463
    50  C    0.097295
    51  C    0.074248
    52  C   -0.012110
    53  C    0.110684
    54  C   -0.143630
    55  C    0.085057
    56  C    0.006631
    57  C    0.078164
    58  C    0.055901
    59  C   -0.170582
    60  C    0.081466
    61  C    0.064062
    62  C   -0.008990
    63  C    0.044744
    64  C   -0.154769
    65  C    0.031514
    66  C    0.061713
    67  H   -0.039175
    68  H    0.006321
    69  H   -0.042621
    70  H    0.046941
    71  H    0.006600
    72  H    0.022903
    73  H    0.026371
    74  H    0.026310
    75  H   -0.001074
    76  H   -0.000318
    77  H    0.027430
    78  H    0.028263
    79  H    0.033866
    80  H   -0.000097
    81  H    0.041455
    82  H    0.031059
    83  H    0.030818
    84  H    0.032596
    85  H    0.015756
    86  H   -0.000785
    87  H    0.019359
    88  H    0.017380
    89  H    0.019052
    90  H    0.010470
    91  H    0.001413
    92  H    0.024115
    93  H    0.016468
    94  H    0.006301
    95  H    0.019628
    96  H    0.040858
    97  H    0.015878
    98  H    0.061190
    99  H    0.024536
   100  H    0.030708
   101  H    0.045762
   102  H    0.027787
   103  H    0.022328
   104  H   -0.004832
   105  H    0.001528
   106  H    0.039750
   107  H    0.031409
   108  H    0.002207
   109  H    0.010255
   110  H    0.005033
   111  H   -0.008785
   112  H    0.001173
   113  H   -0.012445
   114  H   -0.017401
   115  H   -0.000196
   116  H    0.011352
   117  H   -0.024305
   118  H   -0.014928
   119  H   -0.019389
   120  H   -0.002537
   121  H    0.002348
   122  H   -0.020988
   123  H   -0.015609
   124  H   -0.018124
   125  H    0.022861
   126  H    0.006615
   127  H   -0.002443
   128  H    0.002929
   129  H   -0.016860
   130  H    0.003238
   131  H   -0.003924
   132  H    0.007807
   133  H   -0.021228
   134  H   -0.001510
   135  H    0.003239
   136  H   -0.014803
   137  H    0.021366
   138  H   -0.000245
   139  H    0.007859
   140  H    0.013032
 Sum of Mulliken charges =  -0.00000

 Dipole moment (field-independent basis, Debye):
    X=              4.0096    Y=              3.5550    Z=             -3.4238  Tot=              6.3590
 Quadrupole moment (field-independent basis, Debye-Ang):
   XX=           -384.6390   YY=           -426.9066   ZZ=           -402.9728
   XY=            -25.5497   XZ=              2.9424   YZ=              6.5201

 Normal termination of Gaussian 16 at Sat Apr 30 08:25:54 2022.
