 Gaussian 16, Revision A.03,
 Gaussian 16:  ES64L-G16RevA.03 25-Dec-2016

 ---------------------------------
 #p PBE1PBE/Def2SVP td=(nstates=5)
 ---------------------------------

 ----------------------------------------------------
 step_651_chromophore_6 TDDFT with PBE1PBE functional
 ----------------------------------------------------
 Symbolic Z-matrix:
 Charge =  0 Multiplicity = 1

                         Standard orientation:
 ---------------------------------------------------------------------
 Center     Atomic      Atomic             Coordinates (Angstroms)
 Number     Number       Type             X           Y           Z
 ---------------------------------------------------------------------
      1         12           0       -5.481646    1.058742   -0.708124
      2          6           0       -4.549159   -2.244780    0.124300
      3          6           0       -2.248991    1.853458   -0.913784
      4          6           0       -6.323191    4.344229   -0.212515
      5          6           0       -8.729441    0.211511    0.507088
      6          7           0       -3.677768   -0.043364   -0.292564
      7          6           0       -3.476875   -1.430485   -0.120462
      8          6           0       -1.986603   -1.828336   -0.223087
      9          6           0       -1.277621   -0.419697   -0.296815
     10          6           0       -2.483359    0.523391   -0.600291
     11          6           0       -0.321620    0.033378    0.937833
     12          6           0       -1.741814   -2.729063   -1.539219
     13          6           0       -0.713899   -3.853540   -1.573510
     14          6           0        0.317487   -3.838220   -0.357570
     15          8           0        0.196472   -4.571926    0.627141
     16          8           0        1.443809   -3.003970   -0.608309
     17          7           0       -4.426825    2.845356   -0.900003
     18          6           0       -3.148057    2.921398   -1.076001
     19          6           0       -2.794048    4.296090   -1.270085
     20          6           0       -3.934336    5.066820   -0.814576
     21          6           0       -5.018068    4.056996   -0.631289
     22          6           0       -1.454890    4.801165   -1.686225
     23          6           0       -4.126639    6.633172   -0.673502
     24          8           0       -5.176873    7.137779   -0.377147
     25          6           0       -2.861054    7.501793   -0.892564
     26          7           0       -7.282742    2.058619   -0.015678
     27          6           0       -7.382149    3.444232    0.053989
     28          6           0       -8.654284    3.930798    0.700367
     29          6           0       -9.508423    2.638567    0.710013
     30          6           0       -8.463298    1.544097    0.397281
     31          6           0       -8.354945    4.352097    2.154768
     32          6           0      -10.694380    2.579866   -0.273741
     33          6           0      -12.032938    2.144865    0.350821
     34          7           0       -6.513663   -0.636281   -0.130088
     35          6           0       -7.831787   -0.868169    0.233027
     36          6           0       -8.090059   -2.234153    0.436517
     37          6           0       -6.833879   -2.832903    0.464440
     38          6           0       -5.908416   -1.789378    0.099119
     39          6           0       -9.439950   -2.886842    0.657793
     40          6           0       -6.214708   -4.091710    0.634585
     41          8           0       -6.768114   -5.179529    0.799494
     42          6           0       -4.734503   -3.799071    0.269421
     43          6           0       -3.941039   -4.401645    1.373104
     44          8           0       -3.300592   -3.806748    2.221972
     45          8           0       -3.977961   -5.770160    1.291943
     46          6           0       -3.295855   -6.470843    2.353580
     47          6           0        2.539070   -2.738576    0.420726
     48          6           0        3.969842   -2.841424   -0.217372
     49          6           0        4.640362   -3.967643   -0.517950
     50          6           0        3.905747   -5.272561   -0.560562
     51          6           0        6.185464   -3.833240   -0.794888
     52          6           0        6.630256   -2.681274   -1.752067
     53          6           0        8.133727   -2.362082   -1.810692
     54          6           0        8.360169   -0.890512   -1.426917
     55          6           0        8.114093    0.096134   -2.481945
     56          6           0        9.702835   -0.657659   -0.659587
     57          6           0       11.031671   -0.700874   -1.465056
     58          6           0       12.275004   -0.761282   -0.572713
     59          6           0       13.196052    0.420804   -0.647679
     60          6           0       14.044043    0.507952   -1.910975
     61          6           0       14.053395    0.494604    0.572960
     62          6           0       14.602493    1.934499    0.728947
     63          6           0       14.149759    2.552585    2.097119
     64          6           0       15.080412    3.772579    2.455415
     65          6           0       14.442502    5.180427    2.331204
     66          6           0       15.601581    3.778263    3.896845
     67          1           0       -1.199929    2.132392   -1.032732
     68          1           0       -6.629493    5.390236   -0.147198
     69          1           0       -9.769045   -0.007931    0.758434
     70          1           0       -1.648650   -2.286852    0.705913
     71          1           0       -0.506149   -0.404282   -1.066763
     72          1           0        0.561481    0.575169    0.598563
     73          1           0        0.004643   -0.858509    1.472860
     74          1           0       -0.938120    0.610820    1.627452
     75          1           0       -1.616964   -2.128585   -2.441000
     76          1           0       -2.725991   -3.124653   -1.789299
     77          1           0       -0.203316   -3.886052   -2.536074
     78          1           0       -1.185143   -4.831797   -1.475493
     79          1           0       -1.594512    5.295424   -2.646913
     80          1           0       -0.829969    3.968117   -2.008021
     81          1           0       -0.913718    5.342463   -0.908999
     82          1           0       -2.284921    7.292301   -1.793813
     83          1           0       -2.205208    7.182953   -0.084296
     84          1           0       -3.105528    8.561883   -0.822555
     85          1           0       -9.099094    4.774978    0.174370
     86          1           0      -10.008493    2.309816    1.621390
     87          1           0       -7.282746    4.478061    2.301298
     88          1           0       -8.635046    3.611736    2.904156
     89          1           0       -8.835980    5.302386    2.387016
     90          1           0      -10.433111    1.849817   -1.040014
     91          1           0      -10.764163    3.584464   -0.692372
     92          1           0      -12.756976    2.136574   -0.463786
     93          1           0      -12.314466    2.728386    1.227730
     94          1           0      -11.987248    1.140921    0.774656
     95          1           0       -9.812130   -2.462332    1.590795
     96          1           0       -9.354740   -3.969675    0.747216
     97          1           0      -10.136012   -2.556516   -0.113669
     98          1           0       -4.518160   -4.374918   -0.630465
     99          1           0       -3.626698   -7.507964    2.414171
    100          1           0       -3.609807   -6.104802    3.331390
    101          1           0       -2.237480   -6.397972    2.105340
    102          1           0        2.442366   -3.531056    1.161805
    103          1           0        2.317443   -1.834089    0.986568
    104          1           0        4.573264   -1.947848   -0.051733
    105          1           0        4.688087   -6.027993   -0.636006
    106          1           0        3.228245   -5.437835   -1.398250
    107          1           0        3.330630   -5.419734    0.353325
    108          1           0        6.641273   -4.773521   -1.103684
    109          1           0        6.642259   -3.520747    0.143898
    110          1           0        6.012145   -1.804275   -1.562609
    111          1           0        6.288599   -3.051321   -2.718581
    112          1           0        8.499706   -2.566445   -2.816990
    113          1           0        8.623683   -3.024053   -1.097041
    114          1           0        7.633368   -0.566513   -0.681903
    115          1           0        7.270556    0.731332   -2.210456
    116          1           0        8.213773   -0.200757   -3.525815
    117          1           0        8.889243    0.858548   -2.417139
    118          1           0        9.654368   -1.348980    0.181422
    119          1           0        9.479555    0.281461   -0.154175
    120          1           0       11.056936    0.261306   -1.975581
    121          1           0       11.173606   -1.608989   -2.050441
    122          1           0       12.815895   -1.651638   -0.893564
    123          1           0       11.990373   -0.897251    0.470978
    124          1           0       12.491142    1.251508   -0.605993
    125          1           0       15.123693    0.615418   -1.809869
    126          1           0       13.603340    1.351837   -2.440978
    127          1           0       13.825993   -0.359406   -2.533238
    128          1           0       14.860522   -0.233064    0.657215
    129          1           0       13.372540    0.471472    1.423679
    130          1           0       14.293384    2.461587   -0.174284
    131          1           0       15.692393    1.929213    0.741026
    132          1           0       13.894000    1.886018    2.919956
    133          1           0       13.177015    3.002132    1.897497
    134          1           0       15.900732    3.704710    1.741464
    135          1           0       13.857851    5.545108    3.175805
    136          1           0       13.626723    5.033499    1.623499
    137          1           0       15.161738    5.944415    2.033936
    138          1           0       16.505797    3.171033    3.882023
    139          1           0       14.846419    3.281888    4.505295
    140          1           0       15.822901    4.799356    4.208997
 ---------------------------------------------------------------------

 SCF Done:  E(RPBE1PBE) =  -3005.33820703     A.U. after   15 cycles

 Excitation energies and oscillator strengths:

 Excited State   1:      Singlet-A      1.8217 eV  680.59 nm  f=0.3717  <S**2>=0.000
     245 -> 248        0.15610
     246 -> 247        0.69773
     246 <- 247       -0.11547
 This state for optimization and/or second-order correction.
 Total Energy, E(TD-HF/TD-DFT) =  -3005.27126044
 Copying the excited state density for this state as the 1-particle RhoCI density.

 Excited State   2:      Singlet-A      2.2932 eV  540.65 nm  f=0.1180  <S**2>=0.000
     245 -> 247        0.64790
     246 -> 248       -0.26776

 Excited State   3:      Singlet-A      2.9570 eV  419.29 nm  f=0.0024  <S**2>=0.000
     242 -> 247        0.15131
     244 -> 247        0.65592
     244 -> 249        0.15330

 Excited State   4:      Singlet-A      3.1165 eV  397.84 nm  f=0.0014  <S**2>=0.000
     243 -> 247        0.69198

 Excited State   5:      Singlet-A      3.1823 eV  389.60 nm  f=0.0025  <S**2>=0.000
     242 -> 247        0.66429
     244 -> 247       -0.16879
     246 -> 248        0.12550

 The electronic state is 1-A.
 Alpha  occ. eigenvalues --  -46.92019 -19.24885 -19.23742 -19.20771 -19.20132
 Alpha  occ. eigenvalues --  -19.18651 -19.18493 -14.41565 -14.41389 -14.38883
 Alpha  occ. eigenvalues --  -14.38728 -10.37363 -10.34899 -10.33329 -10.31144
 Alpha  occ. eigenvalues --  -10.30308 -10.28672 -10.28591 -10.28406 -10.28057
 Alpha  occ. eigenvalues --  -10.27364 -10.27120 -10.27039 -10.26597 -10.26219
 Alpha  occ. eigenvalues --  -10.26197 -10.25982 -10.25830 -10.25766 -10.25710
 Alpha  occ. eigenvalues --  -10.25668 -10.25487 -10.25358 -10.25246 -10.25242
 Alpha  occ. eigenvalues --  -10.24785 -10.24455 -10.24442 -10.24312 -10.23935
 Alpha  occ. eigenvalues --  -10.23922 -10.23828 -10.23793 -10.23672 -10.23666
 Alpha  occ. eigenvalues --  -10.23653 -10.23171 -10.23110 -10.23070 -10.22999
 Alpha  occ. eigenvalues --  -10.22999 -10.22850 -10.22817 -10.22781 -10.22706
 Alpha  occ. eigenvalues --  -10.22706 -10.22614 -10.22394 -10.22381 -10.21849
 Alpha  occ. eigenvalues --  -10.21623 -10.21598 -10.21581 -10.21545 -10.21477
 Alpha  occ. eigenvalues --  -10.21402  -3.14199  -1.87011  -1.86575  -1.86428
 Alpha  occ. eigenvalues --   -1.09982  -1.08194  -1.06502  -1.03356  -1.01277
 Alpha  occ. eigenvalues --   -1.01127  -0.99471  -0.98856  -0.97620  -0.96752
 Alpha  occ. eigenvalues --   -0.86257  -0.85295  -0.84522  -0.83363  -0.83252
 Alpha  occ. eigenvalues --   -0.83008  -0.82546  -0.82025  -0.81481  -0.81288
 Alpha  occ. eigenvalues --   -0.80718  -0.78966  -0.78651  -0.77738  -0.77644
 Alpha  occ. eigenvalues --   -0.77152  -0.75693  -0.75011  -0.74750  -0.74608
 Alpha  occ. eigenvalues --   -0.74188  -0.72189  -0.71677  -0.71059  -0.70601
 Alpha  occ. eigenvalues --   -0.69823  -0.69593  -0.69275  -0.68865  -0.68733
 Alpha  occ. eigenvalues --   -0.67567  -0.67227  -0.65675  -0.64748  -0.63985
 Alpha  occ. eigenvalues --   -0.63079  -0.62880  -0.61406  -0.61060  -0.59783
 Alpha  occ. eigenvalues --   -0.59600  -0.59466  -0.59209  -0.58433  -0.57786
 Alpha  occ. eigenvalues --   -0.57142  -0.57126  -0.56057  -0.55503  -0.54666
 Alpha  occ. eigenvalues --   -0.53977  -0.53415  -0.53129  -0.53106  -0.52186
 Alpha  occ. eigenvalues --   -0.51599  -0.50742  -0.50490  -0.49979  -0.49950
 Alpha  occ. eigenvalues --   -0.49411  -0.49104  -0.48854  -0.48471  -0.48349
 Alpha  occ. eigenvalues --   -0.47973  -0.47915  -0.47587  -0.47410  -0.47194
 Alpha  occ. eigenvalues --   -0.46919  -0.46841  -0.46777  -0.46302  -0.46072
 Alpha  occ. eigenvalues --   -0.46008  -0.45663  -0.45298  -0.45214  -0.45004
 Alpha  occ. eigenvalues --   -0.44947  -0.44911  -0.44547  -0.44519  -0.44158
 Alpha  occ. eigenvalues --   -0.44032  -0.43914  -0.43758  -0.43574  -0.43418
 Alpha  occ. eigenvalues --   -0.43293  -0.42988  -0.42777  -0.42740  -0.42383
 Alpha  occ. eigenvalues --   -0.42240  -0.42091  -0.42065  -0.41478  -0.41352
 Alpha  occ. eigenvalues --   -0.41158  -0.40839  -0.40690  -0.40355  -0.40230
 Alpha  occ. eigenvalues --   -0.40106  -0.39976  -0.39897  -0.39661  -0.39553
 Alpha  occ. eigenvalues --   -0.39056  -0.38882  -0.38776  -0.38631  -0.38539
 Alpha  occ. eigenvalues --   -0.38321  -0.38298  -0.38226  -0.38040  -0.37782
 Alpha  occ. eigenvalues --   -0.37616  -0.37467  -0.37255  -0.37147  -0.36898
 Alpha  occ. eigenvalues --   -0.36702  -0.36168  -0.36027  -0.35867  -0.35661
 Alpha  occ. eigenvalues --   -0.35361  -0.34993  -0.34800  -0.34754  -0.34729
 Alpha  occ. eigenvalues --   -0.34599  -0.34458  -0.34092  -0.34000  -0.33657
 Alpha  occ. eigenvalues --   -0.33257  -0.33070  -0.32548  -0.32278  -0.32213
 Alpha  occ. eigenvalues --   -0.31777  -0.31760  -0.31390  -0.31377  -0.31201
 Alpha  occ. eigenvalues --   -0.30404  -0.30235  -0.30210  -0.29605  -0.28993
 Alpha  occ. eigenvalues --   -0.28894  -0.28294  -0.27692  -0.26897  -0.26284
 Alpha  occ. eigenvalues --   -0.25647  -0.25491  -0.25343  -0.24879  -0.20947
 Alpha  occ. eigenvalues --   -0.18350
 Alpha virt. eigenvalues --   -0.10908  -0.04659  -0.03548  -0.01819  -0.01075
 Alpha virt. eigenvalues --   -0.01041  -0.00345   0.01241   0.02276   0.03597
 Alpha virt. eigenvalues --    0.04659   0.05042   0.05174   0.05502   0.05825

 Mulliken charges:
               1
     1  Mg   0.987841
     2  C    0.047301
     3  C   -0.085741
     4  C   -0.058792
     5  C   -0.079815
     6  N   -0.426313
     7  C    0.016881
     8  C   -0.086598
     9  C   -0.126207
    10  C    0.122598
    11  C   -0.021353
    12  C    0.009939
    13  C    0.031145
    14  C    0.227312
    15  O   -0.263289
    16  O   -0.418348
    17  N   -0.469621
    18  C    0.181769
    19  C   -0.204569
    20  C   -0.123810
    21  C    0.169206
    22  C    0.053364
    23  C    0.084365
    24  O   -0.211696
    25  C   -0.036414
    26  N   -0.382477
    27  C    0.067498
    28  C   -0.113691
    29  C   -0.097091
    30  C    0.062118
    31  C    0.017595
    32  C   -0.006772
    33  C   -0.080452
    34  N   -0.449635
    35  C    0.137616
    36  C   -0.194844
    37  C   -0.037386
    38  C    0.134200
    39  C    0.087142
    40  C    0.113141
    41  O   -0.219308
    42  C   -0.150360
    43  C    0.272919
    44  O   -0.255123
    45  O   -0.358053
    46  C    0.131981
    47  C    0.216505
    48  C   -0.107919
    49  C   -0.219063
    50  C    0.033956
    51  C    0.006990
    52  C   -0.071722
    53  C    0.054384
    54  C   -0.233437
    55  C    0.030712
    56  C   -0.051246
    57  C    0.010868
    58  C    0.006414
    59  C   -0.263280
    60  C    0.025030
    61  C    0.004403
    62  C   -0.068463
    63  C   -0.008835
    64  C   -0.243753
    65  C   -0.033353
    66  C   -0.002351
    67  H   -0.006068
    68  H    0.036619
    69  H   -0.009335
    70  H    0.085153
    71  H    0.043232
    72  H    0.048381
    73  H    0.053835
    74  H    0.054953
    75  H    0.030632
    76  H    0.034711
    77  H    0.058385
    78  H    0.060041
    79  H    0.061670
    80  H    0.027006
    81  H    0.067235
    82  H    0.056835
    83  H    0.058407
    84  H    0.059077
    85  H    0.049689
    86  H    0.037364
    87  H    0.048756
    88  H    0.043835
    89  H    0.046385
    90  H    0.044145
    91  H    0.035655
    92  H    0.052674
    93  H    0.044715
    94  H    0.034244
    95  H    0.048669
    96  H    0.068670
    97  H    0.044636
    98  H    0.097059
    99  H    0.046843
   100  H    0.052584
   101  H    0.067867
   102  H    0.053712
   103  H    0.049174
   104  H    0.024836
   105  H    0.030009
   106  H    0.067074
   107  H    0.057877
   108  H    0.033375
   109  H    0.045393
   110  H    0.036167
   111  H    0.026214
   112  H    0.033336
   113  H    0.020286
   114  H    0.022569
   115  H    0.027212
   116  H    0.037869
   117  H    0.004610
   118  H    0.017994
   119  H    0.014442
   120  H    0.030302
   121  H    0.034049
   122  H    0.012874
   123  H    0.016277
   124  H    0.021998
   125  H    0.049405
   126  H    0.033693
   127  H    0.026069
   128  H    0.034781
   129  H    0.019034
   130  H    0.035520
   131  H    0.029538
   132  H    0.036653
   133  H    0.013552
   134  H    0.035566
   135  H    0.031193
   136  H    0.013811
   137  H    0.049185
   138  H    0.028678
   139  H    0.035935
   140  H    0.041166
 Sum of Mulliken charges =  -0.00000

 Dipole moment (field-independent basis, Debye):
    X=              3.7485    Y=              3.0691    Z=             -3.3223  Tot=              5.8743
 Quadrupole moment (field-independent basis, Debye-Ang):
   XX=           -376.2452   YY=           -425.2011   ZZ=           -400.6954
   XY=            -23.6461   XZ=              1.9992   YZ=              7.0265

 Normal termination of Gaussian 16 at Sat Apr 30 08:44:41 2022.
