 Gaussian 16, Revision A.03,
 Gaussian 16:  ES64L-G16RevA.03 25-Dec-2016

 --------------------------------
 #p wB97XD/Def2SVP td=(nstates=5)
 --------------------------------

 ---------------------------------------------------
 step_651_chromophore_6 TDDFT with wB97XD functional
 ---------------------------------------------------
 Symbolic Z-matrix:
 Charge =  0 Multiplicity = 1

                         Standard orientation:
 ---------------------------------------------------------------------
 Center     Atomic      Atomic             Coordinates (Angstroms)
 Number     Number       Type             X           Y           Z
 ---------------------------------------------------------------------
      1         12           0       -5.481646    1.058742   -0.708124
      2          6           0       -4.549159   -2.244780    0.124300
      3          6           0       -2.248991    1.853458   -0.913784
      4          6           0       -6.323191    4.344229   -0.212515
      5          6           0       -8.729441    0.211511    0.507088
      6          7           0       -3.677768   -0.043364   -0.292564
      7          6           0       -3.476875   -1.430485   -0.120462
      8          6           0       -1.986603   -1.828336   -0.223087
      9          6           0       -1.277621   -0.419697   -0.296815
     10          6           0       -2.483359    0.523391   -0.600291
     11          6           0       -0.321620    0.033378    0.937833
     12          6           0       -1.741814   -2.729063   -1.539219
     13          6           0       -0.713899   -3.853540   -1.573510
     14          6           0        0.317487   -3.838220   -0.357570
     15          8           0        0.196472   -4.571926    0.627141
     16          8           0        1.443809   -3.003970   -0.608309
     17          7           0       -4.426825    2.845356   -0.900003
     18          6           0       -3.148057    2.921398   -1.076001
     19          6           0       -2.794048    4.296090   -1.270085
     20          6           0       -3.934336    5.066820   -0.814576
     21          6           0       -5.018068    4.056996   -0.631289
     22          6           0       -1.454890    4.801165   -1.686225
     23          6           0       -4.126639    6.633172   -0.673502
     24          8           0       -5.176873    7.137779   -0.377147
     25          6           0       -2.861054    7.501793   -0.892564
     26          7           0       -7.282742    2.058619   -0.015678
     27          6           0       -7.382149    3.444232    0.053989
     28          6           0       -8.654284    3.930798    0.700367
     29          6           0       -9.508423    2.638567    0.710013
     30          6           0       -8.463298    1.544097    0.397281
     31          6           0       -8.354945    4.352097    2.154768
     32          6           0      -10.694380    2.579866   -0.273741
     33          6           0      -12.032938    2.144865    0.350821
     34          7           0       -6.513663   -0.636281   -0.130088
     35          6           0       -7.831787   -0.868169    0.233027
     36          6           0       -8.090059   -2.234153    0.436517
     37          6           0       -6.833879   -2.832903    0.464440
     38          6           0       -5.908416   -1.789378    0.099119
     39          6           0       -9.439950   -2.886842    0.657793
     40          6           0       -6.214708   -4.091710    0.634585
     41          8           0       -6.768114   -5.179529    0.799494
     42          6           0       -4.734503   -3.799071    0.269421
     43          6           0       -3.941039   -4.401645    1.373104
     44          8           0       -3.300592   -3.806748    2.221972
     45          8           0       -3.977961   -5.770160    1.291943
     46          6           0       -3.295855   -6.470843    2.353580
     47          6           0        2.539070   -2.738576    0.420726
     48          6           0        3.969842   -2.841424   -0.217372
     49          6           0        4.640362   -3.967643   -0.517950
     50          6           0        3.905747   -5.272561   -0.560562
     51          6           0        6.185464   -3.833240   -0.794888
     52          6           0        6.630256   -2.681274   -1.752067
     53          6           0        8.133727   -2.362082   -1.810692
     54          6           0        8.360169   -0.890512   -1.426917
     55          6           0        8.114093    0.096134   -2.481945
     56          6           0        9.702835   -0.657659   -0.659587
     57          6           0       11.031671   -0.700874   -1.465056
     58          6           0       12.275004   -0.761282   -0.572713
     59          6           0       13.196052    0.420804   -0.647679
     60          6           0       14.044043    0.507952   -1.910975
     61          6           0       14.053395    0.494604    0.572960
     62          6           0       14.602493    1.934499    0.728947
     63          6           0       14.149759    2.552585    2.097119
     64          6           0       15.080412    3.772579    2.455415
     65          6           0       14.442502    5.180427    2.331204
     66          6           0       15.601581    3.778263    3.896845
     67          1           0       -1.199929    2.132392   -1.032732
     68          1           0       -6.629493    5.390236   -0.147198
     69          1           0       -9.769045   -0.007931    0.758434
     70          1           0       -1.648650   -2.286852    0.705913
     71          1           0       -0.506149   -0.404282   -1.066763
     72          1           0        0.561481    0.575169    0.598563
     73          1           0        0.004643   -0.858509    1.472860
     74          1           0       -0.938120    0.610820    1.627452
     75          1           0       -1.616964   -2.128585   -2.441000
     76          1           0       -2.725991   -3.124653   -1.789299
     77          1           0       -0.203316   -3.886052   -2.536074
     78          1           0       -1.185143   -4.831797   -1.475493
     79          1           0       -1.594512    5.295424   -2.646913
     80          1           0       -0.829969    3.968117   -2.008021
     81          1           0       -0.913718    5.342463   -0.908999
     82          1           0       -2.284921    7.292301   -1.793813
     83          1           0       -2.205208    7.182953   -0.084296
     84          1           0       -3.105528    8.561883   -0.822555
     85          1           0       -9.099094    4.774978    0.174370
     86          1           0      -10.008493    2.309816    1.621390
     87          1           0       -7.282746    4.478061    2.301298
     88          1           0       -8.635046    3.611736    2.904156
     89          1           0       -8.835980    5.302386    2.387016
     90          1           0      -10.433111    1.849817   -1.040014
     91          1           0      -10.764163    3.584464   -0.692372
     92          1           0      -12.756976    2.136574   -0.463786
     93          1           0      -12.314466    2.728386    1.227730
     94          1           0      -11.987248    1.140921    0.774656
     95          1           0       -9.812130   -2.462332    1.590795
     96          1           0       -9.354740   -3.969675    0.747216
     97          1           0      -10.136012   -2.556516   -0.113669
     98          1           0       -4.518160   -4.374918   -0.630465
     99          1           0       -3.626698   -7.507964    2.414171
    100          1           0       -3.609807   -6.104802    3.331390
    101          1           0       -2.237480   -6.397972    2.105340
    102          1           0        2.442366   -3.531056    1.161805
    103          1           0        2.317443   -1.834089    0.986568
    104          1           0        4.573264   -1.947848   -0.051733
    105          1           0        4.688087   -6.027993   -0.636006
    106          1           0        3.228245   -5.437835   -1.398250
    107          1           0        3.330630   -5.419734    0.353325
    108          1           0        6.641273   -4.773521   -1.103684
    109          1           0        6.642259   -3.520747    0.143898
    110          1           0        6.012145   -1.804275   -1.562609
    111          1           0        6.288599   -3.051321   -2.718581
    112          1           0        8.499706   -2.566445   -2.816990
    113          1           0        8.623683   -3.024053   -1.097041
    114          1           0        7.633368   -0.566513   -0.681903
    115          1           0        7.270556    0.731332   -2.210456
    116          1           0        8.213773   -0.200757   -3.525815
    117          1           0        8.889243    0.858548   -2.417139
    118          1           0        9.654368   -1.348980    0.181422
    119          1           0        9.479555    0.281461   -0.154175
    120          1           0       11.056936    0.261306   -1.975581
    121          1           0       11.173606   -1.608989   -2.050441
    122          1           0       12.815895   -1.651638   -0.893564
    123          1           0       11.990373   -0.897251    0.470978
    124          1           0       12.491142    1.251508   -0.605993
    125          1           0       15.123693    0.615418   -1.809869
    126          1           0       13.603340    1.351837   -2.440978
    127          1           0       13.825993   -0.359406   -2.533238
    128          1           0       14.860522   -0.233064    0.657215
    129          1           0       13.372540    0.471472    1.423679
    130          1           0       14.293384    2.461587   -0.174284
    131          1           0       15.692393    1.929213    0.741026
    132          1           0       13.894000    1.886018    2.919956
    133          1           0       13.177015    3.002132    1.897497
    134          1           0       15.900732    3.704710    1.741464
    135          1           0       13.857851    5.545108    3.175805
    136          1           0       13.626723    5.033499    1.623499
    137          1           0       15.161738    5.944415    2.033936
    138          1           0       16.505797    3.171033    3.882023
    139          1           0       14.846419    3.281888    4.505295
    140          1           0       15.822901    4.799356    4.208997
 ---------------------------------------------------------------------

 SCF Done:  E(RwB97XD) =  -3007.84714880     A.U. after   19 cycles

 Excitation energies and oscillator strengths:

 Excited State   1:      Singlet-A      1.6268 eV  762.12 nm  f=0.3813  <S**2>=0.000
     245 -> 248        0.16669
     246 -> 247        0.68763
     245 <- 248        0.11127
 This state for optimization and/or second-order correction.
 Total Energy, E(TD-HF/TD-DFT) =  -3007.78736415
 Copying the excited state density for this state as the 1-particle RhoCI density.

 Excited State   2:      Singlet-A      2.2415 eV  553.13 nm  f=0.1196  <S**2>=0.000
     245 -> 247        0.63650
     246 -> 248       -0.28884

 Excited State   3:      Singlet-A      3.4475 eV  359.64 nm  f=0.0529  <S**2>=0.000
     242 -> 247        0.59148
     243 -> 247       -0.18358
     244 -> 247        0.11354
     246 -> 248        0.26974

 Excited State   4:      Singlet-A      3.5413 eV  350.11 nm  f=0.0028  <S**2>=0.000
     243 -> 247        0.15233
     243 -> 249        0.20634
     243 -> 250        0.16498
     244 -> 247        0.56061
     244 -> 249        0.20314

 Excited State   5:      Singlet-A      3.5770 eV  346.62 nm  f=0.1239  <S**2>=0.000
     243 -> 247        0.50550
     243 -> 249        0.18583
     244 -> 247       -0.22078
     245 -> 247        0.11519
     246 -> 248        0.32053

 The electronic state is 1-A.
 Alpha  occ. eigenvalues --  -46.94975 -19.29375 -19.28225 -19.25371 -19.25205
 Alpha  occ. eigenvalues --  -19.23254 -19.22997 -14.46600 -14.46542 -14.43997
 Alpha  occ. eigenvalues --  -14.43501 -10.44092 -10.41632 -10.40409 -10.37766
 Alpha  occ. eigenvalues --  -10.36813 -10.35127 -10.34884 -10.34785 -10.34709
 Alpha  occ. eigenvalues --  -10.33871 -10.33460 -10.33382 -10.32639 -10.32463
 Alpha  occ. eigenvalues --  -10.32414 -10.32252 -10.32235 -10.32147 -10.31991
 Alpha  occ. eigenvalues --  -10.31987 -10.31967 -10.31757 -10.31551 -10.31483
 Alpha  occ. eigenvalues --  -10.31173 -10.30923 -10.30678 -10.30578 -10.30559
 Alpha  occ. eigenvalues --  -10.30452 -10.30321 -10.30256 -10.30154 -10.30005
 Alpha  occ. eigenvalues --  -10.29897 -10.29547 -10.29510 -10.29343 -10.29277
 Alpha  occ. eigenvalues --  -10.29241 -10.29229 -10.29215 -10.29155 -10.29105
 Alpha  occ. eigenvalues --  -10.29052 -10.28980 -10.28745 -10.28679 -10.28289
 Alpha  occ. eigenvalues --  -10.28041 -10.28009 -10.27907 -10.27850 -10.27832
 Alpha  occ. eigenvalues --  -10.27544  -3.21013  -1.94575  -1.94138  -1.93990
 Alpha  occ. eigenvalues --   -1.17286  -1.15532  -1.14219  -1.10573  -1.08547
 Alpha  occ. eigenvalues --   -1.08427  -1.07042  -1.06009  -1.05016  -1.04111
 Alpha  occ. eigenvalues --   -0.93706  -0.92949  -0.92179  -0.91017  -0.90831
 Alpha  occ. eigenvalues --   -0.90656  -0.90163  -0.89686  -0.89188  -0.88960
 Alpha  occ. eigenvalues --   -0.88296  -0.86627  -0.86307  -0.85333  -0.85186
 Alpha  occ. eigenvalues --   -0.84802  -0.83610  -0.82594  -0.82398  -0.82267
 Alpha  occ. eigenvalues --   -0.81827  -0.79942  -0.79309  -0.78651  -0.78264
 Alpha  occ. eigenvalues --   -0.77358  -0.77269  -0.76870  -0.76534  -0.76433
 Alpha  occ. eigenvalues --   -0.75096  -0.74742  -0.73245  -0.72348  -0.71644
 Alpha  occ. eigenvalues --   -0.70614  -0.70287  -0.69143  -0.68716  -0.67264
 Alpha  occ. eigenvalues --   -0.67131  -0.67024  -0.66708  -0.65836  -0.65448
 Alpha  occ. eigenvalues --   -0.64796  -0.64537  -0.63668  -0.62862  -0.62229
 Alpha  occ. eigenvalues --   -0.61320  -0.60805  -0.60584  -0.60475  -0.59536
 Alpha  occ. eigenvalues --   -0.59055  -0.58316  -0.57896  -0.57396  -0.57290
 Alpha  occ. eigenvalues --   -0.56787  -0.56570  -0.56316  -0.55794  -0.55784
 Alpha  occ. eigenvalues --   -0.55321  -0.55303  -0.55216  -0.54831  -0.54538
 Alpha  occ. eigenvalues --   -0.54333  -0.54260  -0.54106  -0.53600  -0.53435
 Alpha  occ. eigenvalues --   -0.53321  -0.53024  -0.52608  -0.52580  -0.52559
 Alpha  occ. eigenvalues --   -0.52299  -0.52267  -0.51878  -0.51742  -0.51598
 Alpha  occ. eigenvalues --   -0.51395  -0.51198  -0.51076  -0.50963  -0.50755
 Alpha  occ. eigenvalues --   -0.50617  -0.50364  -0.50105  -0.49987  -0.49661
 Alpha  occ. eigenvalues --   -0.49507  -0.49361  -0.49322  -0.48700  -0.48577
 Alpha  occ. eigenvalues --   -0.48349  -0.48053  -0.47814  -0.47475  -0.47463
 Alpha  occ. eigenvalues --   -0.47177  -0.47114  -0.47091  -0.46770  -0.46670
 Alpha  occ. eigenvalues --   -0.46185  -0.46054  -0.45985  -0.45817  -0.45708
 Alpha  occ. eigenvalues --   -0.45510  -0.45451  -0.45377  -0.45173  -0.45016
 Alpha  occ. eigenvalues --   -0.44687  -0.44560  -0.44384  -0.44222  -0.44017
 Alpha  occ. eigenvalues --   -0.43732  -0.43228  -0.42932  -0.42853  -0.42763
 Alpha  occ. eigenvalues --   -0.42420  -0.41977  -0.41907  -0.41788  -0.41677
 Alpha  occ. eigenvalues --   -0.41657  -0.41513  -0.41092  -0.41056  -0.40701
 Alpha  occ. eigenvalues --   -0.40299  -0.40021  -0.39606  -0.39271  -0.39198
 Alpha  occ. eigenvalues --   -0.38794  -0.38686  -0.38396  -0.38357  -0.38178
 Alpha  occ. eigenvalues --   -0.37331  -0.37260  -0.37226  -0.36403  -0.35986
 Alpha  occ. eigenvalues --   -0.35765  -0.35073  -0.34580  -0.33678  -0.33399
 Alpha  occ. eigenvalues --   -0.32390  -0.32246  -0.31966  -0.31467  -0.25999
 Alpha  occ. eigenvalues --   -0.22539
 Alpha virt. eigenvalues --   -0.06753   0.00838   0.02774   0.04648   0.04823
 Alpha virt. eigenvalues --    0.05637   0.06543   0.07976   0.09169   0.10262
 Alpha virt. eigenvalues --    0.10968   0.11765   0.12061   0.12252   0.12529

 Mulliken charges:
               1
     1  Mg   0.979938
     2  C    0.037441
     3  C   -0.107769
     4  C   -0.078124
     5  C   -0.090523
     6  N   -0.396025
     7  C   -0.006053
     8  C   -0.061084
     9  C   -0.110974
    10  C    0.114027
    11  C   -0.007066
    12  C    0.018094
    13  C    0.049161
    14  C    0.212471
    15  O   -0.260035
    16  O   -0.418104
    17  N   -0.433413
    18  C    0.176669
    19  C   -0.192694
    20  C   -0.120628
    21  C    0.164139
    22  C    0.065583
    23  C    0.082166
    24  O   -0.205058
    25  C   -0.022543
    26  N   -0.347227
    27  C    0.056564
    28  C   -0.087116
    29  C   -0.069882
    30  C    0.046316
    31  C    0.024361
    32  C    0.003581
    33  C   -0.061510
    34  N   -0.410924
    35  C    0.125219
    36  C   -0.193491
    37  C   -0.039321
    38  C    0.122355
    39  C    0.098091
    40  C    0.095198
    41  O   -0.211433
    42  C   -0.113517
    43  C    0.252188
    44  O   -0.249651
    45  O   -0.357773
    46  C    0.145027
    47  C    0.234587
    48  C   -0.115236
    49  C   -0.209917
    50  C    0.047315
    51  C    0.028409
    52  C   -0.052463
    53  C    0.064690
    54  C   -0.199776
    55  C    0.035200
    56  C   -0.030318
    57  C    0.028441
    58  C    0.019150
    59  C   -0.222967
    60  C    0.029027
    61  C    0.022296
    62  C   -0.051959
    63  C    0.004978
    64  C   -0.215863
    65  C   -0.017963
    66  C    0.011535
    67  H   -0.014265
    68  H    0.033898
    69  H   -0.018521
    70  H    0.072036
    71  H    0.033872
    72  H    0.043476
    73  H    0.045733
    74  H    0.049012
    75  H    0.023919
    76  H    0.023383
    77  H    0.054213
    78  H    0.054720
    79  H    0.057032
    80  H    0.023607
    81  H    0.064138
    82  H    0.051423
    83  H    0.051642
    84  H    0.059189
    85  H    0.042580
    86  H    0.023066
    87  H    0.040868
    88  H    0.039322
    89  H    0.042019
    90  H    0.035170
    91  H    0.026569
    92  H    0.047592
    93  H    0.038091
    94  H    0.026520
    95  H    0.041685
    96  H    0.065352
    97  H    0.038414
    98  H    0.090279
    99  H    0.043077
   100  H    0.047916
   101  H    0.066253
   102  H    0.047115
   103  H    0.044744
   104  H    0.019607
   105  H    0.024183
   106  H    0.062466
   107  H    0.051933
   108  H    0.026911
   109  H    0.034286
   110  H    0.022569
   111  H    0.017693
   112  H    0.026471
   113  H    0.010888
   114  H    0.009002
   115  H    0.022962
   116  H    0.033522
   117  H   -0.003452
   118  H    0.007780
   119  H    0.005130
   120  H    0.017548
   121  H    0.027516
   122  H    0.003981
   123  H    0.006503
   124  H    0.005009
   125  H    0.045014
   126  H    0.028000
   127  H    0.019888
   128  H    0.028922
   129  H    0.004151
   130  H    0.025155
   131  H    0.019352
   132  H    0.029795
   133  H    0.001797
   134  H    0.023888
   135  H    0.024458
   136  H    0.005322
   137  H    0.044238
   138  H    0.022866
   139  H    0.028775
   140  H    0.034913
 Sum of Mulliken charges =  -0.00000

 Dipole moment (field-independent basis, Debye):
    X=              4.0999    Y=              3.7352    Z=             -3.4897  Tot=              6.5528
 Quadrupole moment (field-independent basis, Debye-Ang):
   XX=           -380.1885   YY=           -422.2090   ZZ=           -400.1064
   XY=            -26.1172   XZ=              2.9903   YZ=              6.6161

 Normal termination of Gaussian 16 at Sat Apr 30 09:13:28 2022.
