 Gaussian 16, Revision A.03,
 Gaussian 16:  ES64L-G16RevA.03 25-Dec-2016

 --------------------
 #p ZINDO=(nstates=5)
 --------------------

 ----------------------------
 step_651_chromophore_6 ZINDO
 ----------------------------
 Symbolic Z-matrix:
 Charge =  0 Multiplicity = 1

                         Standard orientation:
 ---------------------------------------------------------------------
 Center     Atomic      Atomic             Coordinates (Angstroms)
 Number     Number       Type             X           Y           Z
 ---------------------------------------------------------------------
      1         12           0       -5.481646    1.058742   -0.708124
      2          6           0       -4.549159   -2.244780    0.124300
      3          6           0       -2.248991    1.853458   -0.913784
      4          6           0       -6.323191    4.344229   -0.212515
      5          6           0       -8.729441    0.211511    0.507088
      6          7           0       -3.677768   -0.043364   -0.292564
      7          6           0       -3.476875   -1.430485   -0.120462
      8          6           0       -1.986603   -1.828336   -0.223087
      9          6           0       -1.277621   -0.419697   -0.296815
     10          6           0       -2.483359    0.523391   -0.600291
     11          6           0       -0.321620    0.033378    0.937833
     12          6           0       -1.741814   -2.729063   -1.539219
     13          6           0       -0.713899   -3.853540   -1.573510
     14          6           0        0.317487   -3.838220   -0.357570
     15          8           0        0.196472   -4.571926    0.627141
     16          8           0        1.443809   -3.003970   -0.608309
     17          7           0       -4.426825    2.845356   -0.900003
     18          6           0       -3.148057    2.921398   -1.076001
     19          6           0       -2.794048    4.296090   -1.270085
     20          6           0       -3.934336    5.066820   -0.814576
     21          6           0       -5.018068    4.056996   -0.631289
     22          6           0       -1.454890    4.801165   -1.686225
     23          6           0       -4.126639    6.633172   -0.673502
     24          8           0       -5.176873    7.137779   -0.377147
     25          6           0       -2.861054    7.501793   -0.892564
     26          7           0       -7.282742    2.058619   -0.015678
     27          6           0       -7.382149    3.444232    0.053989
     28          6           0       -8.654284    3.930798    0.700367
     29          6           0       -9.508423    2.638567    0.710013
     30          6           0       -8.463298    1.544097    0.397281
     31          6           0       -8.354945    4.352097    2.154768
     32          6           0      -10.694380    2.579866   -0.273741
     33          6           0      -12.032938    2.144865    0.350821
     34          7           0       -6.513663   -0.636281   -0.130088
     35          6           0       -7.831787   -0.868169    0.233027
     36          6           0       -8.090059   -2.234153    0.436517
     37          6           0       -6.833879   -2.832903    0.464440
     38          6           0       -5.908416   -1.789378    0.099119
     39          6           0       -9.439950   -2.886842    0.657793
     40          6           0       -6.214708   -4.091710    0.634585
     41          8           0       -6.768114   -5.179529    0.799494
     42          6           0       -4.734503   -3.799071    0.269421
     43          6           0       -3.941039   -4.401645    1.373104
     44          8           0       -3.300592   -3.806748    2.221972
     45          8           0       -3.977961   -5.770160    1.291943
     46          6           0       -3.295855   -6.470843    2.353580
     47          6           0        2.539070   -2.738576    0.420726
     48          6           0        3.969842   -2.841424   -0.217372
     49          6           0        4.640362   -3.967643   -0.517950
     50          6           0        3.905747   -5.272561   -0.560562
     51          6           0        6.185464   -3.833240   -0.794888
     52          6           0        6.630256   -2.681274   -1.752067
     53          6           0        8.133727   -2.362082   -1.810692
     54          6           0        8.360169   -0.890512   -1.426917
     55          6           0        8.114093    0.096134   -2.481945
     56          6           0        9.702835   -0.657659   -0.659587
     57          6           0       11.031671   -0.700874   -1.465056
     58          6           0       12.275004   -0.761282   -0.572713
     59          6           0       13.196052    0.420804   -0.647679
     60          6           0       14.044043    0.507952   -1.910975
     61          6           0       14.053395    0.494604    0.572960
     62          6           0       14.602493    1.934499    0.728947
     63          6           0       14.149759    2.552585    2.097119
     64          6           0       15.080412    3.772579    2.455415
     65          6           0       14.442502    5.180427    2.331204
     66          6           0       15.601581    3.778263    3.896845
     67          1           0       -1.199929    2.132392   -1.032732
     68          1           0       -6.629493    5.390236   -0.147198
     69          1           0       -9.769045   -0.007931    0.758434
     70          1           0       -1.648650   -2.286852    0.705913
     71          1           0       -0.506149   -0.404282   -1.066763
     72          1           0        0.561481    0.575169    0.598563
     73          1           0        0.004643   -0.858509    1.472860
     74          1           0       -0.938120    0.610820    1.627452
     75          1           0       -1.616964   -2.128585   -2.441000
     76          1           0       -2.725991   -3.124653   -1.789299
     77          1           0       -0.203316   -3.886052   -2.536074
     78          1           0       -1.185143   -4.831797   -1.475493
     79          1           0       -1.594512    5.295424   -2.646913
     80          1           0       -0.829969    3.968117   -2.008021
     81          1           0       -0.913718    5.342463   -0.908999
     82          1           0       -2.284921    7.292301   -1.793813
     83          1           0       -2.205208    7.182953   -0.084296
     84          1           0       -3.105528    8.561883   -0.822555
     85          1           0       -9.099094    4.774978    0.174370
     86          1           0      -10.008493    2.309816    1.621390
     87          1           0       -7.282746    4.478061    2.301298
     88          1           0       -8.635046    3.611736    2.904156
     89          1           0       -8.835980    5.302386    2.387016
     90          1           0      -10.433111    1.849817   -1.040014
     91          1           0      -10.764163    3.584464   -0.692372
     92          1           0      -12.756976    2.136574   -0.463786
     93          1           0      -12.314466    2.728386    1.227730
     94          1           0      -11.987248    1.140921    0.774656
     95          1           0       -9.812130   -2.462332    1.590795
     96          1           0       -9.354740   -3.969675    0.747216
     97          1           0      -10.136012   -2.556516   -0.113669
     98          1           0       -4.518160   -4.374918   -0.630465
     99          1           0       -3.626698   -7.507964    2.414171
    100          1           0       -3.609807   -6.104802    3.331390
    101          1           0       -2.237480   -6.397972    2.105340
    102          1           0        2.442366   -3.531056    1.161805
    103          1           0        2.317443   -1.834089    0.986568
    104          1           0        4.573264   -1.947848   -0.051733
    105          1           0        4.688087   -6.027993   -0.636006
    106          1           0        3.228245   -5.437835   -1.398250
    107          1           0        3.330630   -5.419734    0.353325
    108          1           0        6.641273   -4.773521   -1.103684
    109          1           0        6.642259   -3.520747    0.143898
    110          1           0        6.012145   -1.804275   -1.562609
    111          1           0        6.288599   -3.051321   -2.718581
    112          1           0        8.499706   -2.566445   -2.816990
    113          1           0        8.623683   -3.024053   -1.097041
    114          1           0        7.633368   -0.566513   -0.681903
    115          1           0        7.270556    0.731332   -2.210456
    116          1           0        8.213773   -0.200757   -3.525815
    117          1           0        8.889243    0.858548   -2.417139
    118          1           0        9.654368   -1.348980    0.181422
    119          1           0        9.479555    0.281461   -0.154175
    120          1           0       11.056936    0.261306   -1.975581
    121          1           0       11.173606   -1.608989   -2.050441
    122          1           0       12.815895   -1.651638   -0.893564
    123          1           0       11.990373   -0.897251    0.470978
    124          1           0       12.491142    1.251508   -0.605993
    125          1           0       15.123693    0.615418   -1.809869
    126          1           0       13.603340    1.351837   -2.440978
    127          1           0       13.825993   -0.359406   -2.533238
    128          1           0       14.860522   -0.233064    0.657215
    129          1           0       13.372540    0.471472    1.423679
    130          1           0       14.293384    2.461587   -0.174284
    131          1           0       15.692393    1.929213    0.741026
    132          1           0       13.894000    1.886018    2.919956
    133          1           0       13.177015    3.002132    1.897497
    134          1           0       15.900732    3.704710    1.741464
    135          1           0       13.857851    5.545108    3.175805
    136          1           0       13.626723    5.033499    1.623499
    137          1           0       15.161738    5.944415    2.033936
    138          1           0       16.505797    3.171033    3.882023
    139          1           0       14.846419    3.281888    4.505295
    140          1           0       15.822901    4.799356    4.208997
 ---------------------------------------------------------------------

 SCF Done:  E(RZINDO/S) =  -474.281687534     A.U. after   19 cycles

 Excitation energies and oscillator strengths:

 Excited State   1:      Singlet-A      1.2131 eV 1022.06 nm  f=0.5909  <S**2>=0.000
     175 ->178         0.16413
     176 ->177         0.66941
 This state for optimization and/or second-order correction.
 Total Energy, E(CIS/TDA) =  -474.237107772
 Copying the excited state density for this state as the 1-particle RhoCI density.

 Excited State   2:      Singlet-A      1.9727 eV  628.51 nm  f=0.0387  <S**2>=0.000
     175 ->177         0.53527
     176 ->178        -0.42908

 Excited State   3:      Singlet-A      2.8697 eV  432.04 nm  f=0.1026  <S**2>=0.000
     170 ->177         0.11827
     170 ->179         0.17093
     170 ->181         0.17193
     174 ->177        -0.10742
     175 ->177        -0.14470
     176 ->178        -0.14824
     176 ->179         0.46971
     176 ->181         0.23568

 Excited State   4:      Singlet-A      2.9540 eV  419.72 nm  f=0.1465  <S**2>=0.000
     175 ->177         0.14119
     176 ->178         0.17093
     176 ->180         0.64908

 Excited State   5:      Singlet-A      2.9822 eV  415.74 nm  f=0.7250  <S**2>=0.000
     170 ->177         0.12870
     170 ->181         0.10776
     171 ->177        -0.14062
     175 ->177         0.32721
     176 ->178         0.46147
     176 ->180        -0.25581

 The electronic state is 1-A.
 Alpha  occ. eigenvalues --   -1.84680  -1.83381  -1.79462  -1.72687  -1.70979
 Alpha  occ. eigenvalues --   -1.68220  -1.65416  -1.62572  -1.59325  -1.57242
 Alpha  occ. eigenvalues --   -1.56050  -1.51742  -1.48235  -1.47593  -1.45759
 Alpha  occ. eigenvalues --   -1.43215  -1.41641  -1.40408  -1.40325  -1.39810
 Alpha  occ. eigenvalues --   -1.35638  -1.33983  -1.32810  -1.32630  -1.28204
 Alpha  occ. eigenvalues --   -1.26844  -1.24728  -1.22631  -1.18796  -1.17841
 Alpha  occ. eigenvalues --   -1.17068  -1.15755  -1.14644  -1.14536  -1.13371
 Alpha  occ. eigenvalues --   -1.12422  -1.12243  -1.10047  -1.04514  -1.02815
 Alpha  occ. eigenvalues --   -1.02574  -1.01211  -1.00661  -0.97867  -0.96810
 Alpha  occ. eigenvalues --   -0.95850  -0.94574  -0.93713  -0.93216  -0.92417
 Alpha  occ. eigenvalues --   -0.90942  -0.90440  -0.87945  -0.87816  -0.85768
 Alpha  occ. eigenvalues --   -0.84295  -0.83731  -0.82991  -0.81559  -0.80397
 Alpha  occ. eigenvalues --   -0.78560  -0.78238  -0.77887  -0.77048  -0.76353
 Alpha  occ. eigenvalues --   -0.76147  -0.74771  -0.74221  -0.73686  -0.72939
 Alpha  occ. eigenvalues --   -0.72819  -0.72369  -0.71597  -0.71314  -0.70353
 Alpha  occ. eigenvalues --   -0.69708  -0.69171  -0.69021  -0.68483  -0.67879
 Alpha  occ. eigenvalues --   -0.67724  -0.67256  -0.66995  -0.66267  -0.65897
 Alpha  occ. eigenvalues --   -0.65086  -0.64523  -0.64294  -0.63787  -0.62867
 Alpha  occ. eigenvalues --   -0.62727  -0.62125  -0.61973  -0.61589  -0.61464
 Alpha  occ. eigenvalues --   -0.61423  -0.61076  -0.60633  -0.60547  -0.60384
 Alpha  occ. eigenvalues --   -0.59973  -0.59662  -0.58668  -0.58597  -0.58171
 Alpha  occ. eigenvalues --   -0.58008  -0.57781  -0.57396  -0.56722  -0.56297
 Alpha  occ. eigenvalues --   -0.55935  -0.55673  -0.55233  -0.55129  -0.54901
 Alpha  occ. eigenvalues --   -0.54704  -0.54249  -0.53540  -0.53049  -0.52564
 Alpha  occ. eigenvalues --   -0.52508  -0.52082  -0.51701  -0.51267  -0.50985
 Alpha  occ. eigenvalues --   -0.50779  -0.50520  -0.50250  -0.49853  -0.49733
 Alpha  occ. eigenvalues --   -0.49300  -0.49071  -0.48622  -0.48434  -0.48344
 Alpha  occ. eigenvalues --   -0.47998  -0.47856  -0.47698  -0.47618  -0.47206
 Alpha  occ. eigenvalues --   -0.47167  -0.46829  -0.46645  -0.46502  -0.46246
 Alpha  occ. eigenvalues --   -0.46093  -0.45749  -0.45733  -0.45266  -0.44967
 Alpha  occ. eigenvalues --   -0.44817  -0.44691  -0.44357  -0.44116  -0.44077
 Alpha  occ. eigenvalues --   -0.43894  -0.43090  -0.42666  -0.42100  -0.41987
 Alpha  occ. eigenvalues --   -0.41230  -0.41068  -0.40477  -0.39069  -0.38627
 Alpha  occ. eigenvalues --   -0.37624  -0.37079  -0.36166  -0.34346  -0.33673
 Alpha  occ. eigenvalues --   -0.33133  -0.32930  -0.32662  -0.31745  -0.26832
 Alpha  occ. eigenvalues --   -0.21343
 Alpha virt. eigenvalues --   -0.08282  -0.01580  -0.00259   0.01131   0.01428
 Alpha virt. eigenvalues --    0.01673   0.03211   0.04027   0.04104   0.04812
 Alpha virt. eigenvalues --    0.06207   0.06631   0.07459   0.07796   0.07991

 Mulliken charges:
               1
     1  Mg   0.426172
     2  C   -0.048107
     3  C   -0.104901
     4  C   -0.058430
     5  C   -0.060056
     6  N   -0.299288
     7  C    0.119197
     8  C    0.009070
     9  C   -0.013345
    10  C    0.163634
    11  C   -0.052791
    12  C   -0.021390
    13  C    0.016277
    14  C    0.458933
    15  O   -0.499508
    16  O   -0.302249
    17  N   -0.307782
    18  C    0.168049
    19  C    0.010055
    20  C   -0.060641
    21  C    0.127920
    22  C   -0.043902
    23  C    0.330217
    24  O   -0.494701
    25  C   -0.033837
    26  N   -0.269953
    27  C    0.146722
    28  C    0.017664
    29  C   -0.008121
    30  C    0.097717
    31  C   -0.048591
    32  C   -0.032116
    33  C   -0.057242
    34  N   -0.306968
    35  C    0.067060
    36  C    0.029123
    37  C   -0.076505
    38  C    0.118219
    39  C   -0.040284
    40  C    0.331781
    41  O   -0.538045
    42  C    0.059724
    43  C    0.483385
    44  O   -0.531809
    45  O   -0.266390
    46  C    0.076538
    47  C    0.099309
    48  C   -0.101923
    49  C    0.017721
    50  C   -0.036643
    51  C   -0.022052
    52  C   -0.036692
    53  C   -0.025683
    54  C   -0.007618
    55  C   -0.056248
    56  C   -0.040306
    57  C   -0.037105
    58  C   -0.038020
    59  C   -0.000182
    60  C   -0.056597
    61  C   -0.041051
    62  C   -0.043594
    63  C   -0.040565
    64  C   -0.021162
    65  C   -0.059464
    66  C   -0.056833
    67  H    0.018592
    68  H    0.051436
    69  H    0.024089
    70  H    0.059486
    71  H    0.022311
    72  H    0.025704
    73  H    0.027512
    74  H    0.025644
    75  H    0.021512
    76  H    0.017654
    77  H    0.038591
    78  H    0.039447
    79  H    0.033910
    80  H    0.014829
    81  H    0.041031
    82  H    0.037583
    83  H    0.035301
    84  H    0.040341
    85  H    0.039341
    86  H    0.032084
    87  H    0.022504
    88  H    0.024143
    89  H    0.020357
    90  H    0.024311
    91  H    0.018684
    92  H    0.020090
    93  H    0.022507
    94  H    0.017046
    95  H    0.026534
    96  H    0.041407
    97  H    0.026749
    98  H    0.064879
    99  H    0.026457
   100  H    0.046008
   101  H    0.049088
   102  H    0.047115
   103  H    0.045695
   104  H    0.021710
   105  H    0.012379
   106  H    0.038093
   107  H    0.038678
   108  H    0.024455
   109  H    0.023257
   110  H    0.027191
   111  H    0.007039
   112  H    0.023538
   113  H    0.019551
   114  H    0.011410
   115  H    0.020663
   116  H    0.026135
   117  H    0.002157
   118  H    0.009778
   119  H    0.014348
   120  H    0.028489
   121  H    0.031300
   122  H    0.009657
   123  H    0.015061
   124  H    0.016595
   125  H    0.029485
   126  H    0.013914
   127  H    0.014111
   128  H    0.028396
   129  H    0.012731
   130  H    0.028558
   131  H    0.012922
   132  H    0.036176
   133  H    0.008117
   134  H    0.021380
   135  H    0.018988
   136  H    0.004967
   137  H    0.024894
   138  H    0.009864
   139  H    0.023538
   140  H    0.024701
 Sum of Mulliken charges =  -0.00000

 Dipole moment (field-independent basis, Debye):
    X=              5.9472    Y=              6.4716    Z=             -5.1581  Tot=             10.1910
 N-N= 4.244060474913D+03 E-N= 0.000000000000D+00  KE=-9.163097997548D+03
 Leave Link  601 at Sat Apr 30 09:25:32 2022, MaxMem=  6710886400 cpu:               1.0 elap:               0.1
 (Enter /sw/apps/gaussian-16.0/g16/l9999.exe)
 1\1\GINC-BP1-COMPUTE070\SP\RZINDO CIS\STO-3G\C55H74Mg1N4O6\OF15641\30-
 Apr-2022\0\\#p ZINDO=(nstates=5)\\step_651_chromophore_6 ZINDO\\0,1\Mg
 ,0,16.905,-2.701,27.622\C,0,16.456,-0.355,30.224\C,0,18.746,-4.555,29.
 695\C,0,18.362,-4.186,24.898\C,0,15.77,-0.136,25.414\N,0,17.606,-2.382
 ,29.634\C,0,17.192,-1.444,30.605\C,0,17.682,-1.809,32.025\C,0,18.635,-
 3.034,31.736\C,0,18.243,-3.398,30.27\C,0,20.227,-2.862,32.018\C,0,16.4
 27,-2.192,32.964\C,0,16.399,-1.869,34.453\C,0,17.813,-1.454,35.062\O,0

 Normal termination of Gaussian 16 at Sat Apr 30 09:25:33 2022.
