 Gaussian 16, Revision A.03,
 Gaussian 16:  ES64L-G16RevA.03 25-Dec-2016

 ------------------------------
 #p blyp/Def2SVP td=(nstates=5)
 ------------------------------

 --------------------------------------------------
 step_1651_chromophore_6 TDDFT with blyp functional
 --------------------------------------------------
 Symbolic Z-matrix:
 Charge =  0 Multiplicity = 1

                         Standard orientation:
 ---------------------------------------------------------------------
 Center     Atomic      Atomic             Coordinates (Angstroms)
 Number     Number       Type             X           Y           Z
 ---------------------------------------------------------------------
      1         12           0       -5.566993    1.026047   -0.275770
      2          6           0       -4.560212   -2.295148    0.001807
      3          6           0       -2.319667    2.068037   -0.101164
      4          6           0       -6.706914    4.154677    0.003064
      5          6           0       -8.947374   -0.208956    0.059357
      6          7           0       -3.688921    0.037547    0.089223
      7          6           0       -3.496220   -1.386388    0.071083
      8          6           0       -1.959696   -1.670865   -0.075894
      9          6           0       -1.266270   -0.324992    0.133120
     10          6           0       -2.498109    0.670190   -0.017528
     11          6           0       -0.547194   -0.088399    1.526624
     12          6           0       -1.744855   -2.211756   -1.517152
     13          6           0       -0.610726   -3.186482   -1.821167
     14          6           0        0.214065   -3.679365   -0.624785
     15          8           0        0.019275   -4.645748    0.119690
     16          8           0        1.261796   -2.779257   -0.431349
     17          7           0       -4.685672    2.851571   -0.248040
     18          6           0       -3.337658    3.051977   -0.125450
     19          6           0       -3.101678    4.488855   -0.342589
     20          6           0       -4.327119    5.132129   -0.319166
     21          6           0       -5.315019    4.053146   -0.131172
     22          6           0       -1.634647    5.034965   -0.365674
     23          6           0       -4.634096    6.618847   -0.506069
     24          8           0       -5.781005    7.029617   -0.532609
     25          6           0       -3.534083    7.725491   -0.461892
     26          7           0       -7.586574    1.768397    0.084086
     27          6           0       -7.749489    3.189976    0.161625
     28          6           0       -9.202660    3.555505    0.440138
     29          6           0       -9.926821    2.169345    0.337887
     30          6           0       -8.769083    1.162779    0.136969
     31          6           0       -9.584908    4.280711    1.781673
     32          6           0      -10.958450    2.144412   -0.806449
     33          6           0      -12.410437    1.625065   -0.473917
     34          7           0       -6.596080   -0.792187   -0.059548
     35          6           0       -7.972997   -1.186647   -0.041632
     36          6           0       -8.116897   -2.611810   -0.032074
     37          6           0       -6.802014   -3.074729    0.035592
     38          6           0       -5.932198   -1.918114   -0.027028
     39          6           0       -9.420777   -3.388390   -0.036944
     40          6           0       -6.076030   -4.350554    0.132393
     41          8           0       -6.401075   -5.520021    0.235165
     42          6           0       -4.555198   -3.862748    0.020202
     43          6           0       -3.767408   -4.543461    1.152419
     44          8           0       -3.736744   -4.176904    2.329140
     45          8           0       -3.138487   -5.676824    0.697925
     46          6           0       -2.600964   -6.669849    1.698035
     47          6           0        1.987771   -3.074601    0.815380
     48          6           0        3.351110   -2.390396    0.667510
     49          6           0        4.444220   -2.686110   -0.103617
     50          6           0        4.389068   -3.792391   -1.163059
     51          6           0        5.764987   -1.979510    0.228686
     52          6           0        6.403163   -1.202565   -0.893237
     53          6           0        7.843208   -1.758405   -1.341337
     54          6           0        8.996274   -0.702970   -1.207021
     55          6           0        9.057699    0.283028   -2.394625
     56          6           0       10.355376   -1.368460   -0.896357
     57          6           0       11.478113   -0.542965   -0.290049
     58          6           0       12.753572   -0.500493   -1.176262
     59          6           0       13.546999    0.823249   -1.127230
     60          6           0       13.870615    1.381776   -2.582204
     61          6           0       14.922798    0.717267   -0.439280
     62          6           0       14.874270    0.625708    1.144584
     63          6           0       15.905581    1.518692    1.795795
     64          6           0       15.441306    2.993690    1.946503
     65          6           0       14.697050    3.192842    3.245443
     66          6           0       16.600932    3.975983    1.668915
     67          1           0       -1.290236    2.433423   -0.105211
     68          1           0       -7.151920    5.151883   -0.000764
     69          1           0      -10.001449   -0.485122    0.127330
     70          1           0       -1.668515   -2.438732    0.639714
     71          1           0       -0.610646   -0.014435   -0.680702
     72          1           0        0.474021    0.290997    1.476175
     73          1           0       -0.358455   -1.038822    2.027033
     74          1           0       -1.138379    0.606391    2.122721
     75          1           0       -1.625619   -1.318771   -2.130656
     76          1           0       -2.645216   -2.680713   -1.914468
     77          1           0        0.211401   -2.820082   -2.435338
     78          1           0       -0.946953   -4.085996   -2.336270
     79          1           0       -1.611786    6.023678   -0.822573
     80          1           0       -1.145289    4.351008   -1.059709
     81          1           0       -1.027339    5.037502    0.539958
     82          1           0       -4.099392    8.639120   -0.273889
     83          1           0       -3.025688    7.673806   -1.425342
     84          1           0       -2.761732    7.729109    0.306877
     85          1           0       -9.274766    4.259424   -0.388065
     86          1           0      -10.351077    2.020953    1.330641
     87          1           0       -8.852898    4.075829    2.563146
     88          1           0      -10.577832    3.950995    2.089338
     89          1           0       -9.568096    5.364261    1.666051
     90          1           0      -10.608674    1.448091   -1.569434
     91          1           0      -11.134096    3.149729   -1.190067
     92          1           0      -12.380317    0.936016    0.370628
     93          1           0      -12.968204    1.091018   -1.242988
     94          1           0      -12.886735    2.583858   -0.271552
     95          1           0       -9.211639   -4.247740   -0.674151
     96          1           0      -10.337207   -2.886254   -0.346367
     97          1           0       -9.802353   -3.904272    0.843791
     98          1           0       -4.155833   -4.121419   -0.960014
     99          1           0       -2.036706   -7.449847    1.187030
    100          1           0       -3.501687   -7.083920    2.151073
    101          1           0       -1.990121   -6.189273    2.462125
    102          1           0        2.160800   -4.127986    1.035842
    103          1           0        1.434686   -2.636502    1.645835
    104          1           0        3.449122   -1.640598    1.452330
    105          1           0        5.350190   -4.304712   -1.125901
    106          1           0        4.219181   -3.305502   -2.122420
    107          1           0        3.645930   -4.542053   -0.892470
    108          1           0        6.417810   -2.694663    0.729142
    109          1           0        5.592927   -1.269722    1.037349
    110          1           0        6.580507   -0.196695   -0.511200
    111          1           0        5.671015   -1.216621   -1.699752
    112          1           0        7.654876   -2.104630   -2.357007
    113          1           0        8.048113   -2.645895   -0.741369
    114          1           0        8.801724   -0.058826   -0.349716
    115          1           0        9.670958    0.089249   -3.275047
    116          1           0        9.330877    1.293676   -2.091062
    117          1           0        8.052152    0.346348   -2.808360
    118          1           0       10.726773   -1.961705   -1.731182
    119          1           0       10.074111   -2.216508   -0.270748
    120          1           0       11.656463   -0.968691    0.698369
    121          1           0       11.209793    0.468942    0.012641
    122          1           0       12.492061   -0.794640   -2.193273
    123          1           0       13.406745   -1.275276   -0.774189
    124          1           0       12.930799    1.547132   -0.594036
    125          1           0       13.133800    2.134885   -2.860329
    126          1           0       13.896155    0.632844   -3.373963
    127          1           0       14.867744    1.820259   -2.564174
    128          1           0       15.533529    1.578455   -0.708075
    129          1           0       15.370449   -0.168035   -0.890381
    130          1           0       15.058199   -0.385731    1.507323
    131          1           0       13.964300    1.029547    1.588106
    132          1           0       16.839708    1.520542    1.233230
    133          1           0       16.100290    1.143284    2.800042
    134          1           0       14.846211    3.193705    1.055489
    135          1           0       14.773820    4.176592    3.707290
    136          1           0       14.815022    2.378929    3.960576
    137          1           0       13.677561    3.194835    2.860443
    138          1           0       16.227174    4.940920    2.010983
    139          1           0       16.756932    4.217288    0.617493
    140          1           0       17.475655    3.654193    2.234942
 ---------------------------------------------------------------------

 SCF Done:  E(RB-LYP) =  -3007.39424034     A.U. after   21 cycles

 Excitation energies and oscillator strengths:

 Excited State   1:      Singlet-A      1.7695 eV  700.69 nm  f=0.2975  <S**2>=0.000
     245 -> 248       -0.17496
     246 -> 247        0.69139
     246 <- 247       -0.15393
 This state for optimization and/or second-order correction.
 Total Energy, E(TD-HF/TD-DFT) =  -3007.32921362
 Copying the excited state density for this state as the 1-particle RhoCI density.

 Excited State   2:      Singlet-A      2.0429 eV  606.89 nm  f=0.0515  <S**2>=0.000
     244 -> 247        0.27661
     245 -> 247        0.58481
     246 -> 248        0.25363

 Excited State   3:      Singlet-A      2.1089 eV  587.91 nm  f=0.0062  <S**2>=0.000
     244 -> 247        0.64884
     245 -> 247       -0.22990
     246 -> 248       -0.14143

 Excited State   4:      Singlet-A      2.1923 eV  565.55 nm  f=0.0001  <S**2>=0.000
     243 -> 247        0.70656

 Excited State   5:      Singlet-A      2.3855 eV  519.74 nm  f=0.0000  <S**2>=0.000
     242 -> 247        0.70024

 The electronic state is 1-A.
 Alpha  occ. eigenvalues --  -46.26843 -18.82415 -18.80331 -18.77483 -18.76323
 Alpha  occ. eigenvalues --  -18.76211 -18.75196 -14.03568 -14.02787 -14.01359
 Alpha  occ. eigenvalues --  -14.00853 -10.04306 -10.02889 -10.00718  -9.99907
 Alpha  occ. eigenvalues --   -9.97755  -9.97087  -9.96815  -9.96671  -9.96611
 Alpha  occ. eigenvalues --   -9.96057  -9.95801  -9.95760  -9.95212  -9.94654
 Alpha  occ. eigenvalues --   -9.94485  -9.94437  -9.94064  -9.93923  -9.93802
 Alpha  occ. eigenvalues --   -9.93788  -9.93760  -9.93742  -9.93741  -9.93710
 Alpha  occ. eigenvalues --   -9.93438  -9.93391  -9.93054  -9.92942  -9.92666
 Alpha  occ. eigenvalues --   -9.92617  -9.92614  -9.92529  -9.92495  -9.92460
 Alpha  occ. eigenvalues --   -9.92459  -9.92306  -9.92251  -9.91963  -9.91920
 Alpha  occ. eigenvalues --   -9.91905  -9.91864  -9.91851  -9.91672  -9.91529
 Alpha  occ. eigenvalues --   -9.91278  -9.91210  -9.91203  -9.91090  -9.91062
 Alpha  occ. eigenvalues --   -9.90906  -9.90892  -9.90832  -9.90818  -9.90567
 Alpha  occ. eigenvalues --   -9.90463  -2.91543  -1.71961  -1.71424  -1.71261
 Alpha  occ. eigenvalues --   -0.97488  -0.95070  -0.92458  -0.91542  -0.89547
 Alpha  occ. eigenvalues --   -0.87303  -0.86286  -0.85933  -0.84745  -0.84239
 Alpha  occ. eigenvalues --   -0.74156  -0.73403  -0.73100  -0.72873  -0.72023
 Alpha  occ. eigenvalues --   -0.71833  -0.71524  -0.70769  -0.70423  -0.70265
 Alpha  occ. eigenvalues --   -0.69783  -0.69192  -0.67912  -0.66933  -0.66745
 Alpha  occ. eigenvalues --   -0.66217  -0.65219  -0.64831  -0.64340  -0.64059
 Alpha  occ. eigenvalues --   -0.64006  -0.62610  -0.62402  -0.61542  -0.60648
 Alpha  occ. eigenvalues --   -0.60631  -0.60406  -0.59873  -0.59787  -0.58690
 Alpha  occ. eigenvalues --   -0.58083  -0.57783  -0.56729  -0.55893  -0.54057
 Alpha  occ. eigenvalues --   -0.53766  -0.53583  -0.52701  -0.52341  -0.51604
 Alpha  occ. eigenvalues --   -0.51329  -0.51099  -0.50662  -0.50132  -0.49804
 Alpha  occ. eigenvalues --   -0.49438  -0.48962  -0.48447  -0.47245  -0.46601
 Alpha  occ. eigenvalues --   -0.46203  -0.45867  -0.45261  -0.45025  -0.44208
 Alpha  occ. eigenvalues --   -0.43548  -0.43227  -0.42906  -0.42520  -0.42196
 Alpha  occ. eigenvalues --   -0.41885  -0.41653  -0.41350  -0.40944  -0.40652
 Alpha  occ. eigenvalues --   -0.40518  -0.40195  -0.40176  -0.39807  -0.39573
 Alpha  occ. eigenvalues --   -0.39460  -0.39386  -0.39155  -0.38975  -0.38918
 Alpha  occ. eigenvalues --   -0.38866  -0.38727  -0.38478  -0.37960  -0.37941
 Alpha  occ. eigenvalues --   -0.37763  -0.37577  -0.37344  -0.37269  -0.37254
 Alpha  occ. eigenvalues --   -0.36941  -0.36804  -0.36641  -0.36442  -0.36377
 Alpha  occ. eigenvalues --   -0.36094  -0.35948  -0.35833  -0.35537  -0.35297
 Alpha  occ. eigenvalues --   -0.35227  -0.35178  -0.35064  -0.34992  -0.34865
 Alpha  occ. eigenvalues --   -0.34749  -0.34402  -0.34108  -0.34083  -0.33734
 Alpha  occ. eigenvalues --   -0.33684  -0.33354  -0.33317  -0.33247  -0.32822
 Alpha  occ. eigenvalues --   -0.32705  -0.32653  -0.32595  -0.32540  -0.32261
 Alpha  occ. eigenvalues --   -0.32139  -0.32056  -0.31971  -0.31716  -0.31487
 Alpha  occ. eigenvalues --   -0.31295  -0.31026  -0.30901  -0.30843  -0.30629
 Alpha  occ. eigenvalues --   -0.30531  -0.30490  -0.30344  -0.29864  -0.29785
 Alpha  occ. eigenvalues --   -0.29615  -0.29538  -0.29326  -0.29083  -0.28666
 Alpha  occ. eigenvalues --   -0.28487  -0.28321  -0.28077  -0.27809  -0.27798
 Alpha  occ. eigenvalues --   -0.27543  -0.27503  -0.27200  -0.26677  -0.26430
 Alpha  occ. eigenvalues --   -0.26183  -0.25834  -0.25698  -0.25424  -0.25343
 Alpha  occ. eigenvalues --   -0.25095  -0.24884  -0.24308  -0.23677  -0.23426
 Alpha  occ. eigenvalues --   -0.23311  -0.22468  -0.22136  -0.21217  -0.20895
 Alpha  occ. eigenvalues --   -0.20268  -0.20092  -0.19308  -0.18938  -0.17449
 Alpha  occ. eigenvalues --   -0.15469
 Alpha virt. eigenvalues --   -0.11335  -0.07163  -0.06248  -0.04580  -0.03660
 Alpha virt. eigenvalues --   -0.02661  -0.02462  -0.01589  -0.01367   0.00332
 Alpha virt. eigenvalues --    0.01829   0.01936   0.02219   0.02488   0.02809

 Mulliken charges:
               1
     1  Mg   0.705628
     2  C   -0.013651
     3  C   -0.066914
     4  C   -0.038027
     5  C   -0.077185
     6  N   -0.258963
     7  C   -0.044526
     8  C    0.024882
     9  C    0.034571
    10  C   -0.005355
    11  C    0.115497
    12  C    0.113982
    13  C    0.196552
    14  C    0.040446
    15  O   -0.199188
    16  O   -0.289660
    17  N   -0.317093
    18  C    0.156858
    19  C   -0.149780
    20  C    0.070830
    21  C    0.127357
    22  C    0.151603
    23  C   -0.064777
    24  O   -0.154354
    25  C    0.087276
    26  N   -0.210768
    27  C   -0.021955
    28  C   -0.011509
    29  C    0.067257
    30  C   -0.022941
    31  C    0.128112
    32  C    0.089484
    33  C    0.029988
    34  N   -0.242095
    35  C    0.145073
    36  C   -0.114757
    37  C    0.024336
    38  C    0.100872
    39  C    0.139057
    40  C    0.000085
    41  O   -0.115964
    42  C    0.032598
    43  C    0.131419
    44  O   -0.203262
    45  O   -0.283199
    46  C    0.228210
    47  C    0.300049
    48  C   -0.107864
    49  C   -0.166245
    50  C    0.157490
    51  C    0.134054
    52  C    0.070657
    53  C    0.083712
    54  C   -0.030369
    55  C    0.097021
    56  C    0.095193
    57  C    0.088590
    58  C    0.135450
    59  C   -0.090217
    60  C    0.096565
    61  C    0.083328
    62  C    0.112064
    63  C    0.074607
    64  C   -0.121796
    65  C    0.142274
    66  C    0.099203
    67  H   -0.062457
    68  H   -0.049342
    69  H   -0.075740
    70  H    0.006117
    71  H   -0.022456
    72  H   -0.012460
    73  H    0.000335
    74  H    0.007853
    75  H   -0.030794
    76  H   -0.016554
    77  H   -0.012776
    78  H   -0.008856
    79  H   -0.028501
    80  H   -0.004830
    81  H    0.019140
    82  H    0.000258
    83  H    0.019793
    84  H    0.010228
    85  H   -0.009442
    86  H   -0.022033
    87  H   -0.003174
    88  H   -0.000038
    89  H   -0.004780
    90  H   -0.012126
    91  H   -0.011490
    92  H   -0.003190
    93  H   -0.003867
    94  H   -0.003754
    95  H    0.005192
    96  H   -0.016144
    97  H    0.002695
    98  H    0.000254
    99  H    0.021452
   100  H    0.016912
   101  H    0.022256
   102  H    0.015680
   103  H   -0.018180
   104  H   -0.043842
   105  H   -0.013303
   106  H    0.016201
   107  H   -0.000250
   108  H   -0.018241
   109  H   -0.047687
   110  H   -0.022960
   111  H   -0.021082
   112  H   -0.027998
   113  H   -0.032397
   114  H   -0.038783
   115  H   -0.016709
   116  H   -0.019309
   117  H   -0.027811
   118  H   -0.045537
   119  H   -0.060352
   120  H   -0.034011
   121  H   -0.040594
   122  H   -0.022487
   123  H   -0.035631
   124  H   -0.037948
   125  H   -0.014030
   126  H   -0.015695
   127  H   -0.027538
   128  H   -0.022742
   129  H   -0.030597
   130  H   -0.033234
   131  H   -0.038082
   132  H   -0.041009
   133  H   -0.043750
   134  H   -0.038861
   135  H   -0.020569
   136  H   -0.007921
   137  H   -0.018757
   138  H   -0.036749
   139  H   -0.018615
   140  H   -0.006125
 Sum of Mulliken charges =  -0.00000

 Dipole moment (field-independent basis, Debye):
    X=              3.1154    Y=              2.8404    Z=             -2.1154  Tot=              4.7169
 Quadrupole moment (field-independent basis, Debye-Ang):
   XX=           -387.9132   YY=           -431.0268   ZZ=           -405.7517
   XY=            -17.8709   XZ=              8.8997   YZ=              8.4211

 Normal termination of Gaussian 16 at Thu Apr 28 18:35:38 2022.
