 Gaussian 16, Revision A.03,
 Gaussian 16:  ES64L-G16RevA.03 25-Dec-2016

 -----------------------------------
 #p cam-b3lyp/Def2SVP td=(nstates=5)
 -----------------------------------

 -------------------------------------------------------
 step_1651_chromophore_6 TDDFT with cam-b3lyp functional
 -------------------------------------------------------
 Symbolic Z-matrix:
 Charge =  0 Multiplicity = 1

                         Standard orientation:
 ---------------------------------------------------------------------
 Center     Atomic      Atomic             Coordinates (Angstroms)
 Number     Number       Type             X           Y           Z
 ---------------------------------------------------------------------
      1         12           0       -5.566993    1.026047   -0.275770
      2          6           0       -4.560212   -2.295148    0.001807
      3          6           0       -2.319667    2.068037   -0.101164
      4          6           0       -6.706914    4.154677    0.003064
      5          6           0       -8.947374   -0.208956    0.059357
      6          7           0       -3.688921    0.037547    0.089223
      7          6           0       -3.496220   -1.386388    0.071083
      8          6           0       -1.959696   -1.670865   -0.075894
      9          6           0       -1.266270   -0.324992    0.133120
     10          6           0       -2.498109    0.670190   -0.017528
     11          6           0       -0.547194   -0.088399    1.526624
     12          6           0       -1.744855   -2.211756   -1.517152
     13          6           0       -0.610726   -3.186482   -1.821167
     14          6           0        0.214065   -3.679365   -0.624785
     15          8           0        0.019275   -4.645748    0.119690
     16          8           0        1.261796   -2.779257   -0.431349
     17          7           0       -4.685672    2.851571   -0.248040
     18          6           0       -3.337658    3.051977   -0.125450
     19          6           0       -3.101678    4.488855   -0.342589
     20          6           0       -4.327119    5.132129   -0.319166
     21          6           0       -5.315019    4.053146   -0.131172
     22          6           0       -1.634647    5.034965   -0.365674
     23          6           0       -4.634096    6.618847   -0.506069
     24          8           0       -5.781005    7.029617   -0.532609
     25          6           0       -3.534083    7.725491   -0.461892
     26          7           0       -7.586574    1.768397    0.084086
     27          6           0       -7.749489    3.189976    0.161625
     28          6           0       -9.202660    3.555505    0.440138
     29          6           0       -9.926821    2.169345    0.337887
     30          6           0       -8.769083    1.162779    0.136969
     31          6           0       -9.584908    4.280711    1.781673
     32          6           0      -10.958450    2.144412   -0.806449
     33          6           0      -12.410437    1.625065   -0.473917
     34          7           0       -6.596080   -0.792187   -0.059548
     35          6           0       -7.972997   -1.186647   -0.041632
     36          6           0       -8.116897   -2.611810   -0.032074
     37          6           0       -6.802014   -3.074729    0.035592
     38          6           0       -5.932198   -1.918114   -0.027028
     39          6           0       -9.420777   -3.388390   -0.036944
     40          6           0       -6.076030   -4.350554    0.132393
     41          8           0       -6.401075   -5.520021    0.235165
     42          6           0       -4.555198   -3.862748    0.020202
     43          6           0       -3.767408   -4.543461    1.152419
     44          8           0       -3.736744   -4.176904    2.329140
     45          8           0       -3.138487   -5.676824    0.697925
     46          6           0       -2.600964   -6.669849    1.698035
     47          6           0        1.987771   -3.074601    0.815380
     48          6           0        3.351110   -2.390396    0.667510
     49          6           0        4.444220   -2.686110   -0.103617
     50          6           0        4.389068   -3.792391   -1.163059
     51          6           0        5.764987   -1.979510    0.228686
     52          6           0        6.403163   -1.202565   -0.893237
     53          6           0        7.843208   -1.758405   -1.341337
     54          6           0        8.996274   -0.702970   -1.207021
     55          6           0        9.057699    0.283028   -2.394625
     56          6           0       10.355376   -1.368460   -0.896357
     57          6           0       11.478113   -0.542965   -0.290049
     58          6           0       12.753572   -0.500493   -1.176262
     59          6           0       13.546999    0.823249   -1.127230
     60          6           0       13.870615    1.381776   -2.582204
     61          6           0       14.922798    0.717267   -0.439280
     62          6           0       14.874270    0.625708    1.144584
     63          6           0       15.905581    1.518692    1.795795
     64          6           0       15.441306    2.993690    1.946503
     65          6           0       14.697050    3.192842    3.245443
     66          6           0       16.600932    3.975983    1.668915
     67          1           0       -1.290236    2.433423   -0.105211
     68          1           0       -7.151920    5.151883   -0.000764
     69          1           0      -10.001449   -0.485122    0.127330
     70          1           0       -1.668515   -2.438732    0.639714
     71          1           0       -0.610646   -0.014435   -0.680702
     72          1           0        0.474021    0.290997    1.476175
     73          1           0       -0.358455   -1.038822    2.027033
     74          1           0       -1.138379    0.606391    2.122721
     75          1           0       -1.625619   -1.318771   -2.130656
     76          1           0       -2.645216   -2.680713   -1.914468
     77          1           0        0.211401   -2.820082   -2.435338
     78          1           0       -0.946953   -4.085996   -2.336270
     79          1           0       -1.611786    6.023678   -0.822573
     80          1           0       -1.145289    4.351008   -1.059709
     81          1           0       -1.027339    5.037502    0.539958
     82          1           0       -4.099392    8.639120   -0.273889
     83          1           0       -3.025688    7.673806   -1.425342
     84          1           0       -2.761732    7.729109    0.306877
     85          1           0       -9.274766    4.259424   -0.388065
     86          1           0      -10.351077    2.020953    1.330641
     87          1           0       -8.852898    4.075829    2.563146
     88          1           0      -10.577832    3.950995    2.089338
     89          1           0       -9.568096    5.364261    1.666051
     90          1           0      -10.608674    1.448091   -1.569434
     91          1           0      -11.134096    3.149729   -1.190067
     92          1           0      -12.380317    0.936016    0.370628
     93          1           0      -12.968204    1.091018   -1.242988
     94          1           0      -12.886735    2.583858   -0.271552
     95          1           0       -9.211639   -4.247740   -0.674151
     96          1           0      -10.337207   -2.886254   -0.346367
     97          1           0       -9.802353   -3.904272    0.843791
     98          1           0       -4.155833   -4.121419   -0.960014
     99          1           0       -2.036706   -7.449847    1.187030
    100          1           0       -3.501687   -7.083920    2.151073
    101          1           0       -1.990121   -6.189273    2.462125
    102          1           0        2.160800   -4.127986    1.035842
    103          1           0        1.434686   -2.636502    1.645835
    104          1           0        3.449122   -1.640598    1.452330
    105          1           0        5.350190   -4.304712   -1.125901
    106          1           0        4.219181   -3.305502   -2.122420
    107          1           0        3.645930   -4.542053   -0.892470
    108          1           0        6.417810   -2.694663    0.729142
    109          1           0        5.592927   -1.269722    1.037349
    110          1           0        6.580507   -0.196695   -0.511200
    111          1           0        5.671015   -1.216621   -1.699752
    112          1           0        7.654876   -2.104630   -2.357007
    113          1           0        8.048113   -2.645895   -0.741369
    114          1           0        8.801724   -0.058826   -0.349716
    115          1           0        9.670958    0.089249   -3.275047
    116          1           0        9.330877    1.293676   -2.091062
    117          1           0        8.052152    0.346348   -2.808360
    118          1           0       10.726773   -1.961705   -1.731182
    119          1           0       10.074111   -2.216508   -0.270748
    120          1           0       11.656463   -0.968691    0.698369
    121          1           0       11.209793    0.468942    0.012641
    122          1           0       12.492061   -0.794640   -2.193273
    123          1           0       13.406745   -1.275276   -0.774189
    124          1           0       12.930799    1.547132   -0.594036
    125          1           0       13.133800    2.134885   -2.860329
    126          1           0       13.896155    0.632844   -3.373963
    127          1           0       14.867744    1.820259   -2.564174
    128          1           0       15.533529    1.578455   -0.708075
    129          1           0       15.370449   -0.168035   -0.890381
    130          1           0       15.058199   -0.385731    1.507323
    131          1           0       13.964300    1.029547    1.588106
    132          1           0       16.839708    1.520542    1.233230
    133          1           0       16.100290    1.143284    2.800042
    134          1           0       14.846211    3.193705    1.055489
    135          1           0       14.773820    4.176592    3.707290
    136          1           0       14.815022    2.378929    3.960576
    137          1           0       13.677561    3.194835    2.860443
    138          1           0       16.227174    4.940920    2.010983
    139          1           0       16.756932    4.217288    0.617493
    140          1           0       17.475655    3.654193    2.234942
 ---------------------------------------------------------------------

 SCF Done:  E(RCAM-B3LYP) =  -3007.17567042     A.U. after   19 cycles

 Excitation energies and oscillator strengths:

 Excited State   1:      Singlet-A      1.6718 eV  741.64 nm  f=0.3779  <S**2>=0.000
     245 -> 248       -0.17140
     246 -> 247        0.68713
     245 <- 248       -0.10432
 This state for optimization and/or second-order correction.
 Total Energy, E(TD-HF/TD-DFT) =  -3007.11423448
 Copying the excited state density for this state as the 1-particle RhoCI density.

 Excited State   2:      Singlet-A      2.3073 eV  537.36 nm  f=0.0603  <S**2>=0.000
     245 -> 247        0.60383
     246 -> 248        0.35507

 Excited State   3:      Singlet-A      3.4012 eV  364.54 nm  f=0.6938  <S**2>=0.000
     241 -> 247       -0.13189
     245 -> 247       -0.33781
     246 -> 248        0.59763
     245 <- 247        0.10549

 Excited State   4:      Singlet-A      3.6145 eV  343.02 nm  f=0.0003  <S**2>=0.000
     241 -> 249        0.10972
     242 -> 247        0.29769
     243 -> 247        0.52074
     244 -> 247        0.27506

 Excited State   5:      Singlet-A      3.6624 eV  338.54 nm  f=0.0024  <S**2>=0.000
     241 -> 247        0.33365
     241 -> 249        0.13418
     241 -> 250        0.11393
     242 -> 247        0.39744
     242 -> 249        0.23211
     242 -> 250        0.18589
     243 -> 247       -0.24752
     244 -> 247       -0.13120

 The electronic state is 1-A.
 Alpha  occ. eigenvalues --  -46.88317 -19.25278 -19.23095 -19.20448 -19.19795
 Alpha  occ. eigenvalues --  -19.19224 -19.18175 -14.42305 -14.41770 -14.39900
 Alpha  occ. eigenvalues --  -14.39199 -10.39645 -10.38301 -10.36150 -10.35165
 Alpha  occ. eigenvalues --  -10.31866 -10.31590 -10.31510 -10.31172 -10.30613
 Alpha  occ. eigenvalues --  -10.30541 -10.30441 -10.29793 -10.29095 -10.28856
 Alpha  occ. eigenvalues --  -10.28835 -10.28564 -10.28486 -10.28251 -10.27999
 Alpha  occ. eigenvalues --  -10.27866 -10.27751 -10.27698 -10.27674 -10.27634
 Alpha  occ. eigenvalues --  -10.27614 -10.27578 -10.27507 -10.26920 -10.26692
 Alpha  occ. eigenvalues --  -10.26598 -10.26369 -10.26337 -10.26300 -10.26285
 Alpha  occ. eigenvalues --  -10.26267 -10.26138 -10.26062 -10.25676 -10.25676
 Alpha  occ. eigenvalues --  -10.25649 -10.25622 -10.25572 -10.25484 -10.25233
 Alpha  occ. eigenvalues --  -10.25066 -10.24999 -10.24851 -10.24765 -10.24726
 Alpha  occ. eigenvalues --  -10.24508 -10.24495 -10.24468 -10.24452 -10.24185
 Alpha  occ. eigenvalues --  -10.24122  -3.16925  -1.91819  -1.91377  -1.91240
 Alpha  occ. eigenvalues --   -1.15897  -1.13447  -1.11112  -1.09783  -1.07351
 Alpha  occ. eigenvalues --   -1.05061  -1.03992  -1.03483  -1.02307  -1.01705
 Alpha  occ. eigenvalues --   -0.91101  -0.90254  -0.89909  -0.89659  -0.88735
 Alpha  occ. eigenvalues --   -0.88376  -0.88232  -0.87354  -0.87024  -0.86763
 Alpha  occ. eigenvalues --   -0.86431  -0.85532  -0.84167  -0.83010  -0.82820
 Alpha  occ. eigenvalues --   -0.82267  -0.81241  -0.80840  -0.80368  -0.79844
 Alpha  occ. eigenvalues --   -0.79698  -0.78352  -0.78026  -0.76949  -0.76056
 Alpha  occ. eigenvalues --   -0.76003  -0.75713  -0.75138  -0.75112  -0.73924
 Alpha  occ. eigenvalues --   -0.73098  -0.72787  -0.71635  -0.70720  -0.68688
 Alpha  occ. eigenvalues --   -0.68310  -0.68166  -0.67193  -0.66775  -0.65689
 Alpha  occ. eigenvalues --   -0.65479  -0.65292  -0.64694  -0.64167  -0.63609
 Alpha  occ. eigenvalues --   -0.63163  -0.62887  -0.62345  -0.60780  -0.60249
 Alpha  occ. eigenvalues --   -0.59780  -0.59304  -0.58689  -0.58255  -0.57533
 Alpha  occ. eigenvalues --   -0.56825  -0.56541  -0.56217  -0.55741  -0.55251
 Alpha  occ. eigenvalues --   -0.54994  -0.54706  -0.54413  -0.53713  -0.53497
 Alpha  occ. eigenvalues --   -0.53276  -0.53030  -0.52784  -0.52413  -0.52289
 Alpha  occ. eigenvalues --   -0.52249  -0.52054  -0.51951  -0.51718  -0.51438
 Alpha  occ. eigenvalues --   -0.51348  -0.51257  -0.50966  -0.50455  -0.50380
 Alpha  occ. eigenvalues --   -0.50076  -0.49965  -0.49865  -0.49723  -0.49543
 Alpha  occ. eigenvalues --   -0.49439  -0.49119  -0.48983  -0.48765  -0.48477
 Alpha  occ. eigenvalues --   -0.48273  -0.48140  -0.48098  -0.47751  -0.47664
 Alpha  occ. eigenvalues --   -0.47387  -0.47243  -0.47161  -0.47021  -0.46672
 Alpha  occ. eigenvalues --   -0.46558  -0.46373  -0.45874  -0.45787  -0.45467
 Alpha  occ. eigenvalues --   -0.45308  -0.45190  -0.45030  -0.44932  -0.44553
 Alpha  occ. eigenvalues --   -0.44416  -0.44328  -0.44085  -0.44039  -0.43988
 Alpha  occ. eigenvalues --   -0.43896  -0.43782  -0.43670  -0.43446  -0.43006
 Alpha  occ. eigenvalues --   -0.42958  -0.42685  -0.42495  -0.42358  -0.42000
 Alpha  occ. eigenvalues --   -0.41897  -0.41765  -0.41618  -0.41086  -0.41018
 Alpha  occ. eigenvalues --   -0.40748  -0.40691  -0.40428  -0.40327  -0.39928
 Alpha  occ. eigenvalues --   -0.39609  -0.39470  -0.39291  -0.39099  -0.38637
 Alpha  occ. eigenvalues --   -0.38363  -0.38311  -0.37995  -0.37839  -0.37224
 Alpha  occ. eigenvalues --   -0.37113  -0.36849  -0.36439  -0.36152  -0.36089
 Alpha  occ. eigenvalues --   -0.35610  -0.35497  -0.34903  -0.34770  -0.34270
 Alpha  occ. eigenvalues --   -0.34148  -0.33208  -0.32567  -0.31822  -0.31506
 Alpha  occ. eigenvalues --   -0.30683  -0.30500  -0.29989  -0.29906  -0.24347
 Alpha  occ. eigenvalues --   -0.20571
 Alpha virt. eigenvalues --   -0.08262  -0.01915   0.00273   0.02388   0.02467
 Alpha virt. eigenvalues --    0.04270   0.04785   0.05680   0.06471   0.07356
 Alpha virt. eigenvalues --    0.07985   0.08296   0.08620   0.08979   0.09223

 Mulliken charges:
               1
     1  Mg   0.837798
     2  C   -0.042773
     3  C   -0.092656
     4  C   -0.056831
     5  C   -0.075349
     6  N   -0.331663
     7  C    0.003179
     8  C   -0.033046
     9  C   -0.016465
    10  C    0.019821
    11  C    0.062516
    12  C    0.062156
    13  C    0.131289
    14  C    0.114752
    15  O   -0.239381
    16  O   -0.350721
    17  N   -0.403691
    18  C    0.169659
    19  C   -0.155639
    20  C    0.004892
    21  C    0.146126
    22  C    0.099081
    23  C    0.012083
    24  O   -0.193419
    25  C    0.011348
    26  N   -0.277522
    27  C    0.002800
    28  C   -0.063242
    29  C    0.007359
    30  C   -0.007396
    31  C    0.070870
    32  C    0.031355
    33  C   -0.025639
    34  N   -0.328330
    35  C    0.136801
    36  C   -0.111988
    37  C   -0.059409
    38  C    0.138086
    39  C    0.092671
    40  C    0.098630
    41  O   -0.156533
    42  C   -0.031482
    43  C    0.213805
    44  O   -0.240658
    45  O   -0.347988
    46  C    0.190937
    47  C    0.268744
    48  C   -0.132315
    49  C   -0.184148
    50  C    0.099967
    51  C    0.076544
    52  C    0.012988
    53  C    0.031279
    54  C   -0.087892
    55  C    0.041305
    56  C    0.041402
    57  C    0.034360
    58  C    0.079606
    59  C   -0.144106
    60  C    0.041716
    61  C    0.030248
    62  C    0.059966
    63  C    0.017727
    64  C   -0.179908
    65  C    0.075349
    66  C    0.043130
    67  H   -0.026938
    68  H   -0.009160
    69  H   -0.040093
    70  H    0.036531
    71  H    0.013701
    72  H    0.011491
    73  H    0.021072
    74  H    0.034183
    75  H    0.000556
    76  H    0.014007
    77  H    0.021248
    78  H    0.024954
    79  H   -0.001729
    80  H    0.021485
    81  H    0.046170
    82  H    0.034813
    83  H    0.044678
    84  H    0.038987
    85  H    0.022640
    86  H    0.013285
    87  H    0.022172
    88  H    0.022405
    89  H    0.019169
    90  H    0.017176
    91  H    0.015878
    92  H    0.016177
    93  H    0.020460
    94  H    0.017487
    95  H    0.029884
    96  H    0.008500
    97  H    0.029484
    98  H    0.040564
    99  H    0.044187
   100  H    0.039352
   101  H    0.045628
   102  H    0.045682
   103  H    0.008236
   104  H   -0.012909
   105  H    0.010380
   106  H    0.038484
   107  H    0.023054
   108  H    0.010407
   109  H   -0.014033
   110  H    0.005397
   111  H    0.006890
   112  H    0.000620
   113  H   -0.005110
   114  H   -0.007853
   115  H    0.006746
   116  H    0.004321
   117  H   -0.004281
   118  H   -0.016279
   119  H   -0.028321
   120  H   -0.004782
   121  H   -0.013185
   122  H    0.004565
   123  H   -0.006647
   124  H   -0.008413
   125  H    0.009788
   126  H    0.007742
   127  H   -0.002847
   128  H    0.002531
   129  H   -0.001537
   130  H   -0.003415
   131  H   -0.012943
   132  H   -0.010678
   133  H   -0.013815
   134  H   -0.008781
   135  H    0.006351
   136  H    0.016477
   137  H    0.005120
   138  H   -0.011803
   139  H    0.005847
   140  H    0.016441
 Sum of Mulliken charges =  -0.00000

 Dipole moment (field-independent basis, Debye):
    X=              3.6341    Y=              3.6436    Z=             -2.2539  Tot=              5.6180
 Quadrupole moment (field-independent basis, Debye-Ang):
   XX=           -389.5102   YY=           -425.6417   ZZ=           -405.6625
   XY=            -20.0794   XZ=              9.4805   YZ=              8.6464

 Normal termination of Gaussian 16 at Thu Apr 28 17:35:10 2022.
