 Gaussian 16, Revision A.03,
 Gaussian 16:  ES64L-G16RevA.03 25-Dec-2016

 ---------------------------------
 #p PBE1PBE/Def2SVP td=(nstates=5)
 ---------------------------------

 -----------------------------------------------------
 step_1651_chromophore_6 TDDFT with PBE1PBE functional
 -----------------------------------------------------
 Symbolic Z-matrix:
 Charge =  0 Multiplicity = 1

                         Standard orientation:
 ---------------------------------------------------------------------
 Center     Atomic      Atomic             Coordinates (Angstroms)
 Number     Number       Type             X           Y           Z
 ---------------------------------------------------------------------
      1         12           0       -5.566993    1.026047   -0.275770
      2          6           0       -4.560212   -2.295148    0.001807
      3          6           0       -2.319667    2.068037   -0.101164
      4          6           0       -6.706914    4.154677    0.003064
      5          6           0       -8.947374   -0.208956    0.059357
      6          7           0       -3.688921    0.037547    0.089223
      7          6           0       -3.496220   -1.386388    0.071083
      8          6           0       -1.959696   -1.670865   -0.075894
      9          6           0       -1.266270   -0.324992    0.133120
     10          6           0       -2.498109    0.670190   -0.017528
     11          6           0       -0.547194   -0.088399    1.526624
     12          6           0       -1.744855   -2.211756   -1.517152
     13          6           0       -0.610726   -3.186482   -1.821167
     14          6           0        0.214065   -3.679365   -0.624785
     15          8           0        0.019275   -4.645748    0.119690
     16          8           0        1.261796   -2.779257   -0.431349
     17          7           0       -4.685672    2.851571   -0.248040
     18          6           0       -3.337658    3.051977   -0.125450
     19          6           0       -3.101678    4.488855   -0.342589
     20          6           0       -4.327119    5.132129   -0.319166
     21          6           0       -5.315019    4.053146   -0.131172
     22          6           0       -1.634647    5.034965   -0.365674
     23          6           0       -4.634096    6.618847   -0.506069
     24          8           0       -5.781005    7.029617   -0.532609
     25          6           0       -3.534083    7.725491   -0.461892
     26          7           0       -7.586574    1.768397    0.084086
     27          6           0       -7.749489    3.189976    0.161625
     28          6           0       -9.202660    3.555505    0.440138
     29          6           0       -9.926821    2.169345    0.337887
     30          6           0       -8.769083    1.162779    0.136969
     31          6           0       -9.584908    4.280711    1.781673
     32          6           0      -10.958450    2.144412   -0.806449
     33          6           0      -12.410437    1.625065   -0.473917
     34          7           0       -6.596080   -0.792187   -0.059548
     35          6           0       -7.972997   -1.186647   -0.041632
     36          6           0       -8.116897   -2.611810   -0.032074
     37          6           0       -6.802014   -3.074729    0.035592
     38          6           0       -5.932198   -1.918114   -0.027028
     39          6           0       -9.420777   -3.388390   -0.036944
     40          6           0       -6.076030   -4.350554    0.132393
     41          8           0       -6.401075   -5.520021    0.235165
     42          6           0       -4.555198   -3.862748    0.020202
     43          6           0       -3.767408   -4.543461    1.152419
     44          8           0       -3.736744   -4.176904    2.329140
     45          8           0       -3.138487   -5.676824    0.697925
     46          6           0       -2.600964   -6.669849    1.698035
     47          6           0        1.987771   -3.074601    0.815380
     48          6           0        3.351110   -2.390396    0.667510
     49          6           0        4.444220   -2.686110   -0.103617
     50          6           0        4.389068   -3.792391   -1.163059
     51          6           0        5.764987   -1.979510    0.228686
     52          6           0        6.403163   -1.202565   -0.893237
     53          6           0        7.843208   -1.758405   -1.341337
     54          6           0        8.996274   -0.702970   -1.207021
     55          6           0        9.057699    0.283028   -2.394625
     56          6           0       10.355376   -1.368460   -0.896357
     57          6           0       11.478113   -0.542965   -0.290049
     58          6           0       12.753572   -0.500493   -1.176262
     59          6           0       13.546999    0.823249   -1.127230
     60          6           0       13.870615    1.381776   -2.582204
     61          6           0       14.922798    0.717267   -0.439280
     62          6           0       14.874270    0.625708    1.144584
     63          6           0       15.905581    1.518692    1.795795
     64          6           0       15.441306    2.993690    1.946503
     65          6           0       14.697050    3.192842    3.245443
     66          6           0       16.600932    3.975983    1.668915
     67          1           0       -1.290236    2.433423   -0.105211
     68          1           0       -7.151920    5.151883   -0.000764
     69          1           0      -10.001449   -0.485122    0.127330
     70          1           0       -1.668515   -2.438732    0.639714
     71          1           0       -0.610646   -0.014435   -0.680702
     72          1           0        0.474021    0.290997    1.476175
     73          1           0       -0.358455   -1.038822    2.027033
     74          1           0       -1.138379    0.606391    2.122721
     75          1           0       -1.625619   -1.318771   -2.130656
     76          1           0       -2.645216   -2.680713   -1.914468
     77          1           0        0.211401   -2.820082   -2.435338
     78          1           0       -0.946953   -4.085996   -2.336270
     79          1           0       -1.611786    6.023678   -0.822573
     80          1           0       -1.145289    4.351008   -1.059709
     81          1           0       -1.027339    5.037502    0.539958
     82          1           0       -4.099392    8.639120   -0.273889
     83          1           0       -3.025688    7.673806   -1.425342
     84          1           0       -2.761732    7.729109    0.306877
     85          1           0       -9.274766    4.259424   -0.388065
     86          1           0      -10.351077    2.020953    1.330641
     87          1           0       -8.852898    4.075829    2.563146
     88          1           0      -10.577832    3.950995    2.089338
     89          1           0       -9.568096    5.364261    1.666051
     90          1           0      -10.608674    1.448091   -1.569434
     91          1           0      -11.134096    3.149729   -1.190067
     92          1           0      -12.380317    0.936016    0.370628
     93          1           0      -12.968204    1.091018   -1.242988
     94          1           0      -12.886735    2.583858   -0.271552
     95          1           0       -9.211639   -4.247740   -0.674151
     96          1           0      -10.337207   -2.886254   -0.346367
     97          1           0       -9.802353   -3.904272    0.843791
     98          1           0       -4.155833   -4.121419   -0.960014
     99          1           0       -2.036706   -7.449847    1.187030
    100          1           0       -3.501687   -7.083920    2.151073
    101          1           0       -1.990121   -6.189273    2.462125
    102          1           0        2.160800   -4.127986    1.035842
    103          1           0        1.434686   -2.636502    1.645835
    104          1           0        3.449122   -1.640598    1.452330
    105          1           0        5.350190   -4.304712   -1.125901
    106          1           0        4.219181   -3.305502   -2.122420
    107          1           0        3.645930   -4.542053   -0.892470
    108          1           0        6.417810   -2.694663    0.729142
    109          1           0        5.592927   -1.269722    1.037349
    110          1           0        6.580507   -0.196695   -0.511200
    111          1           0        5.671015   -1.216621   -1.699752
    112          1           0        7.654876   -2.104630   -2.357007
    113          1           0        8.048113   -2.645895   -0.741369
    114          1           0        8.801724   -0.058826   -0.349716
    115          1           0        9.670958    0.089249   -3.275047
    116          1           0        9.330877    1.293676   -2.091062
    117          1           0        8.052152    0.346348   -2.808360
    118          1           0       10.726773   -1.961705   -1.731182
    119          1           0       10.074111   -2.216508   -0.270748
    120          1           0       11.656463   -0.968691    0.698369
    121          1           0       11.209793    0.468942    0.012641
    122          1           0       12.492061   -0.794640   -2.193273
    123          1           0       13.406745   -1.275276   -0.774189
    124          1           0       12.930799    1.547132   -0.594036
    125          1           0       13.133800    2.134885   -2.860329
    126          1           0       13.896155    0.632844   -3.373963
    127          1           0       14.867744    1.820259   -2.564174
    128          1           0       15.533529    1.578455   -0.708075
    129          1           0       15.370449   -0.168035   -0.890381
    130          1           0       15.058199   -0.385731    1.507323
    131          1           0       13.964300    1.029547    1.588106
    132          1           0       16.839708    1.520542    1.233230
    133          1           0       16.100290    1.143284    2.800042
    134          1           0       14.846211    3.193705    1.055489
    135          1           0       14.773820    4.176592    3.707290
    136          1           0       14.815022    2.378929    3.960576
    137          1           0       13.677561    3.194835    2.860443
    138          1           0       16.227174    4.940920    2.010983
    139          1           0       16.756932    4.217288    0.617493
    140          1           0       17.475655    3.654193    2.234942
 ---------------------------------------------------------------------

 SCF Done:  E(RPBE1PBE) =  -3005.36276223     A.U. after   16 cycles

 Excitation energies and oscillator strengths:

 Excited State   1:      Singlet-A      1.8223 eV  680.37 nm  f=0.3662  <S**2>=0.000
     245 -> 248       -0.16340
     246 -> 247        0.69468
     246 <- 247       -0.11205
 This state for optimization and/or second-order correction.
 Total Energy, E(TD-HF/TD-DFT) =  -3005.29579403
 Copying the excited state density for this state as the 1-particle RhoCI density.

 Excited State   2:      Singlet-A      2.2944 eV  540.37 nm  f=0.0675  <S**2>=0.000
     245 -> 247        0.62119
     246 -> 248        0.32375

 Excited State   3:      Singlet-A      3.1231 eV  397.00 nm  f=0.0301  <S**2>=0.000
     243 -> 247        0.64517
     243 -> 249        0.15626
     243 -> 250        0.10213
     246 -> 248       -0.16754

 Excited State   4:      Singlet-A      3.1945 eV  388.12 nm  f=0.3039  <S**2>=0.000
     242 -> 247       -0.20696
     243 -> 247        0.15693
     245 -> 247       -0.24917
     246 -> 248        0.54704
     246 -> 249        0.17563
     246 -> 250       -0.12299

 Excited State   5:      Singlet-A      3.2616 eV  380.14 nm  f=0.0338  <S**2>=0.000
     241 -> 247       -0.20757
     242 -> 247        0.62920
     243 -> 247        0.11528
     246 -> 248        0.12687

 The electronic state is 1-A.
 Alpha  occ. eigenvalues --  -46.91740 -19.25973 -19.23814 -19.20741 -19.19865
 Alpha  occ. eigenvalues --  -19.19570 -19.18457 -14.41952 -14.41223 -14.39493
 Alpha  occ. eigenvalues --  -14.38911 -10.36720 -10.35368 -10.33184 -10.32411
 Alpha  occ. eigenvalues --  -10.29460 -10.29282 -10.29122 -10.28926 -10.28151
 Alpha  occ. eigenvalues --  -10.27940 -10.27869 -10.27691 -10.27049 -10.26604
 Alpha  occ. eigenvalues --  -10.26409 -10.26333 -10.26291 -10.25978 -10.25798
 Alpha  occ. eigenvalues --  -10.25778 -10.25481 -10.25472 -10.25341 -10.25309
 Alpha  occ. eigenvalues --  -10.25235 -10.25211 -10.24841 -10.24641 -10.24253
 Alpha  occ. eigenvalues --  -10.24058 -10.23987 -10.23894 -10.23790 -10.23724
 Alpha  occ. eigenvalues --  -10.23645 -10.23641 -10.23577 -10.23379 -10.23254
 Alpha  occ. eigenvalues --  -10.23242 -10.23218 -10.23133 -10.23003 -10.22966
 Alpha  occ. eigenvalues --  -10.22886 -10.22569 -10.22376 -10.22286 -10.22268
 Alpha  occ. eigenvalues --  -10.22048 -10.21879 -10.21864 -10.21852 -10.21666
 Alpha  occ. eigenvalues --  -10.21569  -3.13924  -1.86759  -1.86296  -1.86161
 Alpha  occ. eigenvalues --   -1.10692  -1.08252  -1.05723  -1.04646  -1.02217
 Alpha  occ. eigenvalues --   -0.99937  -0.98603  -0.98205  -0.96907  -0.96344
 Alpha  occ. eigenvalues --   -0.85487  -0.84396  -0.84046  -0.83804  -0.82846
 Alpha  occ. eigenvalues --   -0.82710  -0.82530  -0.81470  -0.81352  -0.81090
 Alpha  occ. eigenvalues --   -0.80727  -0.79758  -0.78340  -0.77287  -0.77165
 Alpha  occ. eigenvalues --   -0.76466  -0.75440  -0.74968  -0.74487  -0.74076
 Alpha  occ. eigenvalues --   -0.74022  -0.72600  -0.72262  -0.71286  -0.70198
 Alpha  occ. eigenvalues --   -0.70141  -0.70007  -0.69490  -0.69246  -0.68073
 Alpha  occ. eigenvalues --   -0.67529  -0.67128  -0.66055  -0.65028  -0.63050
 Alpha  occ. eigenvalues --   -0.62663  -0.62511  -0.61655  -0.60970  -0.60174
 Alpha  occ. eigenvalues --   -0.59899  -0.59540  -0.59242  -0.58276  -0.58232
 Alpha  occ. eigenvalues --   -0.57699  -0.57073  -0.56504  -0.55415  -0.54794
 Alpha  occ. eigenvalues --   -0.54328  -0.53741  -0.53328  -0.52903  -0.52150
 Alpha  occ. eigenvalues --   -0.51209  -0.51015  -0.50767  -0.50283  -0.49758
 Alpha  occ. eigenvalues --   -0.49586  -0.49028  -0.48996  -0.48253  -0.48004
 Alpha  occ. eigenvalues --   -0.47765  -0.47623  -0.47244  -0.46895  -0.46754
 Alpha  occ. eigenvalues --   -0.46673  -0.46606  -0.46455  -0.46247  -0.46025
 Alpha  occ. eigenvalues --   -0.45952  -0.45789  -0.45501  -0.45096  -0.44925
 Alpha  occ. eigenvalues --   -0.44616  -0.44581  -0.44450  -0.44295  -0.44123
 Alpha  occ. eigenvalues --   -0.43999  -0.43745  -0.43590  -0.43362  -0.43085
 Alpha  occ. eigenvalues --   -0.42858  -0.42754  -0.42657  -0.42471  -0.42310
 Alpha  occ. eigenvalues --   -0.42049  -0.41837  -0.41813  -0.41688  -0.41282
 Alpha  occ. eigenvalues --   -0.41147  -0.41116  -0.40662  -0.40393  -0.40256
 Alpha  occ. eigenvalues --   -0.40016  -0.39911  -0.39803  -0.39653  -0.39267
 Alpha  occ. eigenvalues --   -0.39166  -0.39100  -0.38840  -0.38778  -0.38746
 Alpha  occ. eigenvalues --   -0.38583  -0.38540  -0.38465  -0.38267  -0.37776
 Alpha  occ. eigenvalues --   -0.37665  -0.37379  -0.37320  -0.37094  -0.36879
 Alpha  occ. eigenvalues --   -0.36726  -0.36559  -0.36488  -0.35927  -0.35845
 Alpha  occ. eigenvalues --   -0.35668  -0.35423  -0.35206  -0.35140  -0.34816
 Alpha  occ. eigenvalues --   -0.34530  -0.34307  -0.34076  -0.34049  -0.33450
 Alpha  occ. eigenvalues --   -0.33294  -0.33234  -0.32859  -0.32772  -0.32167
 Alpha  occ. eigenvalues --   -0.31969  -0.31906  -0.31340  -0.31252  -0.30937
 Alpha  occ. eigenvalues --   -0.30545  -0.30319  -0.29829  -0.29664  -0.29408
 Alpha  occ. eigenvalues --   -0.29117  -0.28732  -0.27540  -0.27101  -0.26419
 Alpha  occ. eigenvalues --   -0.26186  -0.25685  -0.25578  -0.25234  -0.21195
 Alpha  occ. eigenvalues --   -0.18286
 Alpha virt. eigenvalues --   -0.10820  -0.05443  -0.03949  -0.02006  -0.00487
 Alpha virt. eigenvalues --   -0.00125   0.00288   0.01265   0.01770   0.03444
 Alpha virt. eigenvalues --    0.04424   0.04997   0.05225   0.05405   0.05727

 Mulliken charges:
               1
     1  Mg   0.987232
     2  C   -0.050972
     3  C   -0.084998
     4  C   -0.055064
     5  C   -0.071650
     6  N   -0.429840
     7  C    0.079251
     8  C   -0.119831
     9  C   -0.083838
    10  C    0.052552
    11  C    0.006401
    12  C    0.016045
    13  C    0.062934
    14  C    0.171749
    15  O   -0.270929
    16  O   -0.375216
    17  N   -0.514584
    18  C    0.186709
    19  C   -0.174614
    20  C   -0.050376
    21  C    0.168480
    22  C    0.039158
    23  C    0.065138
    24  O   -0.229738
    25  C   -0.060998
    26  N   -0.381214
    27  C    0.041716
    28  C   -0.131071
    29  C   -0.077583
    30  C    0.041332
    31  C    0.010018
    32  C   -0.027914
    33  C   -0.095777
    34  N   -0.455107
    35  C    0.146430
    36  C   -0.121705
    37  C   -0.108073
    38  C    0.188745
    39  C    0.048225
    40  C    0.184950
    41  O   -0.202798
    42  C   -0.126554
    43  C    0.297946
    44  O   -0.275075
    45  O   -0.379654
    46  C    0.136392
    47  C    0.221424
    48  C   -0.143381
    49  C   -0.227237
    50  C    0.037820
    51  C    0.019061
    52  C   -0.052739
    53  C   -0.022878
    54  C   -0.180076
    55  C   -0.012658
    56  C   -0.011545
    57  C   -0.024442
    58  C    0.029038
    59  C   -0.230263
    60  C   -0.016520
    61  C   -0.029374
    62  C   -0.003649
    63  C   -0.039132
    64  C   -0.272298
    65  C    0.014935
    66  C   -0.019614
    67  H    0.004571
    68  H    0.022723
    69  H   -0.005864
    70  H    0.075757
    71  H    0.049087
    72  H    0.038295
    73  H    0.048706
    74  H    0.061553
    75  H    0.033707
    76  H    0.047764
    77  H    0.052905
    78  H    0.056295
    79  H    0.028132
    80  H    0.048493
    81  H    0.071926
    82  H    0.061517
    83  H    0.070327
    84  H    0.064251
    85  H    0.058716
    86  H    0.050902
    87  H    0.050539
    88  H    0.049503
    89  H    0.046709
    90  H    0.050299
    91  H    0.048417
    92  H    0.042462
    93  H    0.048005
    94  H    0.045661
    95  H    0.057369
    96  H    0.034550
    97  H    0.056275
    98  H    0.078965
    99  H    0.065363
   100  H    0.061371
   101  H    0.066372
   102  H    0.071510
   103  H    0.037531
   104  H    0.016583
   105  H    0.038654
   106  H    0.065055
   107  H    0.050743
   108  H    0.042475
   109  H    0.018216
   110  H    0.037861
   111  H    0.040209
   112  H    0.033281
   113  H    0.025467
   114  H    0.030827
   115  H    0.033260
   116  H    0.031284
   117  H    0.024194
   118  H    0.016172
   119  H    0.005309
   120  H    0.027863
   121  H    0.017421
   122  H    0.035434
   123  H    0.026713
   124  H    0.028698
   125  H    0.037549
   126  H    0.034559
   127  H    0.024355
   128  H    0.034272
   129  H    0.031959
   130  H    0.028978
   131  H    0.021918
   132  H    0.022702
   133  H    0.019641
   134  H    0.031885
   135  H    0.033680
   136  H    0.042416
   137  H    0.032398
   138  H    0.017254
   139  H    0.033353
   140  H    0.043998
 Sum of Mulliken charges =  -0.00000

 Dipole moment (field-independent basis, Debye):
    X=              3.4554    Y=              3.3795    Z=             -2.2221  Tot=              5.3196
 Quadrupole moment (field-independent basis, Debye-Ang):
   XX=           -382.0064   YY=           -423.5716   ZZ=           -403.2892
   XY=            -19.0985   XZ=              9.1986   YZ=              8.9166

 Normal termination of Gaussian 16 at Thu Apr 28 17:54:40 2022.
