 Gaussian 16, Revision A.03,
 Gaussian 16:  ES64L-G16RevA.03 25-Dec-2016

 --------------------------------
 #p wB97XD/Def2SVP td=(nstates=5)
 --------------------------------

 ----------------------------------------------------
 step_1651_chromophore_6 TDDFT with wB97XD functional
 ----------------------------------------------------
 Symbolic Z-matrix:
 Charge =  0 Multiplicity = 1

                         Standard orientation:
 ---------------------------------------------------------------------
 Center     Atomic      Atomic             Coordinates (Angstroms)
 Number     Number       Type             X           Y           Z
 ---------------------------------------------------------------------
      1         12           0       -5.566993    1.026047   -0.275770
      2          6           0       -4.560212   -2.295148    0.001807
      3          6           0       -2.319667    2.068037   -0.101164
      4          6           0       -6.706914    4.154677    0.003064
      5          6           0       -8.947374   -0.208956    0.059357
      6          7           0       -3.688921    0.037547    0.089223
      7          6           0       -3.496220   -1.386388    0.071083
      8          6           0       -1.959696   -1.670865   -0.075894
      9          6           0       -1.266270   -0.324992    0.133120
     10          6           0       -2.498109    0.670190   -0.017528
     11          6           0       -0.547194   -0.088399    1.526624
     12          6           0       -1.744855   -2.211756   -1.517152
     13          6           0       -0.610726   -3.186482   -1.821167
     14          6           0        0.214065   -3.679365   -0.624785
     15          8           0        0.019275   -4.645748    0.119690
     16          8           0        1.261796   -2.779257   -0.431349
     17          7           0       -4.685672    2.851571   -0.248040
     18          6           0       -3.337658    3.051977   -0.125450
     19          6           0       -3.101678    4.488855   -0.342589
     20          6           0       -4.327119    5.132129   -0.319166
     21          6           0       -5.315019    4.053146   -0.131172
     22          6           0       -1.634647    5.034965   -0.365674
     23          6           0       -4.634096    6.618847   -0.506069
     24          8           0       -5.781005    7.029617   -0.532609
     25          6           0       -3.534083    7.725491   -0.461892
     26          7           0       -7.586574    1.768397    0.084086
     27          6           0       -7.749489    3.189976    0.161625
     28          6           0       -9.202660    3.555505    0.440138
     29          6           0       -9.926821    2.169345    0.337887
     30          6           0       -8.769083    1.162779    0.136969
     31          6           0       -9.584908    4.280711    1.781673
     32          6           0      -10.958450    2.144412   -0.806449
     33          6           0      -12.410437    1.625065   -0.473917
     34          7           0       -6.596080   -0.792187   -0.059548
     35          6           0       -7.972997   -1.186647   -0.041632
     36          6           0       -8.116897   -2.611810   -0.032074
     37          6           0       -6.802014   -3.074729    0.035592
     38          6           0       -5.932198   -1.918114   -0.027028
     39          6           0       -9.420777   -3.388390   -0.036944
     40          6           0       -6.076030   -4.350554    0.132393
     41          8           0       -6.401075   -5.520021    0.235165
     42          6           0       -4.555198   -3.862748    0.020202
     43          6           0       -3.767408   -4.543461    1.152419
     44          8           0       -3.736744   -4.176904    2.329140
     45          8           0       -3.138487   -5.676824    0.697925
     46          6           0       -2.600964   -6.669849    1.698035
     47          6           0        1.987771   -3.074601    0.815380
     48          6           0        3.351110   -2.390396    0.667510
     49          6           0        4.444220   -2.686110   -0.103617
     50          6           0        4.389068   -3.792391   -1.163059
     51          6           0        5.764987   -1.979510    0.228686
     52          6           0        6.403163   -1.202565   -0.893237
     53          6           0        7.843208   -1.758405   -1.341337
     54          6           0        8.996274   -0.702970   -1.207021
     55          6           0        9.057699    0.283028   -2.394625
     56          6           0       10.355376   -1.368460   -0.896357
     57          6           0       11.478113   -0.542965   -0.290049
     58          6           0       12.753572   -0.500493   -1.176262
     59          6           0       13.546999    0.823249   -1.127230
     60          6           0       13.870615    1.381776   -2.582204
     61          6           0       14.922798    0.717267   -0.439280
     62          6           0       14.874270    0.625708    1.144584
     63          6           0       15.905581    1.518692    1.795795
     64          6           0       15.441306    2.993690    1.946503
     65          6           0       14.697050    3.192842    3.245443
     66          6           0       16.600932    3.975983    1.668915
     67          1           0       -1.290236    2.433423   -0.105211
     68          1           0       -7.151920    5.151883   -0.000764
     69          1           0      -10.001449   -0.485122    0.127330
     70          1           0       -1.668515   -2.438732    0.639714
     71          1           0       -0.610646   -0.014435   -0.680702
     72          1           0        0.474021    0.290997    1.476175
     73          1           0       -0.358455   -1.038822    2.027033
     74          1           0       -1.138379    0.606391    2.122721
     75          1           0       -1.625619   -1.318771   -2.130656
     76          1           0       -2.645216   -2.680713   -1.914468
     77          1           0        0.211401   -2.820082   -2.435338
     78          1           0       -0.946953   -4.085996   -2.336270
     79          1           0       -1.611786    6.023678   -0.822573
     80          1           0       -1.145289    4.351008   -1.059709
     81          1           0       -1.027339    5.037502    0.539958
     82          1           0       -4.099392    8.639120   -0.273889
     83          1           0       -3.025688    7.673806   -1.425342
     84          1           0       -2.761732    7.729109    0.306877
     85          1           0       -9.274766    4.259424   -0.388065
     86          1           0      -10.351077    2.020953    1.330641
     87          1           0       -8.852898    4.075829    2.563146
     88          1           0      -10.577832    3.950995    2.089338
     89          1           0       -9.568096    5.364261    1.666051
     90          1           0      -10.608674    1.448091   -1.569434
     91          1           0      -11.134096    3.149729   -1.190067
     92          1           0      -12.380317    0.936016    0.370628
     93          1           0      -12.968204    1.091018   -1.242988
     94          1           0      -12.886735    2.583858   -0.271552
     95          1           0       -9.211639   -4.247740   -0.674151
     96          1           0      -10.337207   -2.886254   -0.346367
     97          1           0       -9.802353   -3.904272    0.843791
     98          1           0       -4.155833   -4.121419   -0.960014
     99          1           0       -2.036706   -7.449847    1.187030
    100          1           0       -3.501687   -7.083920    2.151073
    101          1           0       -1.990121   -6.189273    2.462125
    102          1           0        2.160800   -4.127986    1.035842
    103          1           0        1.434686   -2.636502    1.645835
    104          1           0        3.449122   -1.640598    1.452330
    105          1           0        5.350190   -4.304712   -1.125901
    106          1           0        4.219181   -3.305502   -2.122420
    107          1           0        3.645930   -4.542053   -0.892470
    108          1           0        6.417810   -2.694663    0.729142
    109          1           0        5.592927   -1.269722    1.037349
    110          1           0        6.580507   -0.196695   -0.511200
    111          1           0        5.671015   -1.216621   -1.699752
    112          1           0        7.654876   -2.104630   -2.357007
    113          1           0        8.048113   -2.645895   -0.741369
    114          1           0        8.801724   -0.058826   -0.349716
    115          1           0        9.670958    0.089249   -3.275047
    116          1           0        9.330877    1.293676   -2.091062
    117          1           0        8.052152    0.346348   -2.808360
    118          1           0       10.726773   -1.961705   -1.731182
    119          1           0       10.074111   -2.216508   -0.270748
    120          1           0       11.656463   -0.968691    0.698369
    121          1           0       11.209793    0.468942    0.012641
    122          1           0       12.492061   -0.794640   -2.193273
    123          1           0       13.406745   -1.275276   -0.774189
    124          1           0       12.930799    1.547132   -0.594036
    125          1           0       13.133800    2.134885   -2.860329
    126          1           0       13.896155    0.632844   -3.373963
    127          1           0       14.867744    1.820259   -2.564174
    128          1           0       15.533529    1.578455   -0.708075
    129          1           0       15.370449   -0.168035   -0.890381
    130          1           0       15.058199   -0.385731    1.507323
    131          1           0       13.964300    1.029547    1.588106
    132          1           0       16.839708    1.520542    1.233230
    133          1           0       16.100290    1.143284    2.800042
    134          1           0       14.846211    3.193705    1.055489
    135          1           0       14.773820    4.176592    3.707290
    136          1           0       14.815022    2.378929    3.960576
    137          1           0       13.677561    3.194835    2.860443
    138          1           0       16.227174    4.940920    2.010983
    139          1           0       16.756932    4.217288    0.617493
    140          1           0       17.475655    3.654193    2.234942
 ---------------------------------------------------------------------

 SCF Done:  E(RwB97XD) =  -3007.87312960     A.U. after   20 cycles

 Excitation energies and oscillator strengths:

 Excited State   1:      Singlet-A      1.6176 eV  766.48 nm  f=0.3764  <S**2>=0.000
     245 -> 248       -0.17704
     246 -> 247        0.68487
     245 <- 248       -0.11310
 This state for optimization and/or second-order correction.
 Total Energy, E(TD-HF/TD-DFT) =  -3007.81368477
 Copying the excited state density for this state as the 1-particle RhoCI density.

 Excited State   2:      Singlet-A      2.2571 eV  549.32 nm  f=0.0601  <S**2>=0.000
     245 -> 247        0.60402
     246 -> 248        0.35371

 Excited State   3:      Singlet-A      3.4206 eV  362.47 nm  f=0.7205  <S**2>=0.000
     241 -> 247       -0.15963
     245 -> 247       -0.33451
     246 -> 248        0.59644
     245 <- 247        0.11100

 Excited State   4:      Singlet-A      3.6400 eV  340.62 nm  f=0.0008  <S**2>=0.000
     241 -> 247       -0.20477
     242 -> 247        0.20059
     243 -> 247        0.58561
     244 -> 247        0.13078

 Excited State   5:      Singlet-A      3.7050 eV  334.64 nm  f=0.0029  <S**2>=0.000
     241 -> 247        0.16847
     242 -> 247        0.49627
     242 -> 249        0.29946
     242 -> 250        0.24784
     243 -> 247       -0.17765

 The electronic state is 1-A.
 Alpha  occ. eigenvalues --  -46.94665 -19.30488 -19.28311 -19.25353 -19.24835
 Alpha  occ. eigenvalues --  -19.24252 -19.23112 -14.46908 -14.46400 -14.44523
 Alpha  occ. eigenvalues --  -14.43792 -10.43452 -10.42153 -10.40157 -10.39173
 Alpha  occ. eigenvalues --  -10.35770 -10.35655 -10.35577 -10.35246 -10.34616
 Alpha  occ. eigenvalues --  -10.34540 -10.34342 -10.33734 -10.33074 -10.33043
 Alpha  occ. eigenvalues --  -10.32802 -10.32618 -10.32543 -10.32299 -10.32103
 Alpha  occ. eigenvalues --  -10.31972 -10.31824 -10.31667 -10.31662 -10.31644
 Alpha  occ. eigenvalues --  -10.31636 -10.31621 -10.31481 -10.30971 -10.30788
 Alpha  occ. eigenvalues --  -10.30494 -10.30360 -10.30354 -10.30227 -10.30149
 Alpha  occ. eigenvalues --  -10.30091 -10.30005 -10.29932 -10.29665 -10.29614
 Alpha  occ. eigenvalues --  -10.29612 -10.29581 -10.29501 -10.29299 -10.29164
 Alpha  occ. eigenvalues --  -10.29096 -10.28951 -10.28763 -10.28673 -10.28650
 Alpha  occ. eigenvalues --  -10.28428 -10.28323 -10.28296 -10.28279 -10.28027
 Alpha  occ. eigenvalues --  -10.28002  -3.20701  -1.94287  -1.93823  -1.93686
 Alpha  occ. eigenvalues --   -1.18041  -1.15603  -1.13350  -1.12008  -1.09528
 Alpha  occ. eigenvalues --   -1.07251  -1.06039  -1.05506  -1.04296  -1.03717
 Alpha  occ. eigenvalues --   -0.93034  -0.92057  -0.91697  -0.91460  -0.90514
 Alpha  occ. eigenvalues --   -0.90262  -0.90157  -0.89138  -0.88987  -0.88685
 Alpha  occ. eigenvalues --   -0.88405  -0.87398  -0.86004  -0.84890  -0.84748
 Alpha  occ. eigenvalues --   -0.84119  -0.83160  -0.82696  -0.82257  -0.81733
 Alpha  occ. eigenvalues --   -0.81623  -0.80316  -0.79912  -0.78852  -0.77848
 Alpha  occ. eigenvalues --   -0.77837  -0.77627  -0.77069  -0.76932  -0.75754
 Alpha  occ. eigenvalues --   -0.75052  -0.74719  -0.73607  -0.72641  -0.70657
 Alpha  occ. eigenvalues --   -0.70208  -0.70103  -0.69216  -0.68625  -0.67641
 Alpha  occ. eigenvalues --   -0.67413  -0.67168  -0.66695  -0.65970  -0.65624
 Alpha  occ. eigenvalues --   -0.65135  -0.64723  -0.64158  -0.62785  -0.62284
 Alpha  occ. eigenvalues --   -0.61734  -0.61222  -0.60693  -0.60235  -0.59508
 Alpha  occ. eigenvalues --   -0.58710  -0.58468  -0.58220  -0.57688  -0.57180
 Alpha  occ. eigenvalues --   -0.56966  -0.56539  -0.56338  -0.55619  -0.55412
 Alpha  occ. eigenvalues --   -0.55163  -0.54955  -0.54650  -0.54310  -0.54212
 Alpha  occ. eigenvalues --   -0.54129  -0.53985  -0.53884  -0.53629  -0.53345
 Alpha  occ. eigenvalues --   -0.53239  -0.53140  -0.52863  -0.52425  -0.52345
 Alpha  occ. eigenvalues --   -0.51949  -0.51868  -0.51805  -0.51653  -0.51430
 Alpha  occ. eigenvalues --   -0.51325  -0.51044  -0.50869  -0.50655  -0.50379
 Alpha  occ. eigenvalues --   -0.50150  -0.50095  -0.50039  -0.49659  -0.49576
 Alpha  occ. eigenvalues --   -0.49294  -0.49204  -0.49046  -0.48915  -0.48523
 Alpha  occ. eigenvalues --   -0.48412  -0.48280  -0.47782  -0.47640  -0.47398
 Alpha  occ. eigenvalues --   -0.47198  -0.47126  -0.46946  -0.46822  -0.46477
 Alpha  occ. eigenvalues --   -0.46323  -0.46249  -0.45969  -0.45926  -0.45899
 Alpha  occ. eigenvalues --   -0.45827  -0.45700  -0.45599  -0.45383  -0.44928
 Alpha  occ. eigenvalues --   -0.44853  -0.44670  -0.44400  -0.44222  -0.43928
 Alpha  occ. eigenvalues --   -0.43810  -0.43630  -0.43568  -0.42959  -0.42914
 Alpha  occ. eigenvalues --   -0.42639  -0.42546  -0.42262  -0.42223  -0.41847
 Alpha  occ. eigenvalues --   -0.41523  -0.41345  -0.41134  -0.41016  -0.40483
 Alpha  occ. eigenvalues --   -0.40224  -0.40216  -0.39828  -0.39761  -0.39204
 Alpha  occ. eigenvalues --   -0.38980  -0.38909  -0.38277  -0.38149  -0.37930
 Alpha  occ. eigenvalues --   -0.37447  -0.37334  -0.36875  -0.36612  -0.36228
 Alpha  occ. eigenvalues --   -0.36124  -0.35422  -0.34557  -0.33876  -0.33595
 Alpha  occ. eigenvalues --   -0.32852  -0.32507  -0.32134  -0.31955  -0.26282
 Alpha  occ. eigenvalues --   -0.22381
 Alpha virt. eigenvalues --   -0.06603   0.00004   0.02323   0.04482   0.05582
 Alpha virt. eigenvalues --    0.06549   0.07000   0.08020   0.08629   0.10126
 Alpha virt. eigenvalues --    0.10643   0.11721   0.12085   0.12185   0.12503

 Mulliken charges:
               1
     1  Mg   0.976637
     2  C   -0.057567
     3  C   -0.105898
     4  C   -0.068227
     5  C   -0.083187
     6  N   -0.401513
     7  C    0.050377
     8  C   -0.085348
     9  C   -0.063893
    10  C    0.044417
    11  C    0.018553
    12  C    0.024965
    13  C    0.076997
    14  C    0.161631
    15  O   -0.267932
    16  O   -0.374887
    17  N   -0.486305
    18  C    0.184407
    19  C   -0.169903
    20  C   -0.039177
    21  C    0.164267
    22  C    0.054705
    23  C    0.059753
    24  O   -0.224111
    25  C   -0.051284
    26  N   -0.346540
    27  C    0.026203
    28  C   -0.107973
    29  C   -0.047618
    30  C    0.022371
    31  C    0.021671
    32  C   -0.014836
    33  C   -0.079415
    34  N   -0.416566
    35  C    0.141014
    36  C   -0.121220
    37  C   -0.105760
    38  C    0.172435
    39  C    0.055706
    40  C    0.169934
    41  O   -0.194020
    42  C   -0.090783
    43  C    0.275357
    44  O   -0.269192
    45  O   -0.378688
    46  C    0.151346
    47  C    0.236857
    48  C   -0.148913
    49  C   -0.216322
    50  C    0.051924
    51  C    0.034028
    52  C   -0.035790
    53  C   -0.007262
    54  C   -0.147452
    55  C   -0.004840
    56  C    0.004580
    57  C   -0.009944
    58  C    0.040929
    59  C   -0.200215
    60  C   -0.003371
    61  C   -0.009316
    62  C    0.015155
    63  C   -0.022774
    64  C   -0.240540
    65  C    0.024025
    66  C   -0.006257
    67  H   -0.001600
    68  H    0.018264
    69  H   -0.013067
    70  H    0.059946
    71  H    0.039802
    72  H    0.033281
    73  H    0.040353
    74  H    0.055906
    75  H    0.025379
    76  H    0.037292
    77  H    0.047312
    78  H    0.052325
    79  H    0.020985
    80  H    0.042430
    81  H    0.069338
    82  H    0.060513
    83  H    0.065828
    84  H    0.060958
    85  H    0.047227
    86  H    0.038382
    87  H    0.044647
    88  H    0.043129
    89  H    0.041621
    90  H    0.041173
    91  H    0.040207
    92  H    0.035526
    93  H    0.043170
    94  H    0.038769
    95  H    0.052000
    96  H    0.029509
    97  H    0.051996
    98  H    0.070121
    99  H    0.062480
   100  H    0.057293
   101  H    0.063071
   102  H    0.066417
   103  H    0.031015
   104  H    0.012004
   105  H    0.032483
   106  H    0.059880
   107  H    0.044701
   108  H    0.034188
   109  H    0.011659
   110  H    0.028839
   111  H    0.031333
   112  H    0.025608
   113  H    0.014386
   114  H    0.017475
   115  H    0.027861
   116  H    0.025933
   117  H    0.016885
   118  H    0.006279
   119  H   -0.003804
   120  H    0.020829
   121  H    0.007335
   122  H    0.024900
   123  H    0.017457
   124  H    0.014355
   125  H    0.032195
   126  H    0.028626
   127  H    0.017913
   128  H    0.020814
   129  H    0.022886
   130  H    0.022826
   131  H    0.007557
   132  H    0.013214
   133  H    0.010526
   134  H    0.016600
   135  H    0.029023
   136  H    0.037203
   137  H    0.025782
   138  H    0.009956
   139  H    0.028124
   140  H    0.037771
 Sum of Mulliken charges =  -0.00000

 Dipole moment (field-independent basis, Debye):
    X=              3.7260    Y=              3.7727    Z=             -2.2961  Tot=              5.7783
 Quadrupole moment (field-independent basis, Debye-Ang):
   XX=           -384.6273   YY=           -421.0236   ZZ=           -402.8536
   XY=            -20.2369   XZ=              9.4746   YZ=              8.8365

 Normal termination of Gaussian 16 at Thu Apr 28 18:24:14 2022.
