 Gaussian 16, Revision A.03,
 Gaussian 16:  ES64L-G16RevA.03 25-Dec-2016

 --------------------
 #p ZINDO=(nstates=5)
 --------------------

 -----------------------------
 step_1651_chromophore_6 ZINDO
 -----------------------------
 Symbolic Z-matrix:
 Charge =  0 Multiplicity = 1

                         Standard orientation:
 ---------------------------------------------------------------------
 Center     Atomic      Atomic             Coordinates (Angstroms)
 Number     Number       Type             X           Y           Z
 ---------------------------------------------------------------------
      1         12           0       -5.566993    1.026047   -0.275770
      2          6           0       -4.560212   -2.295148    0.001807
      3          6           0       -2.319667    2.068037   -0.101164
      4          6           0       -6.706914    4.154677    0.003064
      5          6           0       -8.947374   -0.208956    0.059357
      6          7           0       -3.688921    0.037547    0.089223
      7          6           0       -3.496220   -1.386388    0.071083
      8          6           0       -1.959696   -1.670865   -0.075894
      9          6           0       -1.266270   -0.324992    0.133120
     10          6           0       -2.498109    0.670190   -0.017528
     11          6           0       -0.547194   -0.088399    1.526624
     12          6           0       -1.744855   -2.211756   -1.517152
     13          6           0       -0.610726   -3.186482   -1.821167
     14          6           0        0.214065   -3.679365   -0.624785
     15          8           0        0.019275   -4.645748    0.119690
     16          8           0        1.261796   -2.779257   -0.431349
     17          7           0       -4.685672    2.851571   -0.248040
     18          6           0       -3.337658    3.051977   -0.125450
     19          6           0       -3.101678    4.488855   -0.342589
     20          6           0       -4.327119    5.132129   -0.319166
     21          6           0       -5.315019    4.053146   -0.131172
     22          6           0       -1.634647    5.034965   -0.365674
     23          6           0       -4.634096    6.618847   -0.506069
     24          8           0       -5.781005    7.029617   -0.532609
     25          6           0       -3.534083    7.725491   -0.461892
     26          7           0       -7.586574    1.768397    0.084086
     27          6           0       -7.749489    3.189976    0.161625
     28          6           0       -9.202660    3.555505    0.440138
     29          6           0       -9.926821    2.169345    0.337887
     30          6           0       -8.769083    1.162779    0.136969
     31          6           0       -9.584908    4.280711    1.781673
     32          6           0      -10.958450    2.144412   -0.806449
     33          6           0      -12.410437    1.625065   -0.473917
     34          7           0       -6.596080   -0.792187   -0.059548
     35          6           0       -7.972997   -1.186647   -0.041632
     36          6           0       -8.116897   -2.611810   -0.032074
     37          6           0       -6.802014   -3.074729    0.035592
     38          6           0       -5.932198   -1.918114   -0.027028
     39          6           0       -9.420777   -3.388390   -0.036944
     40          6           0       -6.076030   -4.350554    0.132393
     41          8           0       -6.401075   -5.520021    0.235165
     42          6           0       -4.555198   -3.862748    0.020202
     43          6           0       -3.767408   -4.543461    1.152419
     44          8           0       -3.736744   -4.176904    2.329140
     45          8           0       -3.138487   -5.676824    0.697925
     46          6           0       -2.600964   -6.669849    1.698035
     47          6           0        1.987771   -3.074601    0.815380
     48          6           0        3.351110   -2.390396    0.667510
     49          6           0        4.444220   -2.686110   -0.103617
     50          6           0        4.389068   -3.792391   -1.163059
     51          6           0        5.764987   -1.979510    0.228686
     52          6           0        6.403163   -1.202565   -0.893237
     53          6           0        7.843208   -1.758405   -1.341337
     54          6           0        8.996274   -0.702970   -1.207021
     55          6           0        9.057699    0.283028   -2.394625
     56          6           0       10.355376   -1.368460   -0.896357
     57          6           0       11.478113   -0.542965   -0.290049
     58          6           0       12.753572   -0.500493   -1.176262
     59          6           0       13.546999    0.823249   -1.127230
     60          6           0       13.870615    1.381776   -2.582204
     61          6           0       14.922798    0.717267   -0.439280
     62          6           0       14.874270    0.625708    1.144584
     63          6           0       15.905581    1.518692    1.795795
     64          6           0       15.441306    2.993690    1.946503
     65          6           0       14.697050    3.192842    3.245443
     66          6           0       16.600932    3.975983    1.668915
     67          1           0       -1.290236    2.433423   -0.105211
     68          1           0       -7.151920    5.151883   -0.000764
     69          1           0      -10.001449   -0.485122    0.127330
     70          1           0       -1.668515   -2.438732    0.639714
     71          1           0       -0.610646   -0.014435   -0.680702
     72          1           0        0.474021    0.290997    1.476175
     73          1           0       -0.358455   -1.038822    2.027033
     74          1           0       -1.138379    0.606391    2.122721
     75          1           0       -1.625619   -1.318771   -2.130656
     76          1           0       -2.645216   -2.680713   -1.914468
     77          1           0        0.211401   -2.820082   -2.435338
     78          1           0       -0.946953   -4.085996   -2.336270
     79          1           0       -1.611786    6.023678   -0.822573
     80          1           0       -1.145289    4.351008   -1.059709
     81          1           0       -1.027339    5.037502    0.539958
     82          1           0       -4.099392    8.639120   -0.273889
     83          1           0       -3.025688    7.673806   -1.425342
     84          1           0       -2.761732    7.729109    0.306877
     85          1           0       -9.274766    4.259424   -0.388065
     86          1           0      -10.351077    2.020953    1.330641
     87          1           0       -8.852898    4.075829    2.563146
     88          1           0      -10.577832    3.950995    2.089338
     89          1           0       -9.568096    5.364261    1.666051
     90          1           0      -10.608674    1.448091   -1.569434
     91          1           0      -11.134096    3.149729   -1.190067
     92          1           0      -12.380317    0.936016    0.370628
     93          1           0      -12.968204    1.091018   -1.242988
     94          1           0      -12.886735    2.583858   -0.271552
     95          1           0       -9.211639   -4.247740   -0.674151
     96          1           0      -10.337207   -2.886254   -0.346367
     97          1           0       -9.802353   -3.904272    0.843791
     98          1           0       -4.155833   -4.121419   -0.960014
     99          1           0       -2.036706   -7.449847    1.187030
    100          1           0       -3.501687   -7.083920    2.151073
    101          1           0       -1.990121   -6.189273    2.462125
    102          1           0        2.160800   -4.127986    1.035842
    103          1           0        1.434686   -2.636502    1.645835
    104          1           0        3.449122   -1.640598    1.452330
    105          1           0        5.350190   -4.304712   -1.125901
    106          1           0        4.219181   -3.305502   -2.122420
    107          1           0        3.645930   -4.542053   -0.892470
    108          1           0        6.417810   -2.694663    0.729142
    109          1           0        5.592927   -1.269722    1.037349
    110          1           0        6.580507   -0.196695   -0.511200
    111          1           0        5.671015   -1.216621   -1.699752
    112          1           0        7.654876   -2.104630   -2.357007
    113          1           0        8.048113   -2.645895   -0.741369
    114          1           0        8.801724   -0.058826   -0.349716
    115          1           0        9.670958    0.089249   -3.275047
    116          1           0        9.330877    1.293676   -2.091062
    117          1           0        8.052152    0.346348   -2.808360
    118          1           0       10.726773   -1.961705   -1.731182
    119          1           0       10.074111   -2.216508   -0.270748
    120          1           0       11.656463   -0.968691    0.698369
    121          1           0       11.209793    0.468942    0.012641
    122          1           0       12.492061   -0.794640   -2.193273
    123          1           0       13.406745   -1.275276   -0.774189
    124          1           0       12.930799    1.547132   -0.594036
    125          1           0       13.133800    2.134885   -2.860329
    126          1           0       13.896155    0.632844   -3.373963
    127          1           0       14.867744    1.820259   -2.564174
    128          1           0       15.533529    1.578455   -0.708075
    129          1           0       15.370449   -0.168035   -0.890381
    130          1           0       15.058199   -0.385731    1.507323
    131          1           0       13.964300    1.029547    1.588106
    132          1           0       16.839708    1.520542    1.233230
    133          1           0       16.100290    1.143284    2.800042
    134          1           0       14.846211    3.193705    1.055489
    135          1           0       14.773820    4.176592    3.707290
    136          1           0       14.815022    2.378929    3.960576
    137          1           0       13.677561    3.194835    2.860443
    138          1           0       16.227174    4.940920    2.010983
    139          1           0       16.756932    4.217288    0.617493
    140          1           0       17.475655    3.654193    2.234942
 ---------------------------------------------------------------------

 SCF Done:  E(RZINDO/S) =  -473.902007530     A.U. after   19 cycles

 Excitation energies and oscillator strengths:

 Excited State   1:      Singlet-A      1.2208 eV 1015.60 nm  f=0.5965  <S**2>=0.000
     175 ->178        -0.18042
     176 ->177         0.66570
 This state for optimization and/or second-order correction.
 Total Energy, E(CIS/TDA) =  -473.857143870
 Copying the excited state density for this state as the 1-particle RhoCI density.

 Excited State   2:      Singlet-A      1.9609 eV  632.27 nm  f=0.0015  <S**2>=0.000
     175 ->177         0.48159
     176 ->178         0.49580

 Excited State   3:      Singlet-A      2.8910 eV  428.87 nm  f=0.0973  <S**2>=0.000
     175 ->177        -0.11231
     176 ->178         0.15659
     176 ->179         0.62479
     176 ->183         0.12430

 Excited State   4:      Singlet-A      2.9487 eV  420.48 nm  f=0.0996  <S**2>=0.000
     168 ->177        -0.25331
     168 ->178         0.17018
     168 ->179         0.38336
     168 ->180        -0.27711
     168 ->186         0.20449
     175 ->177        -0.14759
     176 ->178         0.14181
     176 ->179        -0.15880

 Excited State   5:      Singlet-A      2.9745 eV  416.83 nm  f=0.8664  <S**2>=0.000
     168 ->177         0.11254
     168 ->179        -0.16414
     168 ->180         0.11762
     175 ->177        -0.41518
     176 ->178         0.41708
     176 ->179        -0.11937
     176 ->180        -0.16379

 The electronic state is 1-A.
 Alpha  occ. eigenvalues --   -1.82370  -1.81309  -1.78235  -1.73178  -1.69496
 Alpha  occ. eigenvalues --   -1.68052  -1.65025  -1.60905  -1.59367  -1.55806
 Alpha  occ. eigenvalues --   -1.55321  -1.50536  -1.47024  -1.46559  -1.45229
 Alpha  occ. eigenvalues --   -1.43516  -1.42017  -1.39442  -1.37864  -1.37591
 Alpha  occ. eigenvalues --   -1.34922  -1.32943  -1.32067  -1.31328  -1.28207
 Alpha  occ. eigenvalues --   -1.27500  -1.24330  -1.21369  -1.20164  -1.17458
 Alpha  occ. eigenvalues --   -1.17259  -1.17169  -1.15767  -1.14437  -1.13553
 Alpha  occ. eigenvalues --   -1.12214  -1.11151  -1.10046  -1.06306  -1.03245
 Alpha  occ. eigenvalues --   -1.02678  -1.02120  -0.99266  -0.98223  -0.95440
 Alpha  occ. eigenvalues --   -0.94719  -0.94637  -0.94347  -0.92972  -0.92549
 Alpha  occ. eigenvalues --   -0.91068  -0.90260  -0.88346  -0.87811  -0.86598
 Alpha  occ. eigenvalues --   -0.86224  -0.84148  -0.83239  -0.81860  -0.80037
 Alpha  occ. eigenvalues --   -0.79593  -0.78147  -0.78058  -0.76682  -0.76027
 Alpha  occ. eigenvalues --   -0.75360  -0.75287  -0.74200  -0.73592  -0.73132
 Alpha  occ. eigenvalues --   -0.72900  -0.72091  -0.72008  -0.71490  -0.70696
 Alpha  occ. eigenvalues --   -0.70532  -0.69758  -0.69319  -0.67860  -0.67500
 Alpha  occ. eigenvalues --   -0.66932  -0.66315  -0.66038  -0.65759  -0.65061
 Alpha  occ. eigenvalues --   -0.64747  -0.64087  -0.63929  -0.63509  -0.63063
 Alpha  occ. eigenvalues --   -0.62923  -0.62807  -0.62500  -0.62303  -0.61402
 Alpha  occ. eigenvalues --   -0.60964  -0.60765  -0.60411  -0.59916  -0.59790
 Alpha  occ. eigenvalues --   -0.59536  -0.59324  -0.59173  -0.58578  -0.58477
 Alpha  occ. eigenvalues --   -0.57964  -0.57892  -0.57351  -0.57043  -0.56207
 Alpha  occ. eigenvalues --   -0.55835  -0.55757  -0.55305  -0.55083  -0.54882
 Alpha  occ. eigenvalues --   -0.54646  -0.54102  -0.53603  -0.53480  -0.53133
 Alpha  occ. eigenvalues --   -0.52275  -0.51993  -0.51692  -0.51451  -0.51052
 Alpha  occ. eigenvalues --   -0.50932  -0.50909  -0.50450  -0.50145  -0.50074
 Alpha  occ. eigenvalues --   -0.49864  -0.49615  -0.49475  -0.49200  -0.48691
 Alpha  occ. eigenvalues --   -0.48490  -0.48155  -0.48030  -0.47755  -0.47532
 Alpha  occ. eigenvalues --   -0.47303  -0.47077  -0.46953  -0.46782  -0.46635
 Alpha  occ. eigenvalues --   -0.46389  -0.46251  -0.45760  -0.45713  -0.45521
 Alpha  occ. eigenvalues --   -0.45111  -0.45027  -0.44721  -0.44326  -0.44172
 Alpha  occ. eigenvalues --   -0.43788  -0.43278  -0.43186  -0.42656  -0.42545
 Alpha  occ. eigenvalues --   -0.42345  -0.42014  -0.40458  -0.39111  -0.38641
 Alpha  occ. eigenvalues --   -0.37637  -0.37174  -0.36211  -0.34890  -0.34686
 Alpha  occ. eigenvalues --   -0.33836  -0.32640  -0.32415  -0.32167  -0.27053
 Alpha  occ. eigenvalues --   -0.21206
 Alpha virt. eigenvalues --   -0.08073  -0.02191  -0.00557   0.01230   0.01568
 Alpha virt. eigenvalues --    0.02294   0.02810   0.03519   0.04432   0.04737
 Alpha virt. eigenvalues --    0.06398   0.06811   0.06909   0.07885   0.08379

 Mulliken charges:
               1
     1  Mg   0.428480
     2  C   -0.045841
     3  C   -0.102662
     4  C   -0.058675
     5  C   -0.047354
     6  N   -0.294278
     7  C    0.097475
     8  C    0.021419
     9  C    0.006233
    10  C    0.152360
    11  C   -0.052997
    12  C   -0.012514
    13  C    0.007154
    14  C    0.460467
    15  O   -0.513732
    16  O   -0.274010
    17  N   -0.313904
    18  C    0.124578
    19  C    0.003341
    20  C   -0.021564
    21  C    0.138533
    22  C   -0.052306
    23  C    0.324802
    24  O   -0.504163
    25  C   -0.034747
    26  N   -0.269653
    27  C    0.120110
    28  C   -0.003177
    29  C    0.007526
    30  C    0.112206
    31  C   -0.048665
    32  C   -0.032100
    33  C   -0.069419
    34  N   -0.314749
    35  C    0.069136
    36  C    0.036890
    37  C   -0.068441
    38  C    0.134966
    39  C   -0.044940
    40  C    0.333667
    41  O   -0.506722
    42  C    0.050531
    43  C    0.486926
    44  O   -0.525889
    45  O   -0.273549
    46  C    0.078754
    47  C    0.103944
    48  C   -0.103274
    49  C   -0.006557
    50  C   -0.040544
    51  C   -0.016071
    52  C   -0.038468
    53  C   -0.039213
    54  C    0.001126
    55  C   -0.058230
    56  C   -0.034514
    57  C   -0.032889
    58  C   -0.031589
    59  C   -0.014183
    60  C   -0.066235
    61  C   -0.032978
    62  C   -0.042110
    63  C   -0.035130
    64  C   -0.011981
    65  C   -0.054303
    66  C   -0.064198
    67  H    0.027044
    68  H    0.039183
    69  H    0.021189
    70  H    0.048226
    71  H    0.030980
    72  H    0.018982
    73  H    0.026944
    74  H    0.031169
    75  H    0.019480
    76  H    0.025583
    77  H    0.034514
    78  H    0.037583
    79  H    0.021437
    80  H    0.022215
    81  H    0.041436
    82  H    0.038325
    83  H    0.038625
    84  H    0.035086
    85  H    0.041070
    86  H    0.036423
    87  H    0.025288
    88  H    0.024617
    89  H    0.020858
    90  H    0.022917
    91  H    0.023789
    92  H    0.020193
    93  H    0.024651
    94  H    0.019731
    95  H    0.027462
    96  H    0.022563
    97  H    0.037554
    98  H    0.051612
    99  H    0.040125
   100  H    0.042748
   101  H    0.051406
   102  H    0.058814
   103  H    0.040352
   104  H    0.016015
   105  H    0.020785
   106  H    0.037019
   107  H    0.032291
   108  H    0.027711
   109  H    0.012040
   110  H    0.020475
   111  H    0.026499
   112  H    0.020301
   113  H    0.021430
   114  H    0.020909
   115  H    0.022860
   116  H    0.014842
   117  H    0.008249
   118  H    0.015861
   119  H    0.006119
   120  H    0.013970
   121  H    0.019704
   122  H    0.024894
   123  H    0.015881
   124  H    0.022724
   125  H    0.015978
   126  H    0.020548
   127  H    0.018502
   128  H    0.022323
   129  H    0.021261
   130  H    0.017772
   131  H    0.024001
   132  H    0.013135
   133  H    0.012172
   134  H    0.015681
   135  H    0.021884
   136  H    0.028884
   137  H    0.010437
   138  H    0.006298
   139  H    0.022838
   140  H    0.025429
 Sum of Mulliken charges =  -0.00000

 Dipole moment (field-independent basis, Debye):
    X=              5.8488    Y=              6.0285    Z=             -4.1942  Tot=              9.3884
 N-N= 4.230370253394D+03 E-N= 0.000000000000D+00  KE=-9.135042437587D+03
 Leave Link  601 at Thu Apr 28 18:35:45 2022, MaxMem=  6710886400 cpu:               0.9 elap:               0.1
 (Enter /sw/apps/gaussian-16.0/g16/l9999.exe)
 1\1\GINC-BP1-COMPUTE070\SP\RZINDO CIS\STO-3G\C55H74Mg1N4O6\OF15641\28-
 Apr-2022\0\\#p ZINDO=(nstates=5)\\step_1651_chromophore_6 ZINDO\\0,1\M
 g,0,17.493,-2.364,27.883\C,0,16.879,-0.212,30.55\C,0,19.569,-4.251,29.
 83\C,0,18.408,-4.002,25.118\C,0,15.681,0.01,25.847\N,0,18.276,-2.163,2
 9.879\C,0,17.792,-1.229,30.858\C,0,18.287,-1.7,32.271\C,0,19.308,-2.80
 6,32.006\C,0,19.001,-3.134,30.48\C,0,20.84,-2.436,32.182\C,0,17.037,-2
 .238,33.022\C,0,16.947,-2.153,34.543\C,0,18.086,-1.417,35.261\O,0,18.2

 Normal termination of Gaussian 16 at Thu Apr 28 18:35:45 2022.
