 Gaussian 16, Revision A.03,
 Gaussian 16:  ES64L-G16RevA.03 25-Dec-2016

 ------------------------------
 #p blyp/Def2SVP td=(nstates=5)
 ------------------------------

 -------------------------------------------------
 step_51_chromophore_23 TDDFT with blyp functional
 -------------------------------------------------
 Symbolic Z-matrix:
 Charge =  0 Multiplicity = 1

                         Standard orientation:
 ---------------------------------------------------------------------
 Center     Atomic      Atomic             Coordinates (Angstroms)
 Number     Number       Type             X           Y           Z
 ---------------------------------------------------------------------
      1         12           0        4.708574    0.941232   -0.435242
      2          6           0        3.828896   -2.530836   -0.236980
      3          6           0        2.161961    1.495578   -2.540273
      4          6           0        5.294476    4.157289    0.067651
      5          6           0        7.099775    0.210942    2.179848
      6          7           0        3.217711   -0.358639   -1.274515
      7          6           0        3.044663   -1.723768   -1.107385
      8          6           0        1.871962   -2.259491   -1.926245
      9          6           0        1.530547   -1.043227   -2.866751
     10          6           0        2.345743    0.136733   -2.213137
     11          6           0        1.964456   -1.216837   -4.348795
     12          6           0        0.651844   -2.679842   -1.074770
     13          6           0       -0.033885   -3.988610   -1.262324
     14          6           0       -1.481935   -3.996784   -1.770138
     15          8           0       -1.797648   -3.366109   -2.769112
     16          8           0       -2.273980   -4.868628   -1.137661
     17          7           0        3.861413    2.640112   -1.144731
     18          6           0        2.857711    2.611685   -2.051175
     19          6           0        2.578881    3.980431   -2.463235
     20          6           0        3.554876    4.803020   -1.788096
     21          6           0        4.344351    3.891717   -0.931236
     22          6           0        1.549812    4.328902   -3.487588
     23          6           0        3.587783    6.280164   -1.840094
     24          8           0        2.762957    6.820990   -2.604991
     25          6           0        4.469511    7.188861   -1.005606
     26          7           0        5.957607    1.948879    0.952577
     27          6           0        6.057637    3.279847    0.872868
     28          6           0        7.185375    3.854423    1.808991
     29          6           0        7.566210    2.610033    2.703748
     30          6           0        6.777388    1.522511    1.969736
     31          6           0        8.377662    4.368058    1.007031
     32          6           0        7.219647    2.796511    4.241951
     33          6           0        8.389678    2.798140    5.289342
     34          7           0        5.424219   -0.749612    0.668841
     35          6           0        6.394503   -0.848812    1.586220
     36          6           0        6.522316   -2.222994    2.043238
     37          6           0        5.610386   -2.930239    1.248565
     38          6           0        4.920184   -1.990278    0.494859
     39          6           0        7.509235   -2.659856    3.126246
     40          6           0        4.977606   -4.233808    0.976967
     41          8           0        5.179279   -5.343815    1.453385
     42          6           0        3.705984   -3.971173    0.082971
     43          6           0        3.687656   -5.032416   -1.028014
     44          8           0        4.321641   -5.014388   -2.087241
     45          8           0        2.788166   -5.994749   -0.662716
     46          6           0        3.086780   -7.312019   -1.305319
     47          6           0       -3.714546   -4.943422   -1.582770
     48          6           0       -4.620585   -4.716569   -0.357830
     49          6           0       -5.207975   -3.548589   -0.000813
     50          6           0       -5.128660   -2.243587   -0.815828
     51          6           0       -6.184260   -3.532826    1.189633
     52          6           0       -7.644465   -3.583330    0.895664
     53          6           0       -8.518099   -3.301440    2.159214
     54          6           0       -9.946813   -2.800844    1.700972
     55          6           0      -11.128908   -3.791457    2.038539
     56          6           0      -10.191334   -1.409359    2.329084
     57          6           0       -9.739584   -0.292074    1.376534
     58          6           0       -9.170082    0.911627    2.036599
     59          6           0       -8.676586    1.959901    0.991057
     60          6           0       -7.246803    1.460001    0.453773
     61          6           0       -8.668475    3.400006    1.604134
     62          6           0       -8.317352    4.382085    0.438516
     63          6           0       -9.060680    5.646414    0.427406
     64          6           0      -10.395346    5.617898   -0.404895
     65          6           0      -10.316508    6.383330   -1.725467
     66          6           0      -11.572830    6.106941    0.451337
     67          1           0        1.353414    1.606512   -3.266098
     68          1           0        5.500288    5.228733    0.095286
     69          1           0        7.805704   -0.080778    2.960329
     70          1           0        2.051607   -3.120981   -2.568557
     71          1           0        0.484790   -0.734524   -2.867463
     72          1           0        2.952391   -0.776960   -4.487741
     73          1           0        1.256312   -0.857212   -5.096034
     74          1           0        2.076637   -2.266502   -4.620593
     75          1           0       -0.154129   -1.957378   -1.202586
     76          1           0        1.054126   -2.568189   -0.067460
     77          1           0       -0.001163   -4.525622   -0.314467
     78          1           0        0.600587   -4.447380   -2.020210
     79          1           0        0.624164    4.728848   -3.073931
     80          1           0        1.244011    3.429475   -4.022732
     81          1           0        1.982356    5.009634   -4.221928
     82          1           0        4.408414    8.208105   -1.388293
     83          1           0        5.480410    6.889356   -1.281260
     84          1           0        4.172885    7.170538    0.042927
     85          1           0        6.684538    4.640149    2.374203
     86          1           0        8.621585    2.338643    2.711186
     87          1           0        9.263224    3.777850    1.244062
     88          1           0        8.482169    5.418881    1.279203
     89          1           0        8.163012    4.367068   -0.061373
     90          1           0        6.534165    1.963928    4.400776
     91          1           0        6.619374    3.681485    4.453216
     92          1           0        8.546795    3.837704    5.575055
     93          1           0        9.322185    2.304738    5.017234
     94          1           0        8.030008    2.157780    6.093806
     95          1           0        8.563619   -2.578162    2.862806
     96          1           0        7.194680   -3.639100    3.486594
     97          1           0        7.299023   -1.969741    3.942722
     98          1           0        2.794471   -4.193684    0.636911
     99          1           0        2.524574   -7.500587   -2.219686
    100          1           0        2.698367   -8.170544   -0.756594
    101          1           0        4.140070   -7.524549   -1.490726
    102          1           0       -3.744504   -5.986721   -1.896689
    103          1           0       -4.128798   -4.291253   -2.351338
    104          1           0       -4.982270   -5.603966    0.160745
    105          1           0       -4.501627   -1.572441   -0.227914
    106          1           0       -6.114426   -1.780178   -0.863149
    107          1           0       -4.826665   -2.302293   -1.861758
    108          1           0       -6.014404   -2.614427    1.750602
    109          1           0       -5.896637   -4.309619    1.897555
    110          1           0       -7.821828   -4.593031    0.525426
    111          1           0       -7.866046   -2.722054    0.264227
    112          1           0       -8.017507   -2.556195    2.776915
    113          1           0       -8.705593   -4.218343    2.718148
    114          1           0      -10.066842   -2.710539    0.621928
    115          1           0      -11.840941   -3.804001    1.213400
    116          1           0      -11.585399   -3.521578    2.989858
    117          1           0      -10.778471   -4.815638    2.173565
    118          1           0       -9.742632   -1.182813    3.296775
    119          1           0      -11.255334   -1.418334    2.564145
    120          1           0      -10.597723    0.044415    0.794169
    121          1           0       -8.893996   -0.640321    0.783884
    122          1           0       -8.418270    0.583202    2.753038
    123          1           0       -9.939035    1.375433    2.653791
    124          1           0       -9.436278    1.963407    0.210156
    125          1           0       -6.440651    2.185557    0.563556
    126          1           0       -7.400905    1.308865   -0.614486
    127          1           0       -7.007253    0.561231    1.020855
    128          1           0       -8.008487    3.604931    2.446271
    129          1           0       -9.651600    3.717109    1.952966
    130          1           0       -8.424634    3.791079   -0.471052
    131          1           0       -7.253609    4.612934    0.397128
    132          1           0       -8.409659    6.457116    0.099378
    133          1           0       -9.339094    5.893408    1.452175
    134          1           0      -10.582528    4.571638   -0.643916
    135          1           0      -10.746656    7.379238   -1.624909
    136          1           0      -11.056297    5.975174   -2.414375
    137          1           0       -9.315579    6.417032   -2.155581
    138          1           0      -11.806496    7.157057    0.623625
    139          1           0      -11.445173    5.846605    1.501525
    140          1           0      -12.442357    5.553058    0.097585
 ---------------------------------------------------------------------

 SCF Done:  E(RB-LYP) =  -3007.39511821     A.U. after   21 cycles

 Excitation energies and oscillator strengths:

 Excited State   1:      Singlet-A      1.6686 eV  743.05 nm  f=0.0011  <S**2>=0.000
     244 -> 247        0.67577
     245 -> 247       -0.20201
 This state for optimization and/or second-order correction.
 Total Energy, E(TD-HF/TD-DFT) =  -3007.33379924
 Copying the excited state density for this state as the 1-particle RhoCI density.

 Excited State   2:      Singlet-A      1.8288 eV  677.96 nm  f=0.3200  <S**2>=0.000
     245 -> 248        0.17910
     246 -> 247        0.69142
     246 <- 247       -0.15232

 Excited State   3:      Singlet-A      2.0265 eV  611.81 nm  f=0.0049  <S**2>=0.000
     243 -> 247        0.68714
     245 -> 247        0.14730

 Excited State   4:      Singlet-A      2.0915 eV  592.79 nm  f=0.0668  <S**2>=0.000
     243 -> 247       -0.16213
     244 -> 247        0.17971
     245 -> 247        0.59761
     246 -> 248       -0.25453

 Excited State   5:      Singlet-A      2.4198 eV  512.38 nm  f=0.0008  <S**2>=0.000
     241 -> 247        0.70661

 The electronic state is 1-A.
 Alpha  occ. eigenvalues --  -46.26794 -18.82991 -18.82373 -18.76925 -18.75975
 Alpha  occ. eigenvalues --  -18.75673 -18.74394 -14.03709 -14.03429 -14.01050
 Alpha  occ. eigenvalues --  -14.00614 -10.04336 -10.03422 -10.00102  -9.99138
 Alpha  occ. eigenvalues --   -9.98356  -9.97759  -9.96888  -9.96836  -9.96660
 Alpha  occ. eigenvalues --   -9.96091  -9.96074  -9.95606  -9.94726  -9.94196
 Alpha  occ. eigenvalues --   -9.94108  -9.93971  -9.93934  -9.93914  -9.93784
 Alpha  occ. eigenvalues --   -9.93650  -9.93614  -9.93524  -9.93305  -9.93092
 Alpha  occ. eigenvalues --   -9.93021  -9.92832  -9.92613  -9.92578  -9.92570
 Alpha  occ. eigenvalues --   -9.92570  -9.92566  -9.92537  -9.92407  -9.92279
 Alpha  occ. eigenvalues --   -9.92204  -9.92181  -9.92113  -9.92053  -9.91986
 Alpha  occ. eigenvalues --   -9.91981  -9.91948  -9.91802  -9.91691  -9.91640
 Alpha  occ. eigenvalues --   -9.91422  -9.91172  -9.91099  -9.91094  -9.90915
 Alpha  occ. eigenvalues --   -9.90901  -9.90637  -9.90592  -9.90479  -9.90286
 Alpha  occ. eigenvalues --   -9.90274  -2.91542  -1.71964  -1.71418  -1.71260
 Alpha  occ. eigenvalues --   -0.97822  -0.97580  -0.91416  -0.89692  -0.89335
 Alpha  occ. eigenvalues --   -0.89151  -0.87188  -0.86308  -0.85834  -0.84810
 Alpha  occ. eigenvalues --   -0.75803  -0.73927  -0.73203  -0.72738  -0.72371
 Alpha  occ. eigenvalues --   -0.72178  -0.71850  -0.70802  -0.70759  -0.69938
 Alpha  occ. eigenvalues --   -0.69058  -0.69007  -0.68368  -0.67654  -0.67433
 Alpha  occ. eigenvalues --   -0.66948  -0.66058  -0.65310  -0.65153  -0.64658
 Alpha  occ. eigenvalues --   -0.64173  -0.62345  -0.62172  -0.61648  -0.60893
 Alpha  occ. eigenvalues --   -0.60649  -0.60191  -0.59683  -0.59645  -0.59133
 Alpha  occ. eigenvalues --   -0.58267  -0.57515  -0.56642  -0.55024  -0.54756
 Alpha  occ. eigenvalues --   -0.53847  -0.53534  -0.52829  -0.52091  -0.51856
 Alpha  occ. eigenvalues --   -0.51397  -0.50892  -0.50653  -0.50528  -0.50306
 Alpha  occ. eigenvalues --   -0.49583  -0.49204  -0.48825  -0.48652  -0.46349
 Alpha  occ. eigenvalues --   -0.45958  -0.45751  -0.45664  -0.45257  -0.44226
 Alpha  occ. eigenvalues --   -0.44019  -0.43625  -0.43230  -0.43110  -0.42781
 Alpha  occ. eigenvalues --   -0.42504  -0.41770  -0.41696  -0.41469  -0.40901
 Alpha  occ. eigenvalues --   -0.40808  -0.40635  -0.40378  -0.40267  -0.40182
 Alpha  occ. eigenvalues --   -0.40071  -0.39920  -0.39612  -0.39249  -0.38957
 Alpha  occ. eigenvalues --   -0.38897  -0.38724  -0.38449  -0.38312  -0.38153
 Alpha  occ. eigenvalues --   -0.38001  -0.37802  -0.37626  -0.37447  -0.37275
 Alpha  occ. eigenvalues --   -0.36963  -0.36879  -0.36785  -0.36455  -0.36303
 Alpha  occ. eigenvalues --   -0.36177  -0.36017  -0.35767  -0.35411  -0.35373
 Alpha  occ. eigenvalues --   -0.35042  -0.34910  -0.34822  -0.34806  -0.34574
 Alpha  occ. eigenvalues --   -0.34408  -0.34383  -0.34149  -0.34008  -0.33975
 Alpha  occ. eigenvalues --   -0.33768  -0.33643  -0.33455  -0.33293  -0.33183
 Alpha  occ. eigenvalues --   -0.33011  -0.32839  -0.32744  -0.32662  -0.32284
 Alpha  occ. eigenvalues --   -0.32166  -0.32076  -0.31685  -0.31502  -0.31437
 Alpha  occ. eigenvalues --   -0.31211  -0.31004  -0.30873  -0.30735  -0.30589
 Alpha  occ. eigenvalues --   -0.30414  -0.30353  -0.30129  -0.29997  -0.29869
 Alpha  occ. eigenvalues --   -0.29816  -0.29360  -0.29274  -0.29170  -0.28703
 Alpha  occ. eigenvalues --   -0.28600  -0.28529  -0.28151  -0.28037  -0.27864
 Alpha  occ. eigenvalues --   -0.27586  -0.27448  -0.26994  -0.26965  -0.26623
 Alpha  occ. eigenvalues --   -0.26556  -0.26131  -0.26002  -0.25401  -0.25251
 Alpha  occ. eigenvalues --   -0.25138  -0.24888  -0.24476  -0.24144  -0.23811
 Alpha  occ. eigenvalues --   -0.23231  -0.22461  -0.21704  -0.21497  -0.20836
 Alpha  occ. eigenvalues --   -0.20470  -0.20289  -0.18942  -0.17639  -0.17586
 Alpha  occ. eigenvalues --   -0.15876
 Alpha virt. eigenvalues --   -0.11582  -0.06888  -0.06128  -0.04880  -0.03356
 Alpha virt. eigenvalues --   -0.03226  -0.02629  -0.01865  -0.01126  -0.00244
 Alpha virt. eigenvalues --    0.00999   0.01281   0.01725   0.02629   0.03019

 Mulliken charges:
               1
     1  Mg   0.703662
     2  C    0.052434
     3  C   -0.064487
     4  C   -0.039649
     5  C   -0.111009
     6  N   -0.235731
     7  C   -0.036070
     8  C   -0.012717
     9  C    0.001465
    10  C   -0.008440
    11  C    0.122079
    12  C    0.105563
    13  C    0.171395
    14  C    0.040404
    15  O   -0.215219
    16  O   -0.245782
    17  N   -0.312607
    18  C    0.194398
    19  C   -0.142450
    20  C    0.069115
    21  C    0.091582
    22  C    0.204026
    23  C   -0.137689
    24  O   -0.199472
    25  C    0.174840
    26  N   -0.203260
    27  C    0.036993
    28  C    0.000899
    29  C    0.016608
    30  C    0.064357
    31  C    0.150064
    32  C    0.068609
    33  C    0.059124
    34  N   -0.189585
    35  C    0.104731
    36  C   -0.236528
    37  C    0.114422
    38  C    0.027678
    39  C    0.185286
    40  C   -0.050842
    41  O   -0.134297
    42  C    0.054967
    43  C    0.109150
    44  O   -0.184778
    45  O   -0.265228
    46  C    0.222071
    47  C    0.338950
    48  C   -0.109496
    49  C   -0.116157
    50  C    0.126713
    51  C    0.108434
    52  C    0.080353
    53  C    0.130259
    54  C   -0.100300
    55  C    0.095138
    56  C    0.143207
    57  C    0.075799
    58  C    0.069069
    59  C   -0.084775
    60  C    0.104300
    61  C    0.114632
    62  C    0.045766
    63  C    0.136987
    64  C   -0.063988
    65  C    0.122509
    66  C    0.078134
    67  H   -0.059088
    68  H   -0.097954
    69  H   -0.064373
    70  H   -0.013201
    71  H   -0.014822
    72  H   -0.006014
    73  H   -0.003929
    74  H   -0.011326
    75  H   -0.021214
    76  H   -0.030020
    77  H   -0.013695
    78  H   -0.002567
    79  H    0.003797
    80  H   -0.034656
    81  H    0.010966
    82  H   -0.017558
    83  H    0.007615
    84  H    0.027030
    85  H   -0.024014
    86  H   -0.025906
    87  H   -0.003597
    88  H   -0.009250
    89  H   -0.005826
    90  H   -0.026270
    91  H   -0.022661
    92  H    0.008765
    93  H   -0.008770
    94  H   -0.003756
    95  H    0.013662
    96  H    0.003749
    97  H   -0.009836
    98  H    0.010810
    99  H    0.003245
   100  H    0.002741
   101  H    0.030465
   102  H   -0.018635
   103  H    0.016521
   104  H   -0.039304
   105  H    0.006333
   106  H   -0.007173
   107  H    0.005168
   108  H   -0.047346
   109  H   -0.033241
   110  H   -0.023446
   111  H   -0.018809
   112  H   -0.028650
   113  H   -0.034118
   114  H   -0.026101
   115  H   -0.010138
   116  H   -0.013591
   117  H   -0.027088
   118  H   -0.041366
   119  H   -0.053926
   120  H   -0.027600
   121  H   -0.046171
   122  H   -0.039746
   123  H   -0.052309
   124  H   -0.032184
   125  H   -0.008422
   126  H   -0.002638
   127  H    0.000091
   128  H   -0.030528
   129  H   -0.037401
   130  H   -0.041223
   131  H   -0.041897
   132  H   -0.047871
   133  H   -0.048005
   134  H   -0.032784
   135  H   -0.025446
   136  H   -0.029768
   137  H   -0.006104
   138  H   -0.013718
   139  H   -0.030799
   140  H   -0.018730
 Sum of Mulliken charges =  -0.00000

 Dipole moment (field-independent basis, Debye):
    X=             -0.9692    Y=              0.6290    Z=              2.9568  Tot=              3.1745
 Quadrupole moment (field-independent basis, Debye-Ang):
   XX=           -365.1114   YY=           -421.7419   ZZ=           -407.8525
   XY=             36.9164   XZ=             14.8067   YZ=             21.7395

 Normal termination of Gaussian 16 at Thu May  5 02:57:52 2022.
