 Gaussian 16, Revision A.03,
 Gaussian 16:  ES64L-G16RevA.03 25-Dec-2016

 -----------------------------------
 #p cam-b3lyp/Def2SVP td=(nstates=5)
 -----------------------------------

 ------------------------------------------------------
 step_51_chromophore_23 TDDFT with cam-b3lyp functional
 ------------------------------------------------------
 Symbolic Z-matrix:
 Charge =  0 Multiplicity = 1

                         Standard orientation:
 ---------------------------------------------------------------------
 Center     Atomic      Atomic             Coordinates (Angstroms)
 Number     Number       Type             X           Y           Z
 ---------------------------------------------------------------------
      1         12           0        4.708574    0.941232   -0.435242
      2          6           0        3.828896   -2.530836   -0.236980
      3          6           0        2.161961    1.495578   -2.540273
      4          6           0        5.294476    4.157289    0.067651
      5          6           0        7.099775    0.210942    2.179848
      6          7           0        3.217711   -0.358639   -1.274515
      7          6           0        3.044663   -1.723768   -1.107385
      8          6           0        1.871962   -2.259491   -1.926245
      9          6           0        1.530547   -1.043227   -2.866751
     10          6           0        2.345743    0.136733   -2.213137
     11          6           0        1.964456   -1.216837   -4.348795
     12          6           0        0.651844   -2.679842   -1.074770
     13          6           0       -0.033885   -3.988610   -1.262324
     14          6           0       -1.481935   -3.996784   -1.770138
     15          8           0       -1.797648   -3.366109   -2.769112
     16          8           0       -2.273980   -4.868628   -1.137661
     17          7           0        3.861413    2.640112   -1.144731
     18          6           0        2.857711    2.611685   -2.051175
     19          6           0        2.578881    3.980431   -2.463235
     20          6           0        3.554876    4.803020   -1.788096
     21          6           0        4.344351    3.891717   -0.931236
     22          6           0        1.549812    4.328902   -3.487588
     23          6           0        3.587783    6.280164   -1.840094
     24          8           0        2.762957    6.820990   -2.604991
     25          6           0        4.469511    7.188861   -1.005606
     26          7           0        5.957607    1.948879    0.952577
     27          6           0        6.057637    3.279847    0.872868
     28          6           0        7.185375    3.854423    1.808991
     29          6           0        7.566210    2.610033    2.703748
     30          6           0        6.777388    1.522511    1.969736
     31          6           0        8.377662    4.368058    1.007031
     32          6           0        7.219647    2.796511    4.241951
     33          6           0        8.389678    2.798140    5.289342
     34          7           0        5.424219   -0.749612    0.668841
     35          6           0        6.394503   -0.848812    1.586220
     36          6           0        6.522316   -2.222994    2.043238
     37          6           0        5.610386   -2.930239    1.248565
     38          6           0        4.920184   -1.990278    0.494859
     39          6           0        7.509235   -2.659856    3.126246
     40          6           0        4.977606   -4.233808    0.976967
     41          8           0        5.179279   -5.343815    1.453385
     42          6           0        3.705984   -3.971173    0.082971
     43          6           0        3.687656   -5.032416   -1.028014
     44          8           0        4.321641   -5.014388   -2.087241
     45          8           0        2.788166   -5.994749   -0.662716
     46          6           0        3.086780   -7.312019   -1.305319
     47          6           0       -3.714546   -4.943422   -1.582770
     48          6           0       -4.620585   -4.716569   -0.357830
     49          6           0       -5.207975   -3.548589   -0.000813
     50          6           0       -5.128660   -2.243587   -0.815828
     51          6           0       -6.184260   -3.532826    1.189633
     52          6           0       -7.644465   -3.583330    0.895664
     53          6           0       -8.518099   -3.301440    2.159214
     54          6           0       -9.946813   -2.800844    1.700972
     55          6           0      -11.128908   -3.791457    2.038539
     56          6           0      -10.191334   -1.409359    2.329084
     57          6           0       -9.739584   -0.292074    1.376534
     58          6           0       -9.170082    0.911627    2.036599
     59          6           0       -8.676586    1.959901    0.991057
     60          6           0       -7.246803    1.460001    0.453773
     61          6           0       -8.668475    3.400006    1.604134
     62          6           0       -8.317352    4.382085    0.438516
     63          6           0       -9.060680    5.646414    0.427406
     64          6           0      -10.395346    5.617898   -0.404895
     65          6           0      -10.316508    6.383330   -1.725467
     66          6           0      -11.572830    6.106941    0.451337
     67          1           0        1.353414    1.606512   -3.266098
     68          1           0        5.500288    5.228733    0.095286
     69          1           0        7.805704   -0.080778    2.960329
     70          1           0        2.051607   -3.120981   -2.568557
     71          1           0        0.484790   -0.734524   -2.867463
     72          1           0        2.952391   -0.776960   -4.487741
     73          1           0        1.256312   -0.857212   -5.096034
     74          1           0        2.076637   -2.266502   -4.620593
     75          1           0       -0.154129   -1.957378   -1.202586
     76          1           0        1.054126   -2.568189   -0.067460
     77          1           0       -0.001163   -4.525622   -0.314467
     78          1           0        0.600587   -4.447380   -2.020210
     79          1           0        0.624164    4.728848   -3.073931
     80          1           0        1.244011    3.429475   -4.022732
     81          1           0        1.982356    5.009634   -4.221928
     82          1           0        4.408414    8.208105   -1.388293
     83          1           0        5.480410    6.889356   -1.281260
     84          1           0        4.172885    7.170538    0.042927
     85          1           0        6.684538    4.640149    2.374203
     86          1           0        8.621585    2.338643    2.711186
     87          1           0        9.263224    3.777850    1.244062
     88          1           0        8.482169    5.418881    1.279203
     89          1           0        8.163012    4.367068   -0.061373
     90          1           0        6.534165    1.963928    4.400776
     91          1           0        6.619374    3.681485    4.453216
     92          1           0        8.546795    3.837704    5.575055
     93          1           0        9.322185    2.304738    5.017234
     94          1           0        8.030008    2.157780    6.093806
     95          1           0        8.563619   -2.578162    2.862806
     96          1           0        7.194680   -3.639100    3.486594
     97          1           0        7.299023   -1.969741    3.942722
     98          1           0        2.794471   -4.193684    0.636911
     99          1           0        2.524574   -7.500587   -2.219686
    100          1           0        2.698367   -8.170544   -0.756594
    101          1           0        4.140070   -7.524549   -1.490726
    102          1           0       -3.744504   -5.986721   -1.896689
    103          1           0       -4.128798   -4.291253   -2.351338
    104          1           0       -4.982270   -5.603966    0.160745
    105          1           0       -4.501627   -1.572441   -0.227914
    106          1           0       -6.114426   -1.780178   -0.863149
    107          1           0       -4.826665   -2.302293   -1.861758
    108          1           0       -6.014404   -2.614427    1.750602
    109          1           0       -5.896637   -4.309619    1.897555
    110          1           0       -7.821828   -4.593031    0.525426
    111          1           0       -7.866046   -2.722054    0.264227
    112          1           0       -8.017507   -2.556195    2.776915
    113          1           0       -8.705593   -4.218343    2.718148
    114          1           0      -10.066842   -2.710539    0.621928
    115          1           0      -11.840941   -3.804001    1.213400
    116          1           0      -11.585399   -3.521578    2.989858
    117          1           0      -10.778471   -4.815638    2.173565
    118          1           0       -9.742632   -1.182813    3.296775
    119          1           0      -11.255334   -1.418334    2.564145
    120          1           0      -10.597723    0.044415    0.794169
    121          1           0       -8.893996   -0.640321    0.783884
    122          1           0       -8.418270    0.583202    2.753038
    123          1           0       -9.939035    1.375433    2.653791
    124          1           0       -9.436278    1.963407    0.210156
    125          1           0       -6.440651    2.185557    0.563556
    126          1           0       -7.400905    1.308865   -0.614486
    127          1           0       -7.007253    0.561231    1.020855
    128          1           0       -8.008487    3.604931    2.446271
    129          1           0       -9.651600    3.717109    1.952966
    130          1           0       -8.424634    3.791079   -0.471052
    131          1           0       -7.253609    4.612934    0.397128
    132          1           0       -8.409659    6.457116    0.099378
    133          1           0       -9.339094    5.893408    1.452175
    134          1           0      -10.582528    4.571638   -0.643916
    135          1           0      -10.746656    7.379238   -1.624909
    136          1           0      -11.056297    5.975174   -2.414375
    137          1           0       -9.315579    6.417032   -2.155581
    138          1           0      -11.806496    7.157057    0.623625
    139          1           0      -11.445173    5.846605    1.501525
    140          1           0      -12.442357    5.553058    0.097585
 ---------------------------------------------------------------------

 SCF Done:  E(RCAM-B3LYP) =  -3007.19084513     A.U. after   17 cycles

 Excitation energies and oscillator strengths:

 Excited State   1:      Singlet-A      1.7230 eV  719.57 nm  f=0.3890  <S**2>=0.000
     245 -> 248        0.17441
     246 -> 247        0.68742
     245 <- 248        0.10668
 This state for optimization and/or second-order correction.
 Total Energy, E(TD-HF/TD-DFT) =  -3007.12752457
 Copying the excited state density for this state as the 1-particle RhoCI density.

 Excited State   2:      Singlet-A      2.3136 eV  535.89 nm  f=0.0986  <S**2>=0.000
     245 -> 247        0.62840
     246 -> 248       -0.31195

 Excited State   3:      Singlet-A      3.3268 eV  372.68 nm  f=0.0010  <S**2>=0.000
     242 -> 247        0.33721
     242 -> 248       -0.11866
     242 -> 249        0.22254
     242 -> 250       -0.21590
     243 -> 247        0.30007
     243 -> 249        0.10566
     244 -> 247        0.36995

 Excited State   4:      Singlet-A      3.4328 eV  361.18 nm  f=0.0130  <S**2>=0.000
     242 -> 247       -0.41431
     242 -> 249       -0.15194
     242 -> 250        0.11733
     243 -> 247        0.11370
     244 -> 247        0.48167
     246 -> 248        0.13866

 Excited State   5:      Singlet-A      3.5481 eV  349.44 nm  f=0.0841  <S**2>=0.000
     240 -> 249        0.11484
     242 -> 247       -0.11585
     243 -> 247        0.49578
     244 -> 247       -0.30083
     245 -> 247        0.10028
     246 -> 248        0.29069

 The electronic state is 1-A.
 Alpha  occ. eigenvalues --  -46.88334 -19.25933 -19.25235 -19.20020 -19.19067
 Alpha  occ. eigenvalues --  -19.18555 -19.17799 -14.42717 -14.42241 -14.39637
 Alpha  occ. eigenvalues --  -14.38867 -10.39810 -10.38620 -10.35325 -10.34493
 Alpha  occ. eigenvalues --  -10.32563 -10.31784 -10.31611 -10.31360 -10.31170
 Alpha  occ. eigenvalues --  -10.30884 -10.30240 -10.30226 -10.28632 -10.28583
 Alpha  occ. eigenvalues --  -10.28436 -10.28172 -10.28088 -10.28075 -10.27959
 Alpha  occ. eigenvalues --  -10.27884 -10.27725 -10.27522 -10.27391 -10.27348
 Alpha  occ. eigenvalues --  -10.27144 -10.26956 -10.26724 -10.26513 -10.26481
 Alpha  occ. eigenvalues --  -10.26385 -10.26235 -10.26130 -10.26113 -10.26097
 Alpha  occ. eigenvalues --  -10.26090 -10.26026 -10.25942 -10.25840 -10.25657
 Alpha  occ. eigenvalues --  -10.25653 -10.25588 -10.25494 -10.25419 -10.25402
 Alpha  occ. eigenvalues --  -10.25285 -10.24941 -10.24872 -10.24716 -10.24570
 Alpha  occ. eigenvalues --  -10.24520 -10.24207 -10.24193 -10.24124 -10.23916
 Alpha  occ. eigenvalues --  -10.23900  -3.16990  -1.91886  -1.91442  -1.91301
 Alpha  occ. eigenvalues --   -1.16238  -1.16071  -1.09718  -1.08230  -1.07258
 Alpha  occ. eigenvalues --   -1.06976  -1.04814  -1.03909  -1.03575  -1.02410
 Alpha  occ. eigenvalues --   -0.92875  -0.90792  -0.90025  -0.89507  -0.89116
 Alpha  occ. eigenvalues --   -0.88896  -0.88508  -0.87373  -0.87339  -0.86341
 Alpha  occ. eigenvalues --   -0.85861  -0.85330  -0.84685  -0.83785  -0.83653
 Alpha  occ. eigenvalues --   -0.83097  -0.82213  -0.81331  -0.80963  -0.80521
 Alpha  occ. eigenvalues --   -0.79948  -0.77898  -0.77718  -0.77394  -0.76301
 Alpha  occ. eigenvalues --   -0.75987  -0.75553  -0.74969  -0.74939  -0.74383
 Alpha  occ. eigenvalues --   -0.73289  -0.72455  -0.71549  -0.69811  -0.69302
 Alpha  occ. eigenvalues --   -0.68372  -0.68095  -0.67529  -0.66388  -0.65908
 Alpha  occ. eigenvalues --   -0.65388  -0.65071  -0.64815  -0.64598  -0.64366
 Alpha  occ. eigenvalues --   -0.63533  -0.62955  -0.62698  -0.62301  -0.60015
 Alpha  occ. eigenvalues --   -0.59578  -0.59210  -0.59082  -0.58766  -0.57628
 Alpha  occ. eigenvalues --   -0.57387  -0.57149  -0.56458  -0.56212  -0.56018
 Alpha  occ. eigenvalues --   -0.55630  -0.54871  -0.54493  -0.54272  -0.53924
 Alpha  occ. eigenvalues --   -0.53756  -0.53574  -0.53193  -0.53061  -0.52916
 Alpha  occ. eigenvalues --   -0.52798  -0.52677  -0.52267  -0.52054  -0.51700
 Alpha  occ. eigenvalues --   -0.51202  -0.51194  -0.51069  -0.50650  -0.50600
 Alpha  occ. eigenvalues --   -0.50345  -0.50339  -0.50124  -0.49792  -0.49536
 Alpha  occ. eigenvalues --   -0.49427  -0.49154  -0.48942  -0.48768  -0.48647
 Alpha  occ. eigenvalues --   -0.48347  -0.48314  -0.48011  -0.47647  -0.47452
 Alpha  occ. eigenvalues --   -0.47291  -0.46947  -0.46814  -0.46719  -0.46631
 Alpha  occ. eigenvalues --   -0.46324  -0.46277  -0.46108  -0.45954  -0.45724
 Alpha  occ. eigenvalues --   -0.45627  -0.45327  -0.45132  -0.45054  -0.44951
 Alpha  occ. eigenvalues --   -0.44723  -0.44562  -0.44501  -0.44245  -0.43995
 Alpha  occ. eigenvalues --   -0.43691  -0.43575  -0.43357  -0.43190  -0.43105
 Alpha  occ. eigenvalues --   -0.42805  -0.42781  -0.42602  -0.42235  -0.42158
 Alpha  occ. eigenvalues --   -0.41831  -0.41760  -0.41446  -0.41396  -0.41354
 Alpha  occ. eigenvalues --   -0.41102  -0.40403  -0.40380  -0.40315  -0.39695
 Alpha  occ. eigenvalues --   -0.39644  -0.39530  -0.39126  -0.39078  -0.38756
 Alpha  occ. eigenvalues --   -0.38669  -0.38290  -0.37824  -0.37799  -0.37472
 Alpha  occ. eigenvalues --   -0.37319  -0.37213  -0.36785  -0.36701  -0.36278
 Alpha  occ. eigenvalues --   -0.36111  -0.35487  -0.35311  -0.34514  -0.34198
 Alpha  occ. eigenvalues --   -0.34125  -0.33333  -0.33232  -0.31254  -0.30853
 Alpha  occ. eigenvalues --   -0.30616  -0.30381  -0.29947  -0.29743  -0.24412
 Alpha  occ. eigenvalues --   -0.21151
 Alpha virt. eigenvalues --   -0.08654  -0.01711   0.00442   0.02029   0.02528
 Alpha virt. eigenvalues --    0.04192   0.04585   0.05412   0.06132   0.06560
 Alpha virt. eigenvalues --    0.07264   0.07862   0.08557   0.08935   0.09219

 Mulliken charges:
               1
     1  Mg   0.837694
     2  C    0.025244
     3  C   -0.078091
     4  C   -0.062235
     5  C   -0.110768
     6  N   -0.306655
     7  C    0.004563
     8  C   -0.060457
     9  C   -0.048701
    10  C    0.009534
    11  C    0.064504
    12  C    0.053496
    13  C    0.097729
    14  C    0.125496
    15  O   -0.258004
    16  O   -0.311252
    17  N   -0.405143
    18  C    0.199834
    19  C   -0.137612
    20  C   -0.005990
    21  C    0.126921
    22  C    0.146396
    23  C   -0.059855
    24  O   -0.239380
    25  C    0.088913
    26  N   -0.277453
    27  C    0.057355
    28  C   -0.051314
    29  C   -0.036573
    30  C    0.075528
    31  C    0.090311
    32  C    0.017610
    33  C   -0.002667
    34  N   -0.277769
    35  C    0.105896
    36  C   -0.228440
    37  C    0.028592
    38  C    0.058111
    39  C    0.130684
    40  C    0.049779
    41  O   -0.173253
    42  C   -0.014670
    43  C    0.193004
    44  O   -0.221491
    45  O   -0.328032
    46  C    0.182343
    47  C    0.301477
    48  C   -0.129788
    49  C   -0.136777
    50  C    0.068162
    51  C    0.051038
    52  C    0.029253
    53  C    0.079179
    54  C   -0.160183
    55  C    0.040782
    56  C    0.085122
    57  C    0.029756
    58  C    0.016659
    59  C   -0.142092
    60  C    0.047096
    61  C    0.066177
    62  C   -0.006720
    63  C    0.074711
    64  C   -0.124243
    65  C    0.062052
    66  C    0.019995
    67  H   -0.021727
    68  H   -0.061216
    69  H   -0.028194
    70  H    0.018881
    71  H    0.020297
    72  H    0.019383
    73  H    0.020745
    74  H    0.014476
    75  H    0.010600
    76  H    0.002695
    77  H    0.022436
    78  H    0.026924
    79  H    0.033594
    80  H   -0.007151
    81  H    0.040670
    82  H    0.021070
    83  H    0.034326
    84  H    0.055296
    85  H    0.010321
    86  H    0.008562
    87  H    0.021524
    88  H    0.014693
    89  H    0.019698
    90  H    0.004474
    91  H    0.004654
    92  H    0.030130
    93  H    0.013612
    94  H    0.019593
    95  H    0.038002
    96  H    0.030815
    97  H    0.013255
    98  H    0.051912
    99  H    0.025444
   100  H    0.027382
   101  H    0.054259
   102  H    0.013869
   103  H    0.047201
   104  H   -0.006336
   105  H    0.029961
   106  H    0.014128
   107  H    0.029747
   108  H   -0.018713
   109  H   -0.002071
   110  H    0.003395
   111  H    0.002502
   112  H   -0.001969
   113  H   -0.005268
   114  H    0.006958
   115  H    0.013748
   116  H    0.009400
   117  H   -0.002674
   118  H   -0.011381
   119  H   -0.021615
   120  H    0.000380
   121  H   -0.024058
   122  H   -0.012608
   123  H   -0.021892
   124  H   -0.001775
   125  H    0.016102
   126  H    0.019592
   127  H    0.018822
   128  H   -0.001476
   129  H   -0.010711
   130  H   -0.013117
   131  H   -0.012314
   132  H   -0.015901
   133  H   -0.017610
   134  H   -0.002730
   135  H   -0.001246
   136  H   -0.004292
   137  H    0.017483
   138  H    0.010954
   139  H   -0.007398
   140  H    0.006085
 Sum of Mulliken charges =  -0.00000

 Dipole moment (field-independent basis, Debye):
    X=             -1.1287    Y=              1.3042    Z=              2.7129  Tot=              3.2148
 Quadrupole moment (field-independent basis, Debye-Ang):
   XX=           -365.0686   YY=           -416.1353   ZZ=           -407.0454
   XY=             40.9171   XZ=             14.1928   YZ=             21.8472

 Normal termination of Gaussian 16 at Thu May  5 01:49:10 2022.
