 Gaussian 16, Revision A.03,
 Gaussian 16:  ES64L-G16RevA.03 25-Dec-2016

 ---------------------------------
 #p PBE1PBE/Def2SVP td=(nstates=5)
 ---------------------------------

 ----------------------------------------------------
 step_51_chromophore_23 TDDFT with PBE1PBE functional
 ----------------------------------------------------
 Symbolic Z-matrix:
 Charge =  0 Multiplicity = 1

                         Standard orientation:
 ---------------------------------------------------------------------
 Center     Atomic      Atomic             Coordinates (Angstroms)
 Number     Number       Type             X           Y           Z
 ---------------------------------------------------------------------
      1         12           0        4.708574    0.941232   -0.435242
      2          6           0        3.828896   -2.530836   -0.236980
      3          6           0        2.161961    1.495578   -2.540273
      4          6           0        5.294476    4.157289    0.067651
      5          6           0        7.099775    0.210942    2.179848
      6          7           0        3.217711   -0.358639   -1.274515
      7          6           0        3.044663   -1.723768   -1.107385
      8          6           0        1.871962   -2.259491   -1.926245
      9          6           0        1.530547   -1.043227   -2.866751
     10          6           0        2.345743    0.136733   -2.213137
     11          6           0        1.964456   -1.216837   -4.348795
     12          6           0        0.651844   -2.679842   -1.074770
     13          6           0       -0.033885   -3.988610   -1.262324
     14          6           0       -1.481935   -3.996784   -1.770138
     15          8           0       -1.797648   -3.366109   -2.769112
     16          8           0       -2.273980   -4.868628   -1.137661
     17          7           0        3.861413    2.640112   -1.144731
     18          6           0        2.857711    2.611685   -2.051175
     19          6           0        2.578881    3.980431   -2.463235
     20          6           0        3.554876    4.803020   -1.788096
     21          6           0        4.344351    3.891717   -0.931236
     22          6           0        1.549812    4.328902   -3.487588
     23          6           0        3.587783    6.280164   -1.840094
     24          8           0        2.762957    6.820990   -2.604991
     25          6           0        4.469511    7.188861   -1.005606
     26          7           0        5.957607    1.948879    0.952577
     27          6           0        6.057637    3.279847    0.872868
     28          6           0        7.185375    3.854423    1.808991
     29          6           0        7.566210    2.610033    2.703748
     30          6           0        6.777388    1.522511    1.969736
     31          6           0        8.377662    4.368058    1.007031
     32          6           0        7.219647    2.796511    4.241951
     33          6           0        8.389678    2.798140    5.289342
     34          7           0        5.424219   -0.749612    0.668841
     35          6           0        6.394503   -0.848812    1.586220
     36          6           0        6.522316   -2.222994    2.043238
     37          6           0        5.610386   -2.930239    1.248565
     38          6           0        4.920184   -1.990278    0.494859
     39          6           0        7.509235   -2.659856    3.126246
     40          6           0        4.977606   -4.233808    0.976967
     41          8           0        5.179279   -5.343815    1.453385
     42          6           0        3.705984   -3.971173    0.082971
     43          6           0        3.687656   -5.032416   -1.028014
     44          8           0        4.321641   -5.014388   -2.087241
     45          8           0        2.788166   -5.994749   -0.662716
     46          6           0        3.086780   -7.312019   -1.305319
     47          6           0       -3.714546   -4.943422   -1.582770
     48          6           0       -4.620585   -4.716569   -0.357830
     49          6           0       -5.207975   -3.548589   -0.000813
     50          6           0       -5.128660   -2.243587   -0.815828
     51          6           0       -6.184260   -3.532826    1.189633
     52          6           0       -7.644465   -3.583330    0.895664
     53          6           0       -8.518099   -3.301440    2.159214
     54          6           0       -9.946813   -2.800844    1.700972
     55          6           0      -11.128908   -3.791457    2.038539
     56          6           0      -10.191334   -1.409359    2.329084
     57          6           0       -9.739584   -0.292074    1.376534
     58          6           0       -9.170082    0.911627    2.036599
     59          6           0       -8.676586    1.959901    0.991057
     60          6           0       -7.246803    1.460001    0.453773
     61          6           0       -8.668475    3.400006    1.604134
     62          6           0       -8.317352    4.382085    0.438516
     63          6           0       -9.060680    5.646414    0.427406
     64          6           0      -10.395346    5.617898   -0.404895
     65          6           0      -10.316508    6.383330   -1.725467
     66          6           0      -11.572830    6.106941    0.451337
     67          1           0        1.353414    1.606512   -3.266098
     68          1           0        5.500288    5.228733    0.095286
     69          1           0        7.805704   -0.080778    2.960329
     70          1           0        2.051607   -3.120981   -2.568557
     71          1           0        0.484790   -0.734524   -2.867463
     72          1           0        2.952391   -0.776960   -4.487741
     73          1           0        1.256312   -0.857212   -5.096034
     74          1           0        2.076637   -2.266502   -4.620593
     75          1           0       -0.154129   -1.957378   -1.202586
     76          1           0        1.054126   -2.568189   -0.067460
     77          1           0       -0.001163   -4.525622   -0.314467
     78          1           0        0.600587   -4.447380   -2.020210
     79          1           0        0.624164    4.728848   -3.073931
     80          1           0        1.244011    3.429475   -4.022732
     81          1           0        1.982356    5.009634   -4.221928
     82          1           0        4.408414    8.208105   -1.388293
     83          1           0        5.480410    6.889356   -1.281260
     84          1           0        4.172885    7.170538    0.042927
     85          1           0        6.684538    4.640149    2.374203
     86          1           0        8.621585    2.338643    2.711186
     87          1           0        9.263224    3.777850    1.244062
     88          1           0        8.482169    5.418881    1.279203
     89          1           0        8.163012    4.367068   -0.061373
     90          1           0        6.534165    1.963928    4.400776
     91          1           0        6.619374    3.681485    4.453216
     92          1           0        8.546795    3.837704    5.575055
     93          1           0        9.322185    2.304738    5.017234
     94          1           0        8.030008    2.157780    6.093806
     95          1           0        8.563619   -2.578162    2.862806
     96          1           0        7.194680   -3.639100    3.486594
     97          1           0        7.299023   -1.969741    3.942722
     98          1           0        2.794471   -4.193684    0.636911
     99          1           0        2.524574   -7.500587   -2.219686
    100          1           0        2.698367   -8.170544   -0.756594
    101          1           0        4.140070   -7.524549   -1.490726
    102          1           0       -3.744504   -5.986721   -1.896689
    103          1           0       -4.128798   -4.291253   -2.351338
    104          1           0       -4.982270   -5.603966    0.160745
    105          1           0       -4.501627   -1.572441   -0.227914
    106          1           0       -6.114426   -1.780178   -0.863149
    107          1           0       -4.826665   -2.302293   -1.861758
    108          1           0       -6.014404   -2.614427    1.750602
    109          1           0       -5.896637   -4.309619    1.897555
    110          1           0       -7.821828   -4.593031    0.525426
    111          1           0       -7.866046   -2.722054    0.264227
    112          1           0       -8.017507   -2.556195    2.776915
    113          1           0       -8.705593   -4.218343    2.718148
    114          1           0      -10.066842   -2.710539    0.621928
    115          1           0      -11.840941   -3.804001    1.213400
    116          1           0      -11.585399   -3.521578    2.989858
    117          1           0      -10.778471   -4.815638    2.173565
    118          1           0       -9.742632   -1.182813    3.296775
    119          1           0      -11.255334   -1.418334    2.564145
    120          1           0      -10.597723    0.044415    0.794169
    121          1           0       -8.893996   -0.640321    0.783884
    122          1           0       -8.418270    0.583202    2.753038
    123          1           0       -9.939035    1.375433    2.653791
    124          1           0       -9.436278    1.963407    0.210156
    125          1           0       -6.440651    2.185557    0.563556
    126          1           0       -7.400905    1.308865   -0.614486
    127          1           0       -7.007253    0.561231    1.020855
    128          1           0       -8.008487    3.604931    2.446271
    129          1           0       -9.651600    3.717109    1.952966
    130          1           0       -8.424634    3.791079   -0.471052
    131          1           0       -7.253609    4.612934    0.397128
    132          1           0       -8.409659    6.457116    0.099378
    133          1           0       -9.339094    5.893408    1.452175
    134          1           0      -10.582528    4.571638   -0.643916
    135          1           0      -10.746656    7.379238   -1.624909
    136          1           0      -11.056297    5.975174   -2.414375
    137          1           0       -9.315579    6.417032   -2.155581
    138          1           0      -11.806496    7.157057    0.623625
    139          1           0      -11.445173    5.846605    1.501525
    140          1           0      -12.442357    5.553058    0.097585
 ---------------------------------------------------------------------

 SCF Done:  E(RPBE1PBE) =  -3005.37883625     A.U. after   15 cycles

 Excitation energies and oscillator strengths:

 Excited State   1:      Singlet-A      1.8727 eV  662.04 nm  f=0.3802  <S**2>=0.000
     245 -> 248        0.16959
     246 -> 247        0.69446
     246 <- 247       -0.10947
 This state for optimization and/or second-order correction.
 Total Energy, E(TD-HF/TD-DFT) =  -3005.31001396
 Copying the excited state density for this state as the 1-particle RhoCI density.

 Excited State   2:      Singlet-A      2.3158 eV  535.39 nm  f=0.0984  <S**2>=0.000
     245 -> 247        0.64112
     246 -> 248       -0.28593

 Excited State   3:      Singlet-A      2.8235 eV  439.11 nm  f=0.0005  <S**2>=0.000
     244 -> 247        0.66530
     244 -> 249       -0.13782
     244 -> 250        0.12492

 Excited State   4:      Singlet-A      3.0745 eV  403.26 nm  f=0.0003  <S**2>=0.000
     240 -> 247        0.17584
     242 -> 247        0.35710
     243 -> 247        0.55580

 Excited State   5:      Singlet-A      3.0919 eV  401.00 nm  f=0.0049  <S**2>=0.000
     240 -> 247        0.25616
     242 -> 247        0.48508
     243 -> 247       -0.40667

 The electronic state is 1-A.
 Alpha  occ. eigenvalues --  -46.91717 -19.26623 -19.25930 -19.20294 -19.19409
 Alpha  occ. eigenvalues --  -19.18858 -19.17894 -14.42192 -14.41775 -14.39172
 Alpha  occ. eigenvalues --  -14.38614 -10.36890 -10.35651 -10.32612 -10.31507
 Alpha  occ. eigenvalues --  -10.29965 -10.29188 -10.29080 -10.29048 -10.28981
 Alpha  occ. eigenvalues --  -10.28309 -10.28117 -10.27671 -10.26521 -10.26110
 Alpha  occ. eigenvalues --  -10.26075 -10.26027 -10.25878 -10.25782 -10.25777
 Alpha  occ. eigenvalues --  -10.25741 -10.25505 -10.25368 -10.25334 -10.24914
 Alpha  occ. eigenvalues --  -10.24689 -10.24587 -10.24424 -10.24120 -10.23977
 Alpha  occ. eigenvalues --  -10.23812 -10.23706 -10.23695 -10.23694 -10.23630
 Alpha  occ. eigenvalues --  -10.23612 -10.23601 -10.23548 -10.23477 -10.23301
 Alpha  occ. eigenvalues --  -10.23200 -10.23136 -10.23095 -10.22852 -10.22838
 Alpha  occ. eigenvalues --  -10.22698 -10.22698 -10.22421 -10.22151 -10.22146
 Alpha  occ. eigenvalues --  -10.22036 -10.21667 -10.21582 -10.21562 -10.21437
 Alpha  occ. eigenvalues --  -10.21413  -3.13948  -1.86786  -1.86321  -1.86182
 Alpha  occ. eigenvalues --   -1.11069  -1.10878  -1.04574  -1.02804  -1.02113
 Alpha  occ. eigenvalues --   -1.01848  -0.99532  -0.98602  -0.98138  -0.97007
 Alpha  occ. eigenvalues --   -0.87322  -0.84901  -0.84126  -0.83745  -0.83415
 Alpha  occ. eigenvalues --   -0.82999  -0.82782  -0.81684  -0.81472  -0.80767
 Alpha  occ. eigenvalues --   -0.80026  -0.79554  -0.78890  -0.78094  -0.77860
 Alpha  occ. eigenvalues --   -0.77273  -0.76391  -0.75537  -0.75260  -0.74803
 Alpha  occ. eigenvalues --   -0.74114  -0.72205  -0.72069  -0.71585  -0.70624
 Alpha  occ. eigenvalues --   -0.70166  -0.69625  -0.69293  -0.69065  -0.68569
 Alpha  occ. eigenvalues --   -0.67625  -0.66936  -0.65982  -0.64127  -0.63704
 Alpha  occ. eigenvalues --   -0.62873  -0.62339  -0.61890  -0.60630  -0.60331
 Alpha  occ. eigenvalues --   -0.59992  -0.59458  -0.59169  -0.59021  -0.58490
 Alpha  occ. eigenvalues --   -0.57700  -0.57408  -0.56956  -0.56937  -0.54536
 Alpha  occ. eigenvalues --   -0.54128  -0.53720  -0.53584  -0.53357  -0.52303
 Alpha  occ. eigenvalues --   -0.51818  -0.51596  -0.50983  -0.50544  -0.50493
 Alpha  occ. eigenvalues --   -0.50072  -0.49466  -0.48890  -0.48791  -0.48567
 Alpha  occ. eigenvalues --   -0.48342  -0.47953  -0.47718  -0.47715  -0.47411
 Alpha  occ. eigenvalues --   -0.47237  -0.47140  -0.46819  -0.46611  -0.46298
 Alpha  occ. eigenvalues --   -0.45781  -0.45686  -0.45579  -0.45224  -0.45144
 Alpha  occ. eigenvalues --   -0.45010  -0.44904  -0.44632  -0.44345  -0.44145
 Alpha  occ. eigenvalues --   -0.44034  -0.43713  -0.43504  -0.43374  -0.43285
 Alpha  occ. eigenvalues --   -0.43056  -0.42865  -0.42674  -0.42300  -0.42121
 Alpha  occ. eigenvalues --   -0.41933  -0.41664  -0.41524  -0.41329  -0.41263
 Alpha  occ. eigenvalues --   -0.41062  -0.40960  -0.40758  -0.40639  -0.40429
 Alpha  occ. eigenvalues --   -0.40247  -0.40004  -0.39848  -0.39813  -0.39710
 Alpha  occ. eigenvalues --   -0.39460  -0.39327  -0.39217  -0.38890  -0.38773
 Alpha  occ. eigenvalues --   -0.38468  -0.38240  -0.38115  -0.37988  -0.37880
 Alpha  occ. eigenvalues --   -0.37705  -0.37531  -0.37397  -0.37100  -0.36908
 Alpha  occ. eigenvalues --   -0.36582  -0.36481  -0.36337  -0.36275  -0.36234
 Alpha  occ. eigenvalues --   -0.35870  -0.35272  -0.35115  -0.35104  -0.34634
 Alpha  occ. eigenvalues --   -0.34409  -0.34317  -0.33978  -0.33823  -0.33651
 Alpha  occ. eigenvalues --   -0.33514  -0.33059  -0.32804  -0.32551  -0.32483
 Alpha  occ. eigenvalues --   -0.32228  -0.32180  -0.31670  -0.31645  -0.31297
 Alpha  occ. eigenvalues --   -0.31066  -0.30418  -0.30224  -0.29596  -0.29343
 Alpha  occ. eigenvalues --   -0.29185  -0.28745  -0.28057  -0.26882  -0.25994
 Alpha  occ. eigenvalues --   -0.25910  -0.25561  -0.25352  -0.24793  -0.21311
 Alpha  occ. eigenvalues --   -0.18796
 Alpha virt. eigenvalues --   -0.11152  -0.05219  -0.03806  -0.02327  -0.00444
 Alpha virt. eigenvalues --   -0.00239  -0.00088   0.01132   0.01829   0.02677
 Alpha virt. eigenvalues --    0.03809   0.04039   0.04689   0.05448   0.06003

 Mulliken charges:
               1
     1  Mg   0.985356
     2  C    0.017273
     3  C   -0.064927
     4  C   -0.055300
     5  C   -0.091844
     6  N   -0.414509
     7  C    0.079712
     8  C   -0.129668
     9  C   -0.124367
    10  C    0.046396
    11  C    0.011073
    12  C    0.011067
    13  C    0.015676
    14  C    0.199386
    15  O   -0.290391
    16  O   -0.343237
    17  N   -0.526808
    18  C    0.218405
    19  C   -0.161055
    20  C   -0.061071
    21  C    0.160449
    22  C    0.086827
    23  C   -0.008580
    24  O   -0.272102
    25  C    0.010169
    26  N   -0.382236
    27  C    0.084608
    28  C   -0.124769
    29  C   -0.108402
    30  C    0.107479
    31  C    0.034563
    32  C   -0.035697
    33  C   -0.075764
    34  N   -0.410282
    35  C    0.126988
    36  C   -0.233055
    37  C   -0.021539
    38  C    0.104578
    39  C    0.070916
    40  C    0.147965
    41  O   -0.217312
    42  C   -0.124094
    43  C    0.279421
    44  O   -0.256631
    45  O   -0.358878
    46  C    0.126238
    47  C    0.250683
    48  C   -0.137995
    49  C   -0.175109
    50  C    0.005402
    51  C   -0.013232
    52  C   -0.045695
    53  C    0.030553
    54  C   -0.247116
    55  C   -0.019215
    56  C    0.032342
    57  C   -0.038317
    58  C   -0.041175
    59  C   -0.231507
    60  C   -0.013102
    61  C    0.015479
    62  C   -0.068418
    63  C    0.016417
    64  C   -0.218815
    65  C    0.002112
    66  C   -0.038520
    67  H    0.009384
    68  H   -0.023643
    69  H    0.002243
    70  H    0.056243
    71  H    0.054867
    72  H    0.047444
    73  H    0.047361
    74  H    0.041397
    75  H    0.043871
    76  H    0.037342
    77  H    0.054218
    78  H    0.060664
    79  H    0.060461
    80  H    0.019972
    81  H    0.067126
    82  H    0.049110
    83  H    0.059997
    84  H    0.080642
    85  H    0.045751
    86  H    0.044824
    87  H    0.048024
    88  H    0.042199
    89  H    0.047904
    90  H    0.037973
    91  H    0.036703
    92  H    0.057633
    93  H    0.039923
    94  H    0.047294
    95  H    0.066149
    96  H    0.060342
    97  H    0.041846
    98  H    0.089492
    99  H    0.047259
   100  H    0.049637
   101  H    0.075297
   102  H    0.041997
   103  H    0.072898
   104  H    0.023079
   105  H    0.058408
   106  H    0.041939
   107  H    0.055167
   108  H    0.015867
   109  H    0.030117
   110  H    0.037106
   111  H    0.039283
   112  H    0.029066
   113  H    0.027668
   114  H    0.044229
   115  H    0.041425
   116  H    0.036564
   117  H    0.025269
   118  H    0.020316
   119  H    0.012358
   120  H    0.033578
   121  H    0.015429
   122  H    0.020450
   123  H    0.012569
   124  H    0.035936
   125  H    0.043700
   126  H    0.046317
   127  H    0.046015
   128  H    0.030443
   129  H    0.023438
   130  H    0.020725
   131  H    0.020666
   132  H    0.016819
   133  H    0.015856
   134  H    0.035700
   135  H    0.026509
   136  H    0.024055
   137  H    0.044286
   138  H    0.037191
   139  H    0.019460
   140  H    0.034350
 Sum of Mulliken charges =  -0.00000

 Dipole moment (field-independent basis, Debye):
    X=             -1.0281    Y=              1.0038    Z=              2.9897  Tot=              3.3171
 Quadrupole moment (field-independent basis, Debye-Ang):
   XX=           -358.7849   YY=           -413.8615   ZZ=           -403.4223
   XY=             40.1901   XZ=             16.2260   YZ=             22.3360

 Normal termination of Gaussian 16 at Thu May  5 02:10:01 2022.
