 Gaussian 16, Revision A.03,
 Gaussian 16:  ES64L-G16RevA.03 25-Dec-2016

 --------------------------------
 #p wB97XD/Def2SVP td=(nstates=5)
 --------------------------------

 ---------------------------------------------------
 step_51_chromophore_23 TDDFT with wB97XD functional
 ---------------------------------------------------
 Symbolic Z-matrix:
 Charge =  0 Multiplicity = 1

                         Standard orientation:
 ---------------------------------------------------------------------
 Center     Atomic      Atomic             Coordinates (Angstroms)
 Number     Number       Type             X           Y           Z
 ---------------------------------------------------------------------
      1         12           0        4.708574    0.941232   -0.435242
      2          6           0        3.828896   -2.530836   -0.236980
      3          6           0        2.161961    1.495578   -2.540273
      4          6           0        5.294476    4.157289    0.067651
      5          6           0        7.099775    0.210942    2.179848
      6          7           0        3.217711   -0.358639   -1.274515
      7          6           0        3.044663   -1.723768   -1.107385
      8          6           0        1.871962   -2.259491   -1.926245
      9          6           0        1.530547   -1.043227   -2.866751
     10          6           0        2.345743    0.136733   -2.213137
     11          6           0        1.964456   -1.216837   -4.348795
     12          6           0        0.651844   -2.679842   -1.074770
     13          6           0       -0.033885   -3.988610   -1.262324
     14          6           0       -1.481935   -3.996784   -1.770138
     15          8           0       -1.797648   -3.366109   -2.769112
     16          8           0       -2.273980   -4.868628   -1.137661
     17          7           0        3.861413    2.640112   -1.144731
     18          6           0        2.857711    2.611685   -2.051175
     19          6           0        2.578881    3.980431   -2.463235
     20          6           0        3.554876    4.803020   -1.788096
     21          6           0        4.344351    3.891717   -0.931236
     22          6           0        1.549812    4.328902   -3.487588
     23          6           0        3.587783    6.280164   -1.840094
     24          8           0        2.762957    6.820990   -2.604991
     25          6           0        4.469511    7.188861   -1.005606
     26          7           0        5.957607    1.948879    0.952577
     27          6           0        6.057637    3.279847    0.872868
     28          6           0        7.185375    3.854423    1.808991
     29          6           0        7.566210    2.610033    2.703748
     30          6           0        6.777388    1.522511    1.969736
     31          6           0        8.377662    4.368058    1.007031
     32          6           0        7.219647    2.796511    4.241951
     33          6           0        8.389678    2.798140    5.289342
     34          7           0        5.424219   -0.749612    0.668841
     35          6           0        6.394503   -0.848812    1.586220
     36          6           0        6.522316   -2.222994    2.043238
     37          6           0        5.610386   -2.930239    1.248565
     38          6           0        4.920184   -1.990278    0.494859
     39          6           0        7.509235   -2.659856    3.126246
     40          6           0        4.977606   -4.233808    0.976967
     41          8           0        5.179279   -5.343815    1.453385
     42          6           0        3.705984   -3.971173    0.082971
     43          6           0        3.687656   -5.032416   -1.028014
     44          8           0        4.321641   -5.014388   -2.087241
     45          8           0        2.788166   -5.994749   -0.662716
     46          6           0        3.086780   -7.312019   -1.305319
     47          6           0       -3.714546   -4.943422   -1.582770
     48          6           0       -4.620585   -4.716569   -0.357830
     49          6           0       -5.207975   -3.548589   -0.000813
     50          6           0       -5.128660   -2.243587   -0.815828
     51          6           0       -6.184260   -3.532826    1.189633
     52          6           0       -7.644465   -3.583330    0.895664
     53          6           0       -8.518099   -3.301440    2.159214
     54          6           0       -9.946813   -2.800844    1.700972
     55          6           0      -11.128908   -3.791457    2.038539
     56          6           0      -10.191334   -1.409359    2.329084
     57          6           0       -9.739584   -0.292074    1.376534
     58          6           0       -9.170082    0.911627    2.036599
     59          6           0       -8.676586    1.959901    0.991057
     60          6           0       -7.246803    1.460001    0.453773
     61          6           0       -8.668475    3.400006    1.604134
     62          6           0       -8.317352    4.382085    0.438516
     63          6           0       -9.060680    5.646414    0.427406
     64          6           0      -10.395346    5.617898   -0.404895
     65          6           0      -10.316508    6.383330   -1.725467
     66          6           0      -11.572830    6.106941    0.451337
     67          1           0        1.353414    1.606512   -3.266098
     68          1           0        5.500288    5.228733    0.095286
     69          1           0        7.805704   -0.080778    2.960329
     70          1           0        2.051607   -3.120981   -2.568557
     71          1           0        0.484790   -0.734524   -2.867463
     72          1           0        2.952391   -0.776960   -4.487741
     73          1           0        1.256312   -0.857212   -5.096034
     74          1           0        2.076637   -2.266502   -4.620593
     75          1           0       -0.154129   -1.957378   -1.202586
     76          1           0        1.054126   -2.568189   -0.067460
     77          1           0       -0.001163   -4.525622   -0.314467
     78          1           0        0.600587   -4.447380   -2.020210
     79          1           0        0.624164    4.728848   -3.073931
     80          1           0        1.244011    3.429475   -4.022732
     81          1           0        1.982356    5.009634   -4.221928
     82          1           0        4.408414    8.208105   -1.388293
     83          1           0        5.480410    6.889356   -1.281260
     84          1           0        4.172885    7.170538    0.042927
     85          1           0        6.684538    4.640149    2.374203
     86          1           0        8.621585    2.338643    2.711186
     87          1           0        9.263224    3.777850    1.244062
     88          1           0        8.482169    5.418881    1.279203
     89          1           0        8.163012    4.367068   -0.061373
     90          1           0        6.534165    1.963928    4.400776
     91          1           0        6.619374    3.681485    4.453216
     92          1           0        8.546795    3.837704    5.575055
     93          1           0        9.322185    2.304738    5.017234
     94          1           0        8.030008    2.157780    6.093806
     95          1           0        8.563619   -2.578162    2.862806
     96          1           0        7.194680   -3.639100    3.486594
     97          1           0        7.299023   -1.969741    3.942722
     98          1           0        2.794471   -4.193684    0.636911
     99          1           0        2.524574   -7.500587   -2.219686
    100          1           0        2.698367   -8.170544   -0.756594
    101          1           0        4.140070   -7.524549   -1.490726
    102          1           0       -3.744504   -5.986721   -1.896689
    103          1           0       -4.128798   -4.291253   -2.351338
    104          1           0       -4.982270   -5.603966    0.160745
    105          1           0       -4.501627   -1.572441   -0.227914
    106          1           0       -6.114426   -1.780178   -0.863149
    107          1           0       -4.826665   -2.302293   -1.861758
    108          1           0       -6.014404   -2.614427    1.750602
    109          1           0       -5.896637   -4.309619    1.897555
    110          1           0       -7.821828   -4.593031    0.525426
    111          1           0       -7.866046   -2.722054    0.264227
    112          1           0       -8.017507   -2.556195    2.776915
    113          1           0       -8.705593   -4.218343    2.718148
    114          1           0      -10.066842   -2.710539    0.621928
    115          1           0      -11.840941   -3.804001    1.213400
    116          1           0      -11.585399   -3.521578    2.989858
    117          1           0      -10.778471   -4.815638    2.173565
    118          1           0       -9.742632   -1.182813    3.296775
    119          1           0      -11.255334   -1.418334    2.564145
    120          1           0      -10.597723    0.044415    0.794169
    121          1           0       -8.893996   -0.640321    0.783884
    122          1           0       -8.418270    0.583202    2.753038
    123          1           0       -9.939035    1.375433    2.653791
    124          1           0       -9.436278    1.963407    0.210156
    125          1           0       -6.440651    2.185557    0.563556
    126          1           0       -7.400905    1.308865   -0.614486
    127          1           0       -7.007253    0.561231    1.020855
    128          1           0       -8.008487    3.604931    2.446271
    129          1           0       -9.651600    3.717109    1.952966
    130          1           0       -8.424634    3.791079   -0.471052
    131          1           0       -7.253609    4.612934    0.397128
    132          1           0       -8.409659    6.457116    0.099378
    133          1           0       -9.339094    5.893408    1.452175
    134          1           0      -10.582528    4.571638   -0.643916
    135          1           0      -10.746656    7.379238   -1.624909
    136          1           0      -11.056297    5.975174   -2.414375
    137          1           0       -9.315579    6.417032   -2.155581
    138          1           0      -11.806496    7.157057    0.623625
    139          1           0      -11.445173    5.846605    1.501525
    140          1           0      -12.442357    5.553058    0.097585
 ---------------------------------------------------------------------

 SCF Done:  E(RwB97XD) =  -3007.88741957     A.U. after   17 cycles

 Excitation energies and oscillator strengths:

 Excited State   1:      Singlet-A      1.6718 eV  741.61 nm  f=0.3867  <S**2>=0.000
     245 -> 248        0.17899
     246 -> 247        0.68520
     245 <- 248        0.11519
 This state for optimization and/or second-order correction.
 Total Energy, E(TD-HF/TD-DFT) =  -3007.82598143
 Copying the excited state density for this state as the 1-particle RhoCI density.

 Excited State   2:      Singlet-A      2.2611 eV  548.33 nm  f=0.0960  <S**2>=0.000
     245 -> 247        0.62652
     246 -> 248       -0.31345

 Excited State   3:      Singlet-A      3.3289 eV  372.45 nm  f=0.0009  <S**2>=0.000
     242 -> 247        0.21866
     242 -> 248       -0.10000
     242 -> 249        0.19830
     242 -> 250        0.19038
     243 -> 247        0.40871
     243 -> 249        0.19524
     243 -> 250        0.14751
     244 -> 247       -0.31414
     244 -> 249       -0.10130

 Excited State   4:      Singlet-A      3.4524 eV  359.12 nm  f=0.0239  <S**2>=0.000
     242 -> 247        0.48236
     242 -> 249        0.14961
     243 -> 247       -0.10691
     244 -> 247        0.40736
     246 -> 248       -0.17317

 Excited State   5:      Singlet-A      3.5770 eV  346.61 nm  f=0.1995  <S**2>=0.000
     242 -> 247       -0.12408
     243 -> 247        0.34699
     244 -> 247        0.39596
     245 -> 247        0.15270
     246 -> 248        0.38127

 The electronic state is 1-A.
 Alpha  occ. eigenvalues --  -46.94690 -19.31141 -19.30476 -19.24970 -19.24082
 Alpha  occ. eigenvalues --  -19.23513 -19.22875 -14.47339 -14.46827 -14.44256
 Alpha  occ. eigenvalues --  -14.43431 -10.43683 -10.42421 -10.39320 -10.38498
 Alpha  occ. eigenvalues --  -10.36480 -10.35673 -10.35535 -10.35448 -10.35173
 Alpha  occ. eigenvalues --  -10.34995 -10.34326 -10.34199 -10.32861 -10.32512
 Alpha  occ. eigenvalues --  -10.32467 -10.32195 -10.32105 -10.32104 -10.32001
 Alpha  occ. eigenvalues --  -10.31933 -10.31793 -10.31583 -10.31490 -10.31406
 Alpha  occ. eigenvalues --  -10.31309 -10.31033 -10.30649 -10.30412 -10.30392
 Alpha  occ. eigenvalues --  -10.30373 -10.30070 -10.30062 -10.29969 -10.29964
 Alpha  occ. eigenvalues --  -10.29946 -10.29939 -10.29939 -10.29785 -10.29595
 Alpha  occ. eigenvalues --  -10.29581 -10.29516 -10.29445 -10.29392 -10.29268
 Alpha  occ. eigenvalues --  -10.29128 -10.28936 -10.28799 -10.28555 -10.28507
 Alpha  occ. eigenvalues --  -10.28430 -10.28038 -10.28014 -10.28008 -10.27811
 Alpha  occ. eigenvalues --  -10.27793  -3.20762  -1.94352  -1.93888  -1.93745
 Alpha  occ. eigenvalues --   -1.18433  -1.18242  -1.11923  -1.10476  -1.09451
 Alpha  occ. eigenvalues --   -1.09175  -1.06805  -1.05952  -1.05606  -1.04435
 Alpha  occ. eigenvalues --   -0.94832  -0.92572  -0.91796  -0.91352  -0.91049
 Alpha  occ. eigenvalues --   -0.90665  -0.90386  -0.89300  -0.89138  -0.88268
 Alpha  occ. eigenvalues --   -0.87862  -0.87190  -0.86540  -0.85664  -0.85533
 Alpha  occ. eigenvalues --   -0.84941  -0.84132  -0.83242  -0.82894  -0.82433
 Alpha  occ. eigenvalues --   -0.81778  -0.79808  -0.79661  -0.79323  -0.78215
 Alpha  occ. eigenvalues --   -0.77832  -0.77328  -0.76912  -0.76764  -0.76226
 Alpha  occ. eigenvalues --   -0.75214  -0.74424  -0.73533  -0.71745  -0.71211
 Alpha  occ. eigenvalues --   -0.70357  -0.69970  -0.69561  -0.68259  -0.67812
 Alpha  occ. eigenvalues --   -0.67408  -0.67013  -0.66665  -0.66592  -0.66178
 Alpha  occ. eigenvalues --   -0.65347  -0.64900  -0.64557  -0.64297  -0.62031
 Alpha  occ. eigenvalues --   -0.61536  -0.61109  -0.61062  -0.60763  -0.59637
 Alpha  occ. eigenvalues --   -0.59301  -0.59083  -0.58437  -0.58062  -0.57945
 Alpha  occ. eigenvalues --   -0.57523  -0.56848  -0.56350  -0.56175  -0.55883
 Alpha  occ. eigenvalues --   -0.55696  -0.55426  -0.55111  -0.55016  -0.54848
 Alpha  occ. eigenvalues --   -0.54674  -0.54588  -0.54184  -0.53966  -0.53642
 Alpha  occ. eigenvalues --   -0.53161  -0.53050  -0.52950  -0.52579  -0.52511
 Alpha  occ. eigenvalues --   -0.52263  -0.52238  -0.52064  -0.51704  -0.51426
 Alpha  occ. eigenvalues --   -0.51346  -0.51145  -0.50819  -0.50644  -0.50579
 Alpha  occ. eigenvalues --   -0.50263  -0.50173  -0.49901  -0.49564  -0.49345
 Alpha  occ. eigenvalues --   -0.49237  -0.48899  -0.48726  -0.48662  -0.48511
 Alpha  occ. eigenvalues --   -0.48283  -0.48198  -0.47978  -0.47868  -0.47616
 Alpha  occ. eigenvalues --   -0.47472  -0.47230  -0.47025  -0.46953  -0.46884
 Alpha  occ. eigenvalues --   -0.46631  -0.46432  -0.46404  -0.46091  -0.45924
 Alpha  occ. eigenvalues --   -0.45603  -0.45448  -0.45286  -0.45172  -0.45018
 Alpha  occ. eigenvalues --   -0.44742  -0.44695  -0.44535  -0.44180  -0.44051
 Alpha  occ. eigenvalues --   -0.43874  -0.43627  -0.43386  -0.43295  -0.43238
 Alpha  occ. eigenvalues --   -0.42977  -0.42276  -0.42240  -0.42176  -0.41593
 Alpha  occ. eigenvalues --   -0.41486  -0.41379  -0.41035  -0.40904  -0.40677
 Alpha  occ. eigenvalues --   -0.40532  -0.40122  -0.39756  -0.39629  -0.39484
 Alpha  occ. eigenvalues --   -0.39206  -0.39176  -0.38695  -0.38643  -0.38229
 Alpha  occ. eigenvalues --   -0.38052  -0.37342  -0.37177  -0.36539  -0.36113
 Alpha  occ. eigenvalues --   -0.36027  -0.35513  -0.35151  -0.33464  -0.32828
 Alpha  occ. eigenvalues --   -0.32634  -0.32405  -0.32075  -0.31904  -0.26342
 Alpha  occ. eigenvalues --   -0.22969
 Alpha virt. eigenvalues --   -0.06998   0.00201   0.02505   0.04169   0.05599
 Alpha virt. eigenvalues --    0.06356   0.06727   0.07814   0.08645   0.09167
 Alpha virt. eigenvalues --    0.10368   0.10573   0.11419   0.12160   0.12727

 Mulliken charges:
               1
     1  Mg   0.975573
     2  C    0.010855
     3  C   -0.086613
     4  C   -0.071415
     5  C   -0.110913
     6  N   -0.379106
     7  C    0.047619
     8  C   -0.102230
     9  C   -0.098090
    10  C    0.033865
    11  C    0.018704
    12  C    0.019870
    13  C    0.033481
    14  C    0.188116
    15  O   -0.288022
    16  O   -0.342122
    17  N   -0.492047
    18  C    0.213847
    19  C   -0.150935
    20  C   -0.052574
    21  C    0.154990
    22  C    0.097901
    23  C   -0.014149
    24  O   -0.267494
    25  C    0.023362
    26  N   -0.350240
    27  C    0.078191
    28  C   -0.100838
    29  C   -0.082426
    30  C    0.095620
    31  C    0.043450
    32  C   -0.024295
    33  C   -0.059319
    34  N   -0.367660
    35  C    0.117053
    36  C   -0.235385
    37  C   -0.017747
    38  C    0.088468
    39  C    0.083001
    40  C    0.128495
    41  O   -0.209561
    42  C   -0.079492
    43  C    0.253214
    44  O   -0.250085
    45  O   -0.357600
    46  C    0.142332
    47  C    0.266597
    48  C   -0.149099
    49  C   -0.164255
    50  C    0.020012
    51  C    0.008010
    52  C   -0.016705
    53  C    0.040754
    54  C   -0.216675
    55  C   -0.006254
    56  C    0.044985
    57  C   -0.011765
    58  C   -0.021132
    59  C   -0.196979
    60  C   -0.001224
    61  C    0.024485
    62  C   -0.048187
    63  C    0.032269
    64  C   -0.189675
    65  C    0.013097
    66  C   -0.026000
    67  H    0.004088
    68  H   -0.036744
    69  H   -0.003700
    70  H    0.039890
    71  H    0.046511
    72  H    0.040619
    73  H    0.042938
    74  H    0.036760
    75  H    0.033961
    76  H    0.027274
    77  H    0.050636
    78  H    0.051909
    79  H    0.058567
    80  H    0.015124
    81  H    0.064197
    82  H    0.048550
    83  H    0.054605
    84  H    0.077724
    85  H    0.036124
    86  H    0.031974
    87  H    0.043457
    88  H    0.036998
    89  H    0.040727
    90  H    0.028592
    91  H    0.029027
    92  H    0.051629
    93  H    0.034109
    94  H    0.041262
    95  H    0.061051
    96  H    0.056093
    97  H    0.033628
    98  H    0.080687
    99  H    0.042837
   100  H    0.045922
   101  H    0.071445
   102  H    0.039457
   103  H    0.066730
   104  H    0.020243
   105  H    0.052344
   106  H    0.034641
   107  H    0.051169
   108  H    0.005071
   109  H    0.023026
   110  H    0.028829
   111  H    0.019267
   112  H    0.018371
   113  H    0.019632
   114  H    0.031694
   115  H    0.036438
   116  H    0.029917
   117  H    0.018773
   118  H    0.011143
   119  H    0.003922
   120  H    0.025661
   121  H   -0.007081
   122  H    0.009079
   123  H    0.003366
   124  H    0.021108
   125  H    0.038381
   126  H    0.040633
   127  H    0.037050
   128  H    0.024244
   129  H    0.011240
   130  H    0.006911
   131  H    0.012834
   132  H    0.010207
   133  H    0.004992
   134  H    0.022939
   135  H    0.019565
   136  H    0.018234
   137  H    0.039117
   138  H    0.032041
   139  H    0.011663
   140  H    0.028771
 Sum of Mulliken charges =  -0.00000

 Dipole moment (field-independent basis, Debye):
    X=             -1.2003    Y=              1.4557    Z=              2.6648  Tot=              3.2651
 Quadrupole moment (field-independent basis, Debye-Ang):
   XX=           -360.9163   YY=           -411.2800   ZZ=           -403.3551
   XY=             41.9745   XZ=             14.5422   YZ=             21.5568

 Normal termination of Gaussian 16 at Thu May  5 02:42:48 2022.
