 Gaussian 16, Revision A.03,
 Gaussian 16:  ES64L-G16RevA.03 25-Dec-2016

 --------------------
 #p ZINDO=(nstates=5)
 --------------------

 ----------------------------
 step_51_chromophore_23 ZINDO
 ----------------------------
 Symbolic Z-matrix:
 Charge =  0 Multiplicity = 1

                         Standard orientation:
 ---------------------------------------------------------------------
 Center     Atomic      Atomic             Coordinates (Angstroms)
 Number     Number       Type             X           Y           Z
 ---------------------------------------------------------------------
      1         12           0        4.708574    0.941232   -0.435242
      2          6           0        3.828896   -2.530836   -0.236980
      3          6           0        2.161961    1.495578   -2.540273
      4          6           0        5.294476    4.157289    0.067651
      5          6           0        7.099775    0.210942    2.179848
      6          7           0        3.217711   -0.358639   -1.274515
      7          6           0        3.044663   -1.723768   -1.107385
      8          6           0        1.871962   -2.259491   -1.926245
      9          6           0        1.530547   -1.043227   -2.866751
     10          6           0        2.345743    0.136733   -2.213137
     11          6           0        1.964456   -1.216837   -4.348795
     12          6           0        0.651844   -2.679842   -1.074770
     13          6           0       -0.033885   -3.988610   -1.262324
     14          6           0       -1.481935   -3.996784   -1.770138
     15          8           0       -1.797648   -3.366109   -2.769112
     16          8           0       -2.273980   -4.868628   -1.137661
     17          7           0        3.861413    2.640112   -1.144731
     18          6           0        2.857711    2.611685   -2.051175
     19          6           0        2.578881    3.980431   -2.463235
     20          6           0        3.554876    4.803020   -1.788096
     21          6           0        4.344351    3.891717   -0.931236
     22          6           0        1.549812    4.328902   -3.487588
     23          6           0        3.587783    6.280164   -1.840094
     24          8           0        2.762957    6.820990   -2.604991
     25          6           0        4.469511    7.188861   -1.005606
     26          7           0        5.957607    1.948879    0.952577
     27          6           0        6.057637    3.279847    0.872868
     28          6           0        7.185375    3.854423    1.808991
     29          6           0        7.566210    2.610033    2.703748
     30          6           0        6.777388    1.522511    1.969736
     31          6           0        8.377662    4.368058    1.007031
     32          6           0        7.219647    2.796511    4.241951
     33          6           0        8.389678    2.798140    5.289342
     34          7           0        5.424219   -0.749612    0.668841
     35          6           0        6.394503   -0.848812    1.586220
     36          6           0        6.522316   -2.222994    2.043238
     37          6           0        5.610386   -2.930239    1.248565
     38          6           0        4.920184   -1.990278    0.494859
     39          6           0        7.509235   -2.659856    3.126246
     40          6           0        4.977606   -4.233808    0.976967
     41          8           0        5.179279   -5.343815    1.453385
     42          6           0        3.705984   -3.971173    0.082971
     43          6           0        3.687656   -5.032416   -1.028014
     44          8           0        4.321641   -5.014388   -2.087241
     45          8           0        2.788166   -5.994749   -0.662716
     46          6           0        3.086780   -7.312019   -1.305319
     47          6           0       -3.714546   -4.943422   -1.582770
     48          6           0       -4.620585   -4.716569   -0.357830
     49          6           0       -5.207975   -3.548589   -0.000813
     50          6           0       -5.128660   -2.243587   -0.815828
     51          6           0       -6.184260   -3.532826    1.189633
     52          6           0       -7.644465   -3.583330    0.895664
     53          6           0       -8.518099   -3.301440    2.159214
     54          6           0       -9.946813   -2.800844    1.700972
     55          6           0      -11.128908   -3.791457    2.038539
     56          6           0      -10.191334   -1.409359    2.329084
     57          6           0       -9.739584   -0.292074    1.376534
     58          6           0       -9.170082    0.911627    2.036599
     59          6           0       -8.676586    1.959901    0.991057
     60          6           0       -7.246803    1.460001    0.453773
     61          6           0       -8.668475    3.400006    1.604134
     62          6           0       -8.317352    4.382085    0.438516
     63          6           0       -9.060680    5.646414    0.427406
     64          6           0      -10.395346    5.617898   -0.404895
     65          6           0      -10.316508    6.383330   -1.725467
     66          6           0      -11.572830    6.106941    0.451337
     67          1           0        1.353414    1.606512   -3.266098
     68          1           0        5.500288    5.228733    0.095286
     69          1           0        7.805704   -0.080778    2.960329
     70          1           0        2.051607   -3.120981   -2.568557
     71          1           0        0.484790   -0.734524   -2.867463
     72          1           0        2.952391   -0.776960   -4.487741
     73          1           0        1.256312   -0.857212   -5.096034
     74          1           0        2.076637   -2.266502   -4.620593
     75          1           0       -0.154129   -1.957378   -1.202586
     76          1           0        1.054126   -2.568189   -0.067460
     77          1           0       -0.001163   -4.525622   -0.314467
     78          1           0        0.600587   -4.447380   -2.020210
     79          1           0        0.624164    4.728848   -3.073931
     80          1           0        1.244011    3.429475   -4.022732
     81          1           0        1.982356    5.009634   -4.221928
     82          1           0        4.408414    8.208105   -1.388293
     83          1           0        5.480410    6.889356   -1.281260
     84          1           0        4.172885    7.170538    0.042927
     85          1           0        6.684538    4.640149    2.374203
     86          1           0        8.621585    2.338643    2.711186
     87          1           0        9.263224    3.777850    1.244062
     88          1           0        8.482169    5.418881    1.279203
     89          1           0        8.163012    4.367068   -0.061373
     90          1           0        6.534165    1.963928    4.400776
     91          1           0        6.619374    3.681485    4.453216
     92          1           0        8.546795    3.837704    5.575055
     93          1           0        9.322185    2.304738    5.017234
     94          1           0        8.030008    2.157780    6.093806
     95          1           0        8.563619   -2.578162    2.862806
     96          1           0        7.194680   -3.639100    3.486594
     97          1           0        7.299023   -1.969741    3.942722
     98          1           0        2.794471   -4.193684    0.636911
     99          1           0        2.524574   -7.500587   -2.219686
    100          1           0        2.698367   -8.170544   -0.756594
    101          1           0        4.140070   -7.524549   -1.490726
    102          1           0       -3.744504   -5.986721   -1.896689
    103          1           0       -4.128798   -4.291253   -2.351338
    104          1           0       -4.982270   -5.603966    0.160745
    105          1           0       -4.501627   -1.572441   -0.227914
    106          1           0       -6.114426   -1.780178   -0.863149
    107          1           0       -4.826665   -2.302293   -1.861758
    108          1           0       -6.014404   -2.614427    1.750602
    109          1           0       -5.896637   -4.309619    1.897555
    110          1           0       -7.821828   -4.593031    0.525426
    111          1           0       -7.866046   -2.722054    0.264227
    112          1           0       -8.017507   -2.556195    2.776915
    113          1           0       -8.705593   -4.218343    2.718148
    114          1           0      -10.066842   -2.710539    0.621928
    115          1           0      -11.840941   -3.804001    1.213400
    116          1           0      -11.585399   -3.521578    2.989858
    117          1           0      -10.778471   -4.815638    2.173565
    118          1           0       -9.742632   -1.182813    3.296775
    119          1           0      -11.255334   -1.418334    2.564145
    120          1           0      -10.597723    0.044415    0.794169
    121          1           0       -8.893996   -0.640321    0.783884
    122          1           0       -8.418270    0.583202    2.753038
    123          1           0       -9.939035    1.375433    2.653791
    124          1           0       -9.436278    1.963407    0.210156
    125          1           0       -6.440651    2.185557    0.563556
    126          1           0       -7.400905    1.308865   -0.614486
    127          1           0       -7.007253    0.561231    1.020855
    128          1           0       -8.008487    3.604931    2.446271
    129          1           0       -9.651600    3.717109    1.952966
    130          1           0       -8.424634    3.791079   -0.471052
    131          1           0       -7.253609    4.612934    0.397128
    132          1           0       -8.409659    6.457116    0.099378
    133          1           0       -9.339094    5.893408    1.452175
    134          1           0      -10.582528    4.571638   -0.643916
    135          1           0      -10.746656    7.379238   -1.624909
    136          1           0      -11.056297    5.975174   -2.414375
    137          1           0       -9.315579    6.417032   -2.155581
    138          1           0      -11.806496    7.157057    0.623625
    139          1           0      -11.445173    5.846605    1.501525
    140          1           0      -12.442357    5.553058    0.097585
 ---------------------------------------------------------------------

 SCF Done:  E(RZINDO/S) =  -474.337554442     A.U. after   20 cycles

 Excitation energies and oscillator strengths:

 Excited State   1:      Singlet-A      1.2984 eV  954.92 nm  f=0.5952  <S**2>=0.000
     175 ->178        -0.17388
     176 ->177         0.66860
 This state for optimization and/or second-order correction.
 Total Energy, E(CIS/TDA) =  -474.289839929
 Copying the excited state density for this state as the 1-particle RhoCI density.

 Excited State   2:      Singlet-A      1.9762 eV  627.38 nm  f=0.0241  <S**2>=0.000
     175 ->177         0.52636
     176 ->178         0.44418

 Excited State   3:      Singlet-A      2.8258 eV  438.76 nm  f=0.0014  <S**2>=0.000
     167 ->179        -0.10733
     168 ->177         0.27641
     168 ->178        -0.13394
     168 ->179        -0.32720
     168 ->180         0.23762
     168 ->186        -0.18484
     169 ->177         0.17266
     169 ->179        -0.19832
     169 ->180         0.14545
     169 ->186        -0.11265

 Excited State   4:      Singlet-A      3.0152 eV  411.20 nm  f=0.0234  <S**2>=0.000
     168 ->179         0.12574
     168 ->180         0.12770
     169 ->179        -0.10395
     170 ->177         0.21667
     170 ->179         0.28018
     170 ->180         0.30152
     170 ->183         0.13061
     170 ->186         0.16414
     170 ->187        -0.11676
     176 ->179        -0.20481

 Excited State   5:      Singlet-A      3.0489 eV  406.66 nm  f=0.5407  <S**2>=0.000
     175 ->177         0.28060
     176 ->178        -0.30824
     176 ->179         0.46415
     176 ->180         0.20392
     176 ->183         0.11347

 The electronic state is 1-A.
 Alpha  occ. eigenvalues --   -1.84822  -1.82285  -1.79963  -1.72783  -1.71328
 Alpha  occ. eigenvalues --   -1.70611  -1.66369  -1.61747  -1.58946  -1.58034
 Alpha  occ. eigenvalues --   -1.55548  -1.52068  -1.49225  -1.47510  -1.46239
 Alpha  occ. eigenvalues --   -1.43791  -1.43141  -1.40595  -1.39668  -1.38712
 Alpha  occ. eigenvalues --   -1.35638  -1.33831  -1.33590  -1.31298  -1.29075
 Alpha  occ. eigenvalues --   -1.27147  -1.26588  -1.22816  -1.21110  -1.18293
 Alpha  occ. eigenvalues --   -1.16957  -1.16074  -1.15753  -1.14363  -1.13924
 Alpha  occ. eigenvalues --   -1.13037  -1.11136  -1.10608  -1.05293  -1.04230
 Alpha  occ. eigenvalues --   -1.02553  -1.01240  -0.98325  -0.97602  -0.96327
 Alpha  occ. eigenvalues --   -0.96033  -0.94787  -0.94310  -0.93332  -0.92072
 Alpha  occ. eigenvalues --   -0.90919  -0.90243  -0.88802  -0.88674  -0.86886
 Alpha  occ. eigenvalues --   -0.86111  -0.84282  -0.82974  -0.81851  -0.79361
 Alpha  occ. eigenvalues --   -0.79294  -0.78945  -0.77936  -0.76627  -0.76513
 Alpha  occ. eigenvalues --   -0.76090  -0.75784  -0.75158  -0.74542  -0.73690
 Alpha  occ. eigenvalues --   -0.73128  -0.72199  -0.71968  -0.71441  -0.70592
 Alpha  occ. eigenvalues --   -0.70345  -0.68797  -0.68632  -0.68485  -0.68030
 Alpha  occ. eigenvalues --   -0.67511  -0.66898  -0.66687  -0.66224  -0.65823
 Alpha  occ. eigenvalues --   -0.65354  -0.64459  -0.64222  -0.63976  -0.63445
 Alpha  occ. eigenvalues --   -0.63143  -0.62988  -0.62932  -0.62724  -0.62470
 Alpha  occ. eigenvalues --   -0.62221  -0.61393  -0.60938  -0.60225  -0.59952
 Alpha  occ. eigenvalues --   -0.59501  -0.59420  -0.59083  -0.58645  -0.57903
 Alpha  occ. eigenvalues --   -0.57875  -0.56998  -0.56855  -0.56373  -0.56207
 Alpha  occ. eigenvalues --   -0.56121  -0.55976  -0.55393  -0.55278  -0.55111
 Alpha  occ. eigenvalues --   -0.54411  -0.53602  -0.53279  -0.53062  -0.52618
 Alpha  occ. eigenvalues --   -0.52519  -0.52135  -0.52002  -0.51626  -0.51402
 Alpha  occ. eigenvalues --   -0.51162  -0.50992  -0.50752  -0.50321  -0.49827
 Alpha  occ. eigenvalues --   -0.49664  -0.49322  -0.49088  -0.48860  -0.48685
 Alpha  occ. eigenvalues --   -0.48593  -0.48274  -0.48097  -0.47897  -0.47793
 Alpha  occ. eigenvalues --   -0.47556  -0.47475  -0.47352  -0.46780  -0.46469
 Alpha  occ. eigenvalues --   -0.46278  -0.46167  -0.45997  -0.45653  -0.45478
 Alpha  occ. eigenvalues --   -0.45319  -0.45296  -0.44822  -0.44740  -0.44310
 Alpha  occ. eigenvalues --   -0.43531  -0.43178  -0.42749  -0.42177  -0.41944
 Alpha  occ. eigenvalues --   -0.41707  -0.41611  -0.41367  -0.39648  -0.38622
 Alpha  occ. eigenvalues --   -0.38617  -0.36922  -0.35333  -0.35218  -0.34767
 Alpha  occ. eigenvalues --   -0.33646  -0.32945  -0.32882  -0.32170  -0.27159
 Alpha  occ. eigenvalues --   -0.21949
 Alpha virt. eigenvalues --   -0.08502  -0.02195  -0.00613   0.01108   0.01826
 Alpha virt. eigenvalues --    0.02079   0.02462   0.02883   0.04156   0.04478
 Alpha virt. eigenvalues --    0.05935   0.06931   0.07036   0.07880   0.08091

 Mulliken charges:
               1
     1  Mg   0.427173
     2  C   -0.031774
     3  C   -0.074923
     4  C   -0.101855
     5  C   -0.061654
     6  N   -0.274696
     7  C    0.097030
     8  C    0.005104
     9  C    0.003167
    10  C    0.147796
    11  C   -0.050566
    12  C   -0.025386
    13  C    0.007176
    14  C    0.471673
    15  O   -0.536912
    16  O   -0.252979
    17  N   -0.319818
    18  C    0.134469
    19  C    0.062588
    20  C   -0.049195
    21  C    0.137908
    22  C   -0.029886
    23  C    0.320706
    24  O   -0.543793
    25  C   -0.026545
    26  N   -0.265582
    27  C    0.164909
    28  C    0.000576
    29  C   -0.006793
    30  C    0.092508
    31  C   -0.047644
    32  C   -0.040046
    33  C   -0.059898
    34  N   -0.312335
    35  C    0.083985
    36  C   -0.002934
    37  C   -0.053181
    38  C    0.091959
    39  C   -0.042260
    40  C    0.331802
    41  O   -0.520829
    42  C    0.060890
    43  C    0.487946
    44  O   -0.523399
    45  O   -0.260630
    46  C    0.070070
    47  C    0.100732
    48  C   -0.099973
    49  C    0.000063
    50  C   -0.043538
    51  C   -0.019585
    52  C   -0.030248
    53  C   -0.039305
    54  C   -0.021637
    55  C   -0.063857
    56  C   -0.040122
    57  C   -0.035306
    58  C   -0.037600
    59  C   -0.016924
    60  C   -0.060975
    61  C   -0.037735
    62  C   -0.035866
    63  C   -0.027837
    64  C   -0.004543
    65  C   -0.056330
    66  C   -0.061334
    67  H    0.035344
    68  H    0.021663
    69  H    0.031301
    70  H    0.042321
    71  H    0.035882
    72  H    0.023474
    73  H    0.024924
    74  H    0.020399
    75  H    0.024813
    76  H    0.017675
    77  H    0.031171
    78  H    0.052964
    79  H    0.045101
    80  H    0.016245
    81  H    0.044424
    82  H    0.034780
    83  H    0.035925
    84  H    0.049398
    85  H    0.032340
    86  H    0.034439
    87  H    0.031083
    88  H    0.017071
    89  H    0.024703
    90  H    0.018559
    91  H    0.020257
    92  H    0.025855
    93  H    0.024966
    94  H    0.019611
    95  H    0.038839
    96  H    0.030569
    97  H    0.019953
    98  H    0.058290
    99  H    0.036083
   100  H    0.029198
   101  H    0.055534
   102  H    0.034467
   103  H    0.067443
   104  H    0.030440
   105  H    0.030262
   106  H    0.019168
   107  H    0.034542
   108  H    0.011860
   109  H    0.016728
   110  H    0.030401
   111  H    0.029240
   112  H    0.027555
   113  H    0.021851
   114  H    0.023651
   115  H    0.020518
   116  H    0.020623
   117  H    0.012677
   118  H    0.021496
   119  H    0.011779
   120  H    0.021528
   121  H    0.021562
   122  H    0.016858
   123  H    0.004103
   124  H    0.027657
   125  H    0.023496
   126  H    0.020847
   127  H    0.026997
   128  H    0.024812
   129  H    0.017143
   130  H    0.014180
   131  H    0.008330
   132  H    0.013517
   133  H    0.014792
   134  H    0.020872
   135  H    0.016750
   136  H    0.012222
   137  H    0.025391
   138  H    0.028101
   139  H    0.006251
   140  H    0.012734
 Sum of Mulliken charges =  -0.00000

 Dipole moment (field-independent basis, Debye):
    X=             -1.2354    Y=              3.8888    Z=              3.1592  Tot=              5.1604
 N-N= 4.349234933281D+03 E-N= 0.000000000000D+00  KE=-9.372681542321D+03
 Leave Link  601 at Thu May  5 02:58:00 2022, MaxMem=  6710886400 cpu:               1.2 elap:               0.1
 (Enter /sw/apps/gaussian-16.0/g16/l9999.exe)
 1\1\GINC-BP1-COMPUTE216\SP\RZINDO CIS\STO-3G\C55H74Mg1N4O6\OF15641\05-
 May-2022\0\\#p ZINDO=(nstates=5)\\step_51_chromophore_23 ZINDO\\0,1\Mg
 ,0,-9.474,41.676,42.545\C,0,-8.848,38.185,42.007\C,0,-6.727,42.467,40.
 798\C,0,-10.612,44.781,42.601\C,0,-12.615,40.617,43.995\N,0,-7.993,40.
 473,41.557\C,0,-7.889,39.093,41.478\C,0,-6.648,38.653,40.704\C,0,-5.83
 6,39.996,40.572\C,0,-6.895,41.082,41.\C,0,-4.585,40.1,41.488\C,0,-6.95
 7,38.037,39.32\C,0,-6.356,36.75,38.872\C,0,-5.386,36.763,37.683\O,0,-4

 Normal termination of Gaussian 16 at Thu May  5 02:58:00 2022.
