 Gaussian 16, Revision A.03,
 Gaussian 16:  ES64L-G16RevA.03 25-Dec-2016

 ------------------------------
 #p blyp/Def2SVP td=(nstates=5)
 ------------------------------

 -------------------------------------------------
 step_651_chromophore_8 TDDFT with blyp functional
 -------------------------------------------------
 Symbolic Z-matrix:
 Charge =  0 Multiplicity = 1

                         Standard orientation:
 ---------------------------------------------------------------------
 Center     Atomic      Atomic             Coordinates (Angstroms)
 Number     Number       Type             X           Y           Z
 ---------------------------------------------------------------------
      1         12           0        4.387127    1.269303    0.274475
      2          6           0        3.933481   -2.329834    0.824664
      3          6           0        4.652291    0.484424   -3.061594
      4          6           0        4.274122    4.473128   -0.321311
      5          6           0        3.426614    1.779940    3.512627
      6          7           0        4.217511   -0.709548   -0.973162
      7          6           0        3.975337   -1.986143   -0.543635
      8          6           0        3.764578   -2.889235   -1.731981
      9          6           0        4.508079   -2.127185   -2.867675
     10          6           0        4.493996   -0.694006   -2.338472
     11          6           0        5.926535   -2.653119   -3.151605
     12          6           0        2.286300   -3.113552   -2.026172
     13          6           0        1.740791   -4.591500   -2.333766
     14          6           0        0.569789   -5.086589   -1.514628
     15          8           0        0.677094   -5.778025   -0.533900
     16          8           0       -0.635304   -4.697108   -2.099779
     17          7           0        4.591652    2.310844   -1.423350
     18          6           0        4.681787    1.875948   -2.736277
     19          6           0        4.977665    2.982723   -3.704769
     20          6           0        4.816854    4.154148   -2.879366
     21          6           0        4.562330    3.685146   -1.457447
     22          6           0        5.307537    2.791796   -5.089683
     23          6           0        4.971719    5.561383   -3.474281
     24          8           0        5.137317    5.694911   -4.664547
     25          6           0        4.864128    6.856844   -2.754081
     26          7           0        3.726421    2.812008    1.362790
     27          6           0        4.036784    4.068441    1.028508
     28          6           0        4.016470    5.026433    2.159860
     29          6           0        3.155085    4.221132    3.140108
     30          6           0        3.457595    2.849505    2.671688
     31          6           0        5.463080    5.493236    2.662654
     32          6           0        1.608768    4.419749    3.105275
     33          6           0        1.054156    5.487609    4.083974
     34          7           0        3.906837    0.053832    1.949091
     35          6           0        3.653132    0.431484    3.234505
     36          6           0        3.468868   -0.830919    4.071456
     37          6           0        3.736352   -1.900495    3.131607
     38          6           0        3.889118   -1.341818    1.913528
     39          6           0        3.107470   -0.836486    5.484676
     40          6           0        3.743349   -3.317390    3.070031
     41          8           0        3.541909   -4.084123    3.989432
     42          6           0        3.860239   -3.619215    1.558949
     43          6           0        5.045210   -4.475548    1.383785
     44          8           0        6.125927   -4.284712    1.984155
     45          8           0        4.819199   -5.410837    0.389451
     46          6           0        5.941248   -6.379383    0.368501
     47          6           0       -1.781895   -5.126096   -1.279756
     48          6           0       -2.623765   -3.902449   -0.956574
     49          6           0       -3.899650   -3.893059   -0.460146
     50          6           0       -4.464761   -5.132422    0.214636
     51          6           0       -4.576008   -2.505787   -0.055522
     52          6           0       -4.879969   -1.501440   -1.228818
     53          6           0       -4.260349   -0.048424   -0.901026
     54          6           0       -5.439687    0.972803   -0.902495
     55          6           0       -5.032044    2.520848   -1.221551
     56          6           0       -6.196126    0.901291    0.489390
     57          6           0       -7.763630    0.822269    0.395121
     58          6           0       -8.555500    2.036393    1.005461
     59          6           0       -9.823178    2.356217    0.256514
     60          6           0      -10.297060    3.835222    0.700603
     61          6           0      -10.992820    1.320614    0.628318
     62          6           0      -11.691991    0.615674   -0.548442
     63          6           0      -12.812619   -0.227032   -0.123734
     64          6           0      -14.215001    0.307399   -0.475389
     65          6           0      -14.830379   -0.593315   -1.535199
     66          6           0      -15.118900    0.693766    0.749380
     67          1           0        4.733805    0.253735   -4.125637
     68          1           0        4.540834    5.530035   -0.377011
     69          1           0        3.255087    1.938786    4.578995
     70          1           0        4.223171   -3.861501   -1.551627
     71          1           0        4.017849   -2.390221   -3.805451
     72          1           0        5.969176   -3.647809   -2.708066
     73          1           0        6.628559   -1.996832   -2.635825
     74          1           0        6.285178   -2.799476   -4.170595
     75          1           0        1.998654   -2.429754   -2.824852
     76          1           0        1.725445   -2.782914   -1.152027
     77          1           0        2.557715   -5.311229   -2.275481
     78          1           0        1.439385   -4.641761   -3.380037
     79          1           0        4.342938    2.862562   -5.592406
     80          1           0        5.716582    1.839288   -5.424449
     81          1           0        6.006682    3.488984   -5.552372
     82          1           0        5.464191    6.846748   -1.844196
     83          1           0        3.812293    7.009240   -2.510918
     84          1           0        5.078485    7.720707   -3.383689
     85          1           0        3.412651    5.859099    1.801694
     86          1           0        3.516568    4.191873    4.166977
     87          1           0        5.452644    6.554345    2.910580
     88          1           0        6.328720    5.240855    2.049967
     89          1           0        5.598992    5.067581    3.657240
     90          1           0        1.018135    3.503547    3.070775
     91          1           0        1.465060    4.818040    2.100566
     92          1           0        0.756576    6.393744    3.555335
     93          1           0        1.684175    5.776809    4.924774
     94          1           0        0.194906    5.003828    4.547505
     95          1           0        2.275010   -0.165364    5.694616
     96          1           0        3.965352   -0.540143    6.088806
     97          1           0        2.704463   -1.802101    5.787385
     98          1           0        2.971040   -4.197232    1.308056
     99          1           0        6.848202   -5.776726    0.329681
    100          1           0        5.758312   -6.952287   -0.541659
    101          1           0        5.983894   -7.033191    1.239614
    102          1           0       -1.636164   -5.775611   -0.416651
    103          1           0       -2.355794   -5.756111   -1.959692
    104          1           0       -2.165343   -2.940656   -1.188096
    105          1           0       -3.763135   -5.946281    0.396855
    106          1           0       -5.330232   -5.511305   -0.329258
    107          1           0       -4.701160   -4.737409    1.201517
    108          1           0       -4.043363   -2.172834    0.834855
    109          1           0       -5.602709   -2.692123    0.260049
    110          1           0       -5.953306   -1.315134   -1.271380
    111          1           0       -4.430270   -1.847484   -2.159858
    112          1           0       -3.455381    0.240417   -1.577406
    113          1           0       -3.820789    0.177079    0.070540
    114          1           0       -6.125559    0.682802   -1.697723
    115          1           0       -5.594254    2.870513   -2.088251
    116          1           0       -3.965199    2.713143   -1.335593
    117          1           0       -5.243853    3.183508   -0.382797
    118          1           0       -5.923783    1.723461    1.151613
    119          1           0       -5.842505    0.041726    1.057228
    120          1           0       -7.924475   -0.089660    0.970405
    121          1           0       -8.117950    0.721498   -0.630343
    122          1           0       -7.859699    2.874651    1.046777
    123          1           0       -8.817369    1.887749    2.053483
    124          1           0       -9.688348    2.201509   -0.814119
    125          1           0      -10.696213    4.331965   -0.183454
    126          1           0       -9.423875    4.425121    0.979126
    127          1           0      -10.993296    3.844662    1.538835
    128          1           0      -11.742849    1.864648    1.202881
    129          1           0      -10.600383    0.531325    1.268707
    130          1           0      -10.966974    0.036278   -1.120774
    131          1           0      -12.087799    1.442953   -1.136800
    132          1           0      -12.765348   -0.265227    0.964972
    133          1           0      -12.585333   -1.274399   -0.319350
    134          1           0      -14.119358    1.278445   -0.960318
    135          1           0      -14.209171   -0.352955   -2.397782
    136          1           0      -15.802626   -0.146547   -1.743246
    137          1           0      -14.932185   -1.668826   -1.388659
    138          1           0      -14.623476    0.443656    1.686859
    139          1           0      -15.980318    0.064347    0.526344
    140          1           0      -15.205667    1.778647    0.691910
 ---------------------------------------------------------------------

 SCF Done:  E(RB-LYP) =  -3007.32785609     A.U. after   21 cycles

 Excitation energies and oscillator strengths:

 Excited State   1:      Singlet-A      1.7666 eV  701.81 nm  f=0.2801  <S**2>=0.000
     245 -> 248       -0.19807
     246 -> 247        0.68755
     246 <- 247       -0.15468
 This state for optimization and/or second-order correction.
 Total Energy, E(TD-HF/TD-DFT) =  -3007.26293342
 Copying the excited state density for this state as the 1-particle RhoCI density.

 Excited State   2:      Singlet-A      1.8214 eV  680.71 nm  f=0.0015  <S**2>=0.000
     244 -> 247        0.70293

 Excited State   3:      Singlet-A      1.9197 eV  645.84 nm  f=0.0101  <S**2>=0.000
     243 -> 247        0.63079
     245 -> 247        0.29959

 Excited State   4:      Singlet-A      2.0289 eV  611.10 nm  f=0.0621  <S**2>=0.000
     243 -> 247       -0.31206
     245 -> 247        0.56353
     246 -> 248        0.24629

 Excited State   5:      Singlet-A      2.1905 eV  566.01 nm  f=0.0000  <S**2>=0.000
     242 -> 247        0.70684

 The electronic state is 1-A.
 Alpha  occ. eigenvalues --  -46.26715 -18.82776 -18.82461 -18.77263 -18.76960
 Alpha  occ. eigenvalues --  -18.75235 -18.74897 -14.02924 -14.02883 -14.01660
 Alpha  occ. eigenvalues --  -14.00426 -10.04120 -10.03980  -9.99496  -9.98660
 Alpha  occ. eigenvalues --   -9.97616  -9.97514  -9.96785  -9.96630  -9.96556
 Alpha  occ. eigenvalues --   -9.96447  -9.96291  -9.95513  -9.95146  -9.94727
 Alpha  occ. eigenvalues --   -9.94509  -9.94211  -9.94160  -9.94045  -9.93745
 Alpha  occ. eigenvalues --   -9.93720  -9.93661  -9.93618  -9.93598  -9.93461
 Alpha  occ. eigenvalues --   -9.93436  -9.93351  -9.93326  -9.92828  -9.92826
 Alpha  occ. eigenvalues --   -9.92749  -9.92431  -9.92424  -9.92420  -9.92379
 Alpha  occ. eigenvalues --   -9.92177  -9.92145  -9.92139  -9.91945  -9.91931
 Alpha  occ. eigenvalues --   -9.91804  -9.91786  -9.91605  -9.91558  -9.91288
 Alpha  occ. eigenvalues --   -9.91256  -9.91226  -9.91135  -9.90954  -9.90825
 Alpha  occ. eigenvalues --   -9.90790  -9.90734  -9.90705  -9.90421  -9.90063
 Alpha  occ. eigenvalues --   -9.89968  -2.91558  -1.71949  -1.71471  -1.71269
 Alpha  occ. eigenvalues --   -0.97886  -0.97307  -0.92175  -0.91362  -0.90648
 Alpha  occ. eigenvalues --   -0.89020  -0.88824  -0.85521  -0.84767  -0.84286
 Alpha  occ. eigenvalues --   -0.76101  -0.73113  -0.73056  -0.72635  -0.72224
 Alpha  occ. eigenvalues --   -0.72066  -0.71473  -0.70941  -0.70321  -0.70205
 Alpha  occ. eigenvalues --   -0.69018  -0.68910  -0.68002  -0.67573  -0.67243
 Alpha  occ. eigenvalues --   -0.66354  -0.66025  -0.65326  -0.64896  -0.64200
 Alpha  occ. eigenvalues --   -0.63514  -0.62695  -0.62437  -0.62139  -0.60972
 Alpha  occ. eigenvalues --   -0.60331  -0.60328  -0.59621  -0.59051  -0.58611
 Alpha  occ. eigenvalues --   -0.57662  -0.57112  -0.56830  -0.55655  -0.55263
 Alpha  occ. eigenvalues --   -0.53964  -0.53346  -0.52558  -0.52455  -0.51891
 Alpha  occ. eigenvalues --   -0.51020  -0.50927  -0.50609  -0.50126  -0.49877
 Alpha  occ. eigenvalues --   -0.49710  -0.49342  -0.48728  -0.48466  -0.46911
 Alpha  occ. eigenvalues --   -0.46540  -0.45762  -0.45659  -0.45412  -0.44762
 Alpha  occ. eigenvalues --   -0.44472  -0.43469  -0.43168  -0.42608  -0.42095
 Alpha  occ. eigenvalues --   -0.41987  -0.41672  -0.41415  -0.41283  -0.41024
 Alpha  occ. eigenvalues --   -0.40784  -0.40390  -0.40044  -0.39939  -0.39777
 Alpha  occ. eigenvalues --   -0.39679  -0.39491  -0.39417  -0.39219  -0.38898
 Alpha  occ. eigenvalues --   -0.38821  -0.38734  -0.38418  -0.38205  -0.38048
 Alpha  occ. eigenvalues --   -0.37951  -0.37883  -0.37656  -0.37426  -0.37082
 Alpha  occ. eigenvalues --   -0.36948  -0.36918  -0.36412  -0.36308  -0.36035
 Alpha  occ. eigenvalues --   -0.35974  -0.35900  -0.35749  -0.35524  -0.35403
 Alpha  occ. eigenvalues --   -0.35244  -0.35136  -0.35008  -0.34892  -0.34805
 Alpha  occ. eigenvalues --   -0.34746  -0.34538  -0.34505  -0.34287  -0.34034
 Alpha  occ. eigenvalues --   -0.33993  -0.33731  -0.33686  -0.33371  -0.32882
 Alpha  occ. eigenvalues --   -0.32827  -0.32673  -0.32377  -0.32327  -0.32112
 Alpha  occ. eigenvalues --   -0.31955  -0.31797  -0.31709  -0.31632  -0.31461
 Alpha  occ. eigenvalues --   -0.31349  -0.31260  -0.31060  -0.30890  -0.30629
 Alpha  occ. eigenvalues --   -0.30545  -0.30265  -0.30181  -0.30037  -0.29791
 Alpha  occ. eigenvalues --   -0.29696  -0.29518  -0.29294  -0.29236  -0.29106
 Alpha  occ. eigenvalues --   -0.28886  -0.28790  -0.28510  -0.28402  -0.28210
 Alpha  occ. eigenvalues --   -0.28124  -0.27255  -0.27048  -0.26795  -0.26444
 Alpha  occ. eigenvalues --   -0.26290  -0.25922  -0.25390  -0.25184  -0.25114
 Alpha  occ. eigenvalues --   -0.24962  -0.24712  -0.24068  -0.23786  -0.23763
 Alpha  occ. eigenvalues --   -0.23619  -0.22467  -0.22318  -0.21450  -0.20550
 Alpha  occ. eigenvalues --   -0.19665  -0.19488  -0.18468  -0.18067  -0.17163
 Alpha  occ. eigenvalues --   -0.15546
 Alpha virt. eigenvalues --   -0.11439  -0.06971  -0.05774  -0.04519  -0.03430
 Alpha virt. eigenvalues --   -0.03130  -0.02597  -0.02056  -0.01819  -0.00007
 Alpha virt. eigenvalues --    0.01153   0.01569   0.02540   0.02945   0.03073

 Mulliken charges:
               1
     1  Mg   0.718212
     2  C    0.024882
     3  C   -0.054803
     4  C   -0.057794
     5  C   -0.091498
     6  N   -0.187538
     7  C   -0.098414
     8  C    0.004403
     9  C    0.006338
    10  C    0.035581
    11  C    0.121774
    12  C    0.129613
    13  C    0.156660
    14  C    0.066164
    15  O   -0.166263
    16  O   -0.284907
    17  N   -0.322751
    18  C    0.119918
    19  C   -0.090160
    20  C    0.012166
    21  C    0.154101
    22  C    0.181428
    23  C   -0.098350
    24  O   -0.165098
    25  C    0.149961
    26  N   -0.243580
    27  C   -0.015742
    28  C    0.077301
    29  C    0.013251
    30  C    0.051522
    31  C    0.141167
    32  C    0.092249
    33  C    0.085484
    34  N   -0.266772
    35  C    0.080272
    36  C   -0.163462
    37  C    0.095258
    38  C    0.076261
    39  C    0.172235
    40  C   -0.085949
    41  O   -0.112403
    42  C    0.106038
    43  C    0.112142
    44  O   -0.206962
    45  O   -0.272397
    46  C    0.222191
    47  C    0.301411
    48  C   -0.098543
    49  C   -0.154471
    50  C    0.126175
    51  C    0.099227
    52  C    0.083797
    53  C    0.081192
    54  C   -0.099071
    55  C    0.090462
    56  C    0.079894
    57  C    0.071463
    58  C    0.091871
    59  C   -0.059770
    60  C    0.100230
    61  C    0.055160
    62  C    0.073909
    63  C    0.138592
    64  C   -0.124326
    65  C    0.117676
    66  C    0.124738
    67  H   -0.070257
    68  H   -0.072835
    69  H   -0.072672
    70  H   -0.031923
    71  H   -0.038791
    72  H   -0.020808
    73  H   -0.006761
    74  H   -0.003972
    75  H   -0.015568
    76  H   -0.011377
    77  H   -0.008584
    78  H   -0.015546
    79  H    0.005055
    80  H   -0.020211
    81  H    0.011102
    82  H    0.010352
    83  H    0.003071
    84  H   -0.011916
    85  H   -0.037002
    86  H   -0.044561
    87  H   -0.005249
    88  H    0.011026
    89  H   -0.014202
    90  H   -0.006183
    91  H   -0.030755
    92  H   -0.001116
    93  H   -0.009194
    94  H   -0.006815
    95  H   -0.013977
    96  H    0.010403
    97  H    0.001356
    98  H   -0.000936
    99  H    0.020742
   100  H    0.010378
   101  H    0.025467
   102  H    0.024648
   103  H   -0.006052
   104  H   -0.030652
   105  H   -0.017858
   106  H    0.005061
   107  H    0.000204
   108  H    0.010807
   109  H   -0.036763
   110  H   -0.006203
   111  H   -0.005067
   112  H   -0.037426
   113  H   -0.029548
   114  H   -0.027120
   115  H   -0.007577
   116  H   -0.021792
   117  H   -0.024972
   118  H   -0.034575
   119  H   -0.041073
   120  H   -0.028852
   121  H   -0.020630
   122  H   -0.036516
   123  H   -0.036770
   124  H   -0.033481
   125  H   -0.014230
   126  H   -0.025356
   127  H   -0.003113
   128  H   -0.038176
   129  H   -0.031122
   130  H   -0.032510
   131  H   -0.035752
   132  H   -0.060014
   133  H   -0.045564
   134  H   -0.040131
   135  H   -0.018513
   136  H   -0.030713
   137  H   -0.001886
   138  H   -0.017395
   139  H   -0.013883
   140  H   -0.008523
 Sum of Mulliken charges =  -0.00000

 Dipole moment (field-independent basis, Debye):
    X=             -1.4709    Y=              2.7166    Z=             -0.7048  Tot=              3.1687
 Quadrupole moment (field-independent basis, Debye-Ang):
   XX=           -404.5370   YY=           -401.1780   ZZ=           -416.4516
   XY=              8.1642   XZ=             -6.4868   YZ=             51.8421

 Normal termination of Gaussian 16 at Sat Apr 30 09:27:25 2022.
