 Gaussian 16, Revision A.03,
 Gaussian 16:  ES64L-G16RevA.03 25-Dec-2016

 -----------------------------------
 #p cam-b3lyp/Def2SVP td=(nstates=5)
 -----------------------------------

 ------------------------------------------------------
 step_651_chromophore_8 TDDFT with cam-b3lyp functional
 ------------------------------------------------------
 Symbolic Z-matrix:
 Charge =  0 Multiplicity = 1

                         Standard orientation:
 ---------------------------------------------------------------------
 Center     Atomic      Atomic             Coordinates (Angstroms)
 Number     Number       Type             X           Y           Z
 ---------------------------------------------------------------------
      1         12           0        4.387127    1.269303    0.274475
      2          6           0        3.933481   -2.329834    0.824664
      3          6           0        4.652291    0.484424   -3.061594
      4          6           0        4.274122    4.473128   -0.321311
      5          6           0        3.426614    1.779940    3.512627
      6          7           0        4.217511   -0.709548   -0.973162
      7          6           0        3.975337   -1.986143   -0.543635
      8          6           0        3.764578   -2.889235   -1.731981
      9          6           0        4.508079   -2.127185   -2.867675
     10          6           0        4.493996   -0.694006   -2.338472
     11          6           0        5.926535   -2.653119   -3.151605
     12          6           0        2.286300   -3.113552   -2.026172
     13          6           0        1.740791   -4.591500   -2.333766
     14          6           0        0.569789   -5.086589   -1.514628
     15          8           0        0.677094   -5.778025   -0.533900
     16          8           0       -0.635304   -4.697108   -2.099779
     17          7           0        4.591652    2.310844   -1.423350
     18          6           0        4.681787    1.875948   -2.736277
     19          6           0        4.977665    2.982723   -3.704769
     20          6           0        4.816854    4.154148   -2.879366
     21          6           0        4.562330    3.685146   -1.457447
     22          6           0        5.307537    2.791796   -5.089683
     23          6           0        4.971719    5.561383   -3.474281
     24          8           0        5.137317    5.694911   -4.664547
     25          6           0        4.864128    6.856844   -2.754081
     26          7           0        3.726421    2.812008    1.362790
     27          6           0        4.036784    4.068441    1.028508
     28          6           0        4.016470    5.026433    2.159860
     29          6           0        3.155085    4.221132    3.140108
     30          6           0        3.457595    2.849505    2.671688
     31          6           0        5.463080    5.493236    2.662654
     32          6           0        1.608768    4.419749    3.105275
     33          6           0        1.054156    5.487609    4.083974
     34          7           0        3.906837    0.053832    1.949091
     35          6           0        3.653132    0.431484    3.234505
     36          6           0        3.468868   -0.830919    4.071456
     37          6           0        3.736352   -1.900495    3.131607
     38          6           0        3.889118   -1.341818    1.913528
     39          6           0        3.107470   -0.836486    5.484676
     40          6           0        3.743349   -3.317390    3.070031
     41          8           0        3.541909   -4.084123    3.989432
     42          6           0        3.860239   -3.619215    1.558949
     43          6           0        5.045210   -4.475548    1.383785
     44          8           0        6.125927   -4.284712    1.984155
     45          8           0        4.819199   -5.410837    0.389451
     46          6           0        5.941248   -6.379383    0.368501
     47          6           0       -1.781895   -5.126096   -1.279756
     48          6           0       -2.623765   -3.902449   -0.956574
     49          6           0       -3.899650   -3.893059   -0.460146
     50          6           0       -4.464761   -5.132422    0.214636
     51          6           0       -4.576008   -2.505787   -0.055522
     52          6           0       -4.879969   -1.501440   -1.228818
     53          6           0       -4.260349   -0.048424   -0.901026
     54          6           0       -5.439687    0.972803   -0.902495
     55          6           0       -5.032044    2.520848   -1.221551
     56          6           0       -6.196126    0.901291    0.489390
     57          6           0       -7.763630    0.822269    0.395121
     58          6           0       -8.555500    2.036393    1.005461
     59          6           0       -9.823178    2.356217    0.256514
     60          6           0      -10.297060    3.835222    0.700603
     61          6           0      -10.992820    1.320614    0.628318
     62          6           0      -11.691991    0.615674   -0.548442
     63          6           0      -12.812619   -0.227032   -0.123734
     64          6           0      -14.215001    0.307399   -0.475389
     65          6           0      -14.830379   -0.593315   -1.535199
     66          6           0      -15.118900    0.693766    0.749380
     67          1           0        4.733805    0.253735   -4.125637
     68          1           0        4.540834    5.530035   -0.377011
     69          1           0        3.255087    1.938786    4.578995
     70          1           0        4.223171   -3.861501   -1.551627
     71          1           0        4.017849   -2.390221   -3.805451
     72          1           0        5.969176   -3.647809   -2.708066
     73          1           0        6.628559   -1.996832   -2.635825
     74          1           0        6.285178   -2.799476   -4.170595
     75          1           0        1.998654   -2.429754   -2.824852
     76          1           0        1.725445   -2.782914   -1.152027
     77          1           0        2.557715   -5.311229   -2.275481
     78          1           0        1.439385   -4.641761   -3.380037
     79          1           0        4.342938    2.862562   -5.592406
     80          1           0        5.716582    1.839288   -5.424449
     81          1           0        6.006682    3.488984   -5.552372
     82          1           0        5.464191    6.846748   -1.844196
     83          1           0        3.812293    7.009240   -2.510918
     84          1           0        5.078485    7.720707   -3.383689
     85          1           0        3.412651    5.859099    1.801694
     86          1           0        3.516568    4.191873    4.166977
     87          1           0        5.452644    6.554345    2.910580
     88          1           0        6.328720    5.240855    2.049967
     89          1           0        5.598992    5.067581    3.657240
     90          1           0        1.018135    3.503547    3.070775
     91          1           0        1.465060    4.818040    2.100566
     92          1           0        0.756576    6.393744    3.555335
     93          1           0        1.684175    5.776809    4.924774
     94          1           0        0.194906    5.003828    4.547505
     95          1           0        2.275010   -0.165364    5.694616
     96          1           0        3.965352   -0.540143    6.088806
     97          1           0        2.704463   -1.802101    5.787385
     98          1           0        2.971040   -4.197232    1.308056
     99          1           0        6.848202   -5.776726    0.329681
    100          1           0        5.758312   -6.952287   -0.541659
    101          1           0        5.983894   -7.033191    1.239614
    102          1           0       -1.636164   -5.775611   -0.416651
    103          1           0       -2.355794   -5.756111   -1.959692
    104          1           0       -2.165343   -2.940656   -1.188096
    105          1           0       -3.763135   -5.946281    0.396855
    106          1           0       -5.330232   -5.511305   -0.329258
    107          1           0       -4.701160   -4.737409    1.201517
    108          1           0       -4.043363   -2.172834    0.834855
    109          1           0       -5.602709   -2.692123    0.260049
    110          1           0       -5.953306   -1.315134   -1.271380
    111          1           0       -4.430270   -1.847484   -2.159858
    112          1           0       -3.455381    0.240417   -1.577406
    113          1           0       -3.820789    0.177079    0.070540
    114          1           0       -6.125559    0.682802   -1.697723
    115          1           0       -5.594254    2.870513   -2.088251
    116          1           0       -3.965199    2.713143   -1.335593
    117          1           0       -5.243853    3.183508   -0.382797
    118          1           0       -5.923783    1.723461    1.151613
    119          1           0       -5.842505    0.041726    1.057228
    120          1           0       -7.924475   -0.089660    0.970405
    121          1           0       -8.117950    0.721498   -0.630343
    122          1           0       -7.859699    2.874651    1.046777
    123          1           0       -8.817369    1.887749    2.053483
    124          1           0       -9.688348    2.201509   -0.814119
    125          1           0      -10.696213    4.331965   -0.183454
    126          1           0       -9.423875    4.425121    0.979126
    127          1           0      -10.993296    3.844662    1.538835
    128          1           0      -11.742849    1.864648    1.202881
    129          1           0      -10.600383    0.531325    1.268707
    130          1           0      -10.966974    0.036278   -1.120774
    131          1           0      -12.087799    1.442953   -1.136800
    132          1           0      -12.765348   -0.265227    0.964972
    133          1           0      -12.585333   -1.274399   -0.319350
    134          1           0      -14.119358    1.278445   -0.960318
    135          1           0      -14.209171   -0.352955   -2.397782
    136          1           0      -15.802626   -0.146547   -1.743246
    137          1           0      -14.932185   -1.668826   -1.388659
    138          1           0      -14.623476    0.443656    1.686859
    139          1           0      -15.980318    0.064347    0.526344
    140          1           0      -15.205667    1.778647    0.691910
 ---------------------------------------------------------------------

 SCF Done:  E(RCAM-B3LYP) =  -3007.11418555     A.U. after   17 cycles

 Excitation energies and oscillator strengths:

 Excited State   1:      Singlet-A      1.6642 eV  745.02 nm  f=0.3529  <S**2>=0.000
     245 -> 248        0.17843
     246 -> 247        0.68587
     245 <- 248        0.10838
 This state for optimization and/or second-order correction.
 Total Energy, E(TD-HF/TD-DFT) =  -3007.05302796
 Copying the excited state density for this state as the 1-particle RhoCI density.

 Excited State   2:      Singlet-A      2.2277 eV  556.55 nm  f=0.0888  <S**2>=0.000
     245 -> 247        0.62584
     246 -> 248       -0.31394

 Excited State   3:      Singlet-A      3.2235 eV  384.62 nm  f=0.0036  <S**2>=0.000
     244 -> 247        0.68327

 Excited State   4:      Singlet-A      3.4294 eV  361.53 nm  f=0.5573  <S**2>=0.000
     242 -> 247        0.25000
     245 -> 247        0.28454
     246 -> 248        0.58782
     245 <- 247       -0.10494

 Excited State   5:      Singlet-A      3.5472 eV  349.53 nm  f=0.1567  <S**2>=0.000
     240 -> 247       -0.15137
     240 -> 249        0.14863
     240 -> 251       -0.11391
     242 -> 247        0.58397
     245 -> 247       -0.15122
     246 -> 248       -0.19783

 The electronic state is 1-A.
 Alpha  occ. eigenvalues --  -46.88269 -19.25721 -19.25266 -19.20252 -19.19966
 Alpha  occ. eigenvalues --  -19.18285 -19.18235 -14.41971 -14.41684 -14.40391
 Alpha  occ. eigenvalues --  -14.38675 -10.39401 -10.39383 -10.34792 -10.33726
 Alpha  occ. eigenvalues --  -10.31712 -10.31548 -10.31541 -10.31394 -10.31243
 Alpha  occ. eigenvalues --  -10.31040 -10.30778 -10.29641 -10.29584 -10.29124
 Alpha  occ. eigenvalues --  -10.28723 -10.28525 -10.28260 -10.28181 -10.28072
 Alpha  occ. eigenvalues --  -10.27864 -10.27603 -10.27555 -10.27527 -10.27471
 Alpha  occ. eigenvalues --  -10.27428 -10.27415 -10.27169 -10.26989 -10.26938
 Alpha  occ. eigenvalues --  -10.26905 -10.26241 -10.26143 -10.26129 -10.25977
 Alpha  occ. eigenvalues --  -10.25928 -10.25925 -10.25924 -10.25911 -10.25763
 Alpha  occ. eigenvalues --  -10.25736 -10.25531 -10.25251 -10.25197 -10.24968
 Alpha  occ. eigenvalues --  -10.24948 -10.24938 -10.24775 -10.24592 -10.24489
 Alpha  occ. eigenvalues --  -10.24481 -10.24324 -10.24259 -10.23995 -10.23868
 Alpha  occ. eigenvalues --  -10.23535  -3.17023  -1.91886  -1.91508  -1.91328
 Alpha  occ. eigenvalues --   -1.16326  -1.15760  -1.10804  -1.09606  -1.08473
 Alpha  occ. eigenvalues --   -1.06879  -1.06657  -1.03302  -1.02488  -1.01664
 Alpha  occ. eigenvalues --   -0.93181  -0.89855  -0.89771  -0.89379  -0.88961
 Alpha  occ. eigenvalues --   -0.88842  -0.88133  -0.87633  -0.87033  -0.86830
 Alpha  occ. eigenvalues --   -0.85359  -0.85232  -0.84140  -0.83786  -0.83437
 Alpha  occ. eigenvalues --   -0.82414  -0.82167  -0.81438  -0.80714  -0.79999
 Alpha  occ. eigenvalues --   -0.79252  -0.78229  -0.78070  -0.77956  -0.76373
 Alpha  occ. eigenvalues --   -0.75691  -0.75675  -0.74897  -0.74299  -0.73822
 Alpha  occ. eigenvalues --   -0.72628  -0.72079  -0.71668  -0.70466  -0.69805
 Alpha  occ. eigenvalues --   -0.68513  -0.67843  -0.67174  -0.66628  -0.66219
 Alpha  occ. eigenvalues --   -0.65261  -0.65140  -0.64667  -0.64128  -0.63911
 Alpha  occ. eigenvalues --   -0.63452  -0.63309  -0.62621  -0.62252  -0.60647
 Alpha  occ. eigenvalues --   -0.60192  -0.59268  -0.59084  -0.58952  -0.58385
 Alpha  occ. eigenvalues --   -0.57783  -0.56877  -0.56531  -0.55912  -0.55173
 Alpha  occ. eigenvalues --   -0.54995  -0.54685  -0.54387  -0.54315  -0.53979
 Alpha  occ. eigenvalues --   -0.53443  -0.52973  -0.52702  -0.52568  -0.52541
 Alpha  occ. eigenvalues --   -0.52218  -0.52164  -0.52090  -0.51859  -0.51377
 Alpha  occ. eigenvalues --   -0.51242  -0.51202  -0.51046  -0.50671  -0.50364
 Alpha  occ. eigenvalues --   -0.50271  -0.50149  -0.49928  -0.49737  -0.49512
 Alpha  occ. eigenvalues --   -0.49314  -0.49156  -0.49108  -0.48783  -0.48273
 Alpha  occ. eigenvalues --   -0.48186  -0.47940  -0.47873  -0.47716  -0.47561
 Alpha  occ. eigenvalues --   -0.47248  -0.47005  -0.46923  -0.46725  -0.46665
 Alpha  occ. eigenvalues --   -0.46620  -0.46520  -0.46299  -0.46265  -0.46209
 Alpha  occ. eigenvalues --   -0.45854  -0.45790  -0.45470  -0.45252  -0.44535
 Alpha  occ. eigenvalues --   -0.44444  -0.44425  -0.44267  -0.43877  -0.43830
 Alpha  occ. eigenvalues --   -0.43774  -0.43653  -0.43292  -0.43176  -0.43139
 Alpha  occ. eigenvalues --   -0.42782  -0.42755  -0.42628  -0.42212  -0.42063
 Alpha  occ. eigenvalues --   -0.41921  -0.41742  -0.41411  -0.41304  -0.41159
 Alpha  occ. eigenvalues --   -0.40938  -0.40699  -0.40497  -0.40420  -0.40174
 Alpha  occ. eigenvalues --   -0.39990  -0.39766  -0.39511  -0.39377  -0.39250
 Alpha  occ. eigenvalues --   -0.39184  -0.38069  -0.38053  -0.37844  -0.37187
 Alpha  occ. eigenvalues --   -0.37154  -0.37069  -0.36727  -0.36427  -0.35675
 Alpha  occ. eigenvalues --   -0.35532  -0.35267  -0.34540  -0.34530  -0.34439
 Alpha  occ. eigenvalues --   -0.34323  -0.34147  -0.33125  -0.30991  -0.30612
 Alpha  occ. eigenvalues --   -0.30447  -0.30179  -0.29044  -0.28508  -0.24010
 Alpha  occ. eigenvalues --   -0.20841
 Alpha virt. eigenvalues --   -0.08556  -0.01902   0.00763   0.02216   0.02577
 Alpha virt. eigenvalues --    0.04433   0.04650   0.05187   0.05600   0.06611
 Alpha virt. eigenvalues --    0.07964   0.08627   0.09020   0.09179   0.09318

 Mulliken charges:
               1
     1  Mg   0.851943
     2  C   -0.002120
     3  C   -0.068726
     4  C   -0.071820
     5  C   -0.097979
     6  N   -0.248907
     7  C   -0.060220
     8  C   -0.044437
     9  C   -0.048733
    10  C    0.044457
    11  C    0.068061
    12  C    0.077836
    13  C    0.087674
    14  C    0.144628
    15  O   -0.207564
    16  O   -0.348536
    17  N   -0.412039
    18  C    0.132619
    19  C   -0.090128
    20  C   -0.056240
    21  C    0.183987
    22  C    0.114493
    23  C   -0.021921
    24  O   -0.204205
    25  C    0.068238
    26  N   -0.314901
    27  C    0.007251
    28  C    0.005993
    29  C   -0.042640
    30  C    0.063284
    31  C    0.084811
    32  C    0.038096
    33  C    0.023941
    34  N   -0.353174
    35  C    0.086905
    36  C   -0.157761
    37  C    0.016478
    38  C    0.111713
    39  C    0.113999
    40  C    0.014563
    41  O   -0.152582
    42  C    0.023992
    43  C    0.203914
    44  O   -0.246433
    45  O   -0.337314
    46  C    0.179255
    47  C    0.263035
    48  C   -0.112265
    49  C   -0.174233
    50  C    0.059071
    51  C    0.043120
    52  C    0.028748
    53  C    0.031819
    54  C   -0.154634
    55  C    0.036867
    56  C    0.028261
    57  C    0.021070
    58  C    0.041818
    59  C   -0.121054
    60  C    0.044043
    61  C    0.010802
    62  C    0.022560
    63  C    0.072263
    64  C   -0.181026
    65  C    0.056338
    66  C    0.065969
    67  H   -0.033906
    68  H   -0.040935
    69  H   -0.036166
    70  H    0.004267
    71  H   -0.001487
    72  H    0.003347
    73  H    0.018990
    74  H    0.021083
    75  H    0.014768
    76  H    0.020356
    77  H    0.023844
    78  H    0.019133
    79  H    0.034791
    80  H    0.009549
    81  H    0.042745
    82  H    0.035072
    83  H    0.031923
    84  H    0.025142
    85  H    0.001057
    86  H   -0.008613
    87  H    0.020181
    88  H    0.035775
    89  H    0.011655
    90  H    0.025368
    91  H   -0.003607
    92  H    0.021042
    93  H    0.013799
    94  H    0.016740
    95  H    0.010243
    96  H    0.034466
    97  H    0.029166
    98  H    0.043526
    99  H    0.046771
   100  H    0.033914
   101  H    0.048492
   102  H    0.055640
   103  H    0.022157
   104  H    0.001467
   105  H    0.006762
   106  H    0.029074
   107  H    0.023360
   108  H    0.037592
   109  H   -0.006728
   110  H    0.019380
   111  H    0.024221
   112  H   -0.007465
   113  H   -0.002741
   114  H    0.002989
   115  H    0.015522
   116  H    0.002454
   117  H   -0.002757
   118  H   -0.006305
   119  H   -0.012584
   120  H   -0.001367
   121  H    0.002647
   122  H   -0.009288
   123  H   -0.008061
   124  H   -0.001673
   125  H    0.010153
   126  H   -0.000677
   127  H    0.019598
   128  H   -0.012361
   129  H   -0.004319
   130  H   -0.004864
   131  H   -0.009092
   132  H   -0.028363
   133  H   -0.013242
   134  H   -0.007431
   135  H    0.005058
   136  H   -0.005720
   137  H    0.021613
   138  H    0.006293
   139  H    0.009828
   140  H    0.014417
 Sum of Mulliken charges =  -0.00000

 Dipole moment (field-independent basis, Debye):
    X=             -1.1643    Y=              3.3147    Z=             -1.3896  Tot=              3.7781
 Quadrupole moment (field-independent basis, Debye-Ang):
   XX=           -403.1933   YY=           -396.0942   ZZ=           -415.5406
   XY=             10.3149   XZ=            -10.7785   YZ=             52.7355

 Normal termination of Gaussian 16 at Sat Apr 30 08:31:57 2022.
