 Gaussian 16, Revision A.03,
 Gaussian 16:  ES64L-G16RevA.03 25-Dec-2016

 ---------------------------------
 #p PBE1PBE/Def2SVP td=(nstates=5)
 ---------------------------------

 ----------------------------------------------------
 step_651_chromophore_8 TDDFT with PBE1PBE functional
 ----------------------------------------------------
 Symbolic Z-matrix:
 Charge =  0 Multiplicity = 1

                         Standard orientation:
 ---------------------------------------------------------------------
 Center     Atomic      Atomic             Coordinates (Angstroms)
 Number     Number       Type             X           Y           Z
 ---------------------------------------------------------------------
      1         12           0        4.387127    1.269303    0.274475
      2          6           0        3.933481   -2.329834    0.824664
      3          6           0        4.652291    0.484424   -3.061594
      4          6           0        4.274122    4.473128   -0.321311
      5          6           0        3.426614    1.779940    3.512627
      6          7           0        4.217511   -0.709548   -0.973162
      7          6           0        3.975337   -1.986143   -0.543635
      8          6           0        3.764578   -2.889235   -1.731981
      9          6           0        4.508079   -2.127185   -2.867675
     10          6           0        4.493996   -0.694006   -2.338472
     11          6           0        5.926535   -2.653119   -3.151605
     12          6           0        2.286300   -3.113552   -2.026172
     13          6           0        1.740791   -4.591500   -2.333766
     14          6           0        0.569789   -5.086589   -1.514628
     15          8           0        0.677094   -5.778025   -0.533900
     16          8           0       -0.635304   -4.697108   -2.099779
     17          7           0        4.591652    2.310844   -1.423350
     18          6           0        4.681787    1.875948   -2.736277
     19          6           0        4.977665    2.982723   -3.704769
     20          6           0        4.816854    4.154148   -2.879366
     21          6           0        4.562330    3.685146   -1.457447
     22          6           0        5.307537    2.791796   -5.089683
     23          6           0        4.971719    5.561383   -3.474281
     24          8           0        5.137317    5.694911   -4.664547
     25          6           0        4.864128    6.856844   -2.754081
     26          7           0        3.726421    2.812008    1.362790
     27          6           0        4.036784    4.068441    1.028508
     28          6           0        4.016470    5.026433    2.159860
     29          6           0        3.155085    4.221132    3.140108
     30          6           0        3.457595    2.849505    2.671688
     31          6           0        5.463080    5.493236    2.662654
     32          6           0        1.608768    4.419749    3.105275
     33          6           0        1.054156    5.487609    4.083974
     34          7           0        3.906837    0.053832    1.949091
     35          6           0        3.653132    0.431484    3.234505
     36          6           0        3.468868   -0.830919    4.071456
     37          6           0        3.736352   -1.900495    3.131607
     38          6           0        3.889118   -1.341818    1.913528
     39          6           0        3.107470   -0.836486    5.484676
     40          6           0        3.743349   -3.317390    3.070031
     41          8           0        3.541909   -4.084123    3.989432
     42          6           0        3.860239   -3.619215    1.558949
     43          6           0        5.045210   -4.475548    1.383785
     44          8           0        6.125927   -4.284712    1.984155
     45          8           0        4.819199   -5.410837    0.389451
     46          6           0        5.941248   -6.379383    0.368501
     47          6           0       -1.781895   -5.126096   -1.279756
     48          6           0       -2.623765   -3.902449   -0.956574
     49          6           0       -3.899650   -3.893059   -0.460146
     50          6           0       -4.464761   -5.132422    0.214636
     51          6           0       -4.576008   -2.505787   -0.055522
     52          6           0       -4.879969   -1.501440   -1.228818
     53          6           0       -4.260349   -0.048424   -0.901026
     54          6           0       -5.439687    0.972803   -0.902495
     55          6           0       -5.032044    2.520848   -1.221551
     56          6           0       -6.196126    0.901291    0.489390
     57          6           0       -7.763630    0.822269    0.395121
     58          6           0       -8.555500    2.036393    1.005461
     59          6           0       -9.823178    2.356217    0.256514
     60          6           0      -10.297060    3.835222    0.700603
     61          6           0      -10.992820    1.320614    0.628318
     62          6           0      -11.691991    0.615674   -0.548442
     63          6           0      -12.812619   -0.227032   -0.123734
     64          6           0      -14.215001    0.307399   -0.475389
     65          6           0      -14.830379   -0.593315   -1.535199
     66          6           0      -15.118900    0.693766    0.749380
     67          1           0        4.733805    0.253735   -4.125637
     68          1           0        4.540834    5.530035   -0.377011
     69          1           0        3.255087    1.938786    4.578995
     70          1           0        4.223171   -3.861501   -1.551627
     71          1           0        4.017849   -2.390221   -3.805451
     72          1           0        5.969176   -3.647809   -2.708066
     73          1           0        6.628559   -1.996832   -2.635825
     74          1           0        6.285178   -2.799476   -4.170595
     75          1           0        1.998654   -2.429754   -2.824852
     76          1           0        1.725445   -2.782914   -1.152027
     77          1           0        2.557715   -5.311229   -2.275481
     78          1           0        1.439385   -4.641761   -3.380037
     79          1           0        4.342938    2.862562   -5.592406
     80          1           0        5.716582    1.839288   -5.424449
     81          1           0        6.006682    3.488984   -5.552372
     82          1           0        5.464191    6.846748   -1.844196
     83          1           0        3.812293    7.009240   -2.510918
     84          1           0        5.078485    7.720707   -3.383689
     85          1           0        3.412651    5.859099    1.801694
     86          1           0        3.516568    4.191873    4.166977
     87          1           0        5.452644    6.554345    2.910580
     88          1           0        6.328720    5.240855    2.049967
     89          1           0        5.598992    5.067581    3.657240
     90          1           0        1.018135    3.503547    3.070775
     91          1           0        1.465060    4.818040    2.100566
     92          1           0        0.756576    6.393744    3.555335
     93          1           0        1.684175    5.776809    4.924774
     94          1           0        0.194906    5.003828    4.547505
     95          1           0        2.275010   -0.165364    5.694616
     96          1           0        3.965352   -0.540143    6.088806
     97          1           0        2.704463   -1.802101    5.787385
     98          1           0        2.971040   -4.197232    1.308056
     99          1           0        6.848202   -5.776726    0.329681
    100          1           0        5.758312   -6.952287   -0.541659
    101          1           0        5.983894   -7.033191    1.239614
    102          1           0       -1.636164   -5.775611   -0.416651
    103          1           0       -2.355794   -5.756111   -1.959692
    104          1           0       -2.165343   -2.940656   -1.188096
    105          1           0       -3.763135   -5.946281    0.396855
    106          1           0       -5.330232   -5.511305   -0.329258
    107          1           0       -4.701160   -4.737409    1.201517
    108          1           0       -4.043363   -2.172834    0.834855
    109          1           0       -5.602709   -2.692123    0.260049
    110          1           0       -5.953306   -1.315134   -1.271380
    111          1           0       -4.430270   -1.847484   -2.159858
    112          1           0       -3.455381    0.240417   -1.577406
    113          1           0       -3.820789    0.177079    0.070540
    114          1           0       -6.125559    0.682802   -1.697723
    115          1           0       -5.594254    2.870513   -2.088251
    116          1           0       -3.965199    2.713143   -1.335593
    117          1           0       -5.243853    3.183508   -0.382797
    118          1           0       -5.923783    1.723461    1.151613
    119          1           0       -5.842505    0.041726    1.057228
    120          1           0       -7.924475   -0.089660    0.970405
    121          1           0       -8.117950    0.721498   -0.630343
    122          1           0       -7.859699    2.874651    1.046777
    123          1           0       -8.817369    1.887749    2.053483
    124          1           0       -9.688348    2.201509   -0.814119
    125          1           0      -10.696213    4.331965   -0.183454
    126          1           0       -9.423875    4.425121    0.979126
    127          1           0      -10.993296    3.844662    1.538835
    128          1           0      -11.742849    1.864648    1.202881
    129          1           0      -10.600383    0.531325    1.268707
    130          1           0      -10.966974    0.036278   -1.120774
    131          1           0      -12.087799    1.442953   -1.136800
    132          1           0      -12.765348   -0.265227    0.964972
    133          1           0      -12.585333   -1.274399   -0.319350
    134          1           0      -14.119358    1.278445   -0.960318
    135          1           0      -14.209171   -0.352955   -2.397782
    136          1           0      -15.802626   -0.146547   -1.743246
    137          1           0      -14.932185   -1.668826   -1.388659
    138          1           0      -14.623476    0.443656    1.686859
    139          1           0      -15.980318    0.064347    0.526344
    140          1           0      -15.205667    1.778647    0.691910
 ---------------------------------------------------------------------

 SCF Done:  E(RPBE1PBE) =  -3005.30433361     A.U. after   15 cycles

 Excitation energies and oscillator strengths:

 Excited State   1:      Singlet-A      1.8142 eV  683.41 nm  f=0.3416  <S**2>=0.000
     245 -> 248       -0.17523
     246 -> 247        0.69294
     246 <- 247       -0.11208
 This state for optimization and/or second-order correction.
 Total Energy, E(TD-HF/TD-DFT) =  -3005.23766302
 Copying the excited state density for this state as the 1-particle RhoCI density.

 Excited State   2:      Singlet-A      2.2306 eV  555.83 nm  f=0.0885  <S**2>=0.000
     245 -> 247        0.63838
     246 -> 248        0.28553

 Excited State   3:      Singlet-A      2.8775 eV  430.87 nm  f=0.0073  <S**2>=0.000
     241 -> 247        0.12061
     243 -> 247        0.67951

 Excited State   4:      Singlet-A      3.0114 eV  411.71 nm  f=0.0000  <S**2>=0.000
     242 -> 247        0.66968
     242 -> 249       -0.14489

 Excited State   5:      Singlet-A      3.0387 eV  408.01 nm  f=0.0028  <S**2>=0.000
     241 -> 247        0.66076
     241 -> 249        0.13613
     243 -> 247       -0.12918

 The electronic state is 1-A.
 Alpha  occ. eigenvalues --  -46.91650 -19.26383 -19.26011 -19.20528 -19.20265
 Alpha  occ. eigenvalues --  -19.18587 -19.18360 -14.41387 -14.41172 -14.39908
 Alpha  occ. eigenvalues --  -14.38461 -10.36466 -10.36421 -10.31799 -10.30982
 Alpha  occ. eigenvalues --  -10.29136 -10.29005 -10.28901 -10.28812 -10.28770
 Alpha  occ. eigenvalues --  -10.28610 -10.28532 -10.27460 -10.27070 -10.26964
 Alpha  occ. eigenvalues --  -10.26485 -10.26321 -10.26167 -10.25880 -10.25827
 Alpha  occ. eigenvalues --  -10.25743 -10.25296 -10.25242 -10.25184 -10.25131
 Alpha  occ. eigenvalues --  -10.25119 -10.24977 -10.24682 -10.24647 -10.24646
 Alpha  occ. eigenvalues --  -10.24531 -10.24001 -10.23729 -10.23721 -10.23642
 Alpha  occ. eigenvalues --  -10.23472 -10.23447 -10.23350 -10.23180 -10.23129
 Alpha  occ. eigenvalues --  -10.23113 -10.23096 -10.22928 -10.22803 -10.22568
 Alpha  occ. eigenvalues --  -10.22538 -10.22505 -10.22208 -10.22052 -10.22029
 Alpha  occ. eigenvalues --  -10.22008 -10.21729 -10.21720 -10.21638 -10.21490
 Alpha  occ. eigenvalues --  -10.21077  -3.13978  -1.86782  -1.86382  -1.86207
 Alpha  occ. eigenvalues --   -1.11151  -1.10535  -1.05418  -1.04469  -1.03379
 Alpha  occ. eigenvalues --   -1.01717  -1.01275  -0.97819  -0.97023  -0.96426
 Alpha  occ. eigenvalues --   -0.87634  -0.84092  -0.83943  -0.83605  -0.83115
 Alpha  occ. eigenvalues --   -0.83084  -0.82244  -0.81893  -0.81210  -0.80942
 Alpha  occ. eigenvalues --   -0.79722  -0.79531  -0.78453  -0.77982  -0.77609
 Alpha  occ. eigenvalues --   -0.76645  -0.76297  -0.75641  -0.74978  -0.74287
 Alpha  occ. eigenvalues --   -0.73415  -0.72524  -0.72326  -0.72155  -0.70701
 Alpha  occ. eigenvalues --   -0.70034  -0.69789  -0.69038  -0.68430  -0.68001
 Alpha  occ. eigenvalues --   -0.66973  -0.66470  -0.66158  -0.64760  -0.64194
 Alpha  occ. eigenvalues --   -0.63035  -0.62083  -0.61524  -0.61088  -0.60451
 Alpha  occ. eigenvalues --   -0.59530  -0.59453  -0.59235  -0.58711  -0.58018
 Alpha  occ. eigenvalues --   -0.57966  -0.57468  -0.56827  -0.56816  -0.55115
 Alpha  occ. eigenvalues --   -0.54665  -0.53806  -0.53587  -0.53498  -0.52808
 Alpha  occ. eigenvalues --   -0.52462  -0.51344  -0.51057  -0.50491  -0.49710
 Alpha  occ. eigenvalues --   -0.49593  -0.49275  -0.48868  -0.48833  -0.48357
 Alpha  occ. eigenvalues --   -0.47853  -0.47649  -0.47234  -0.47097  -0.47011
 Alpha  occ. eigenvalues --   -0.46786  -0.46642  -0.46596  -0.46375  -0.46012
 Alpha  occ. eigenvalues --   -0.45800  -0.45708  -0.45550  -0.45183  -0.44919
 Alpha  occ. eigenvalues --   -0.44881  -0.44676  -0.44443  -0.44268  -0.44103
 Alpha  occ. eigenvalues --   -0.43960  -0.43727  -0.43693  -0.43415  -0.42911
 Alpha  occ. eigenvalues --   -0.42852  -0.42584  -0.42497  -0.42329  -0.42176
 Alpha  occ. eigenvalues --   -0.41878  -0.41717  -0.41560  -0.41413  -0.41345
 Alpha  occ. eigenvalues --   -0.41269  -0.41166  -0.40965  -0.40854  -0.40796
 Alpha  occ. eigenvalues --   -0.40582  -0.40519  -0.40100  -0.39989  -0.39362
 Alpha  occ. eigenvalues --   -0.39290  -0.39074  -0.39005  -0.38668  -0.38631
 Alpha  occ. eigenvalues --   -0.38508  -0.38433  -0.38144  -0.37925  -0.37862
 Alpha  occ. eigenvalues --   -0.37630  -0.37513  -0.37447  -0.36943  -0.36820
 Alpha  occ. eigenvalues --   -0.36791  -0.36528  -0.36200  -0.36125  -0.35991
 Alpha  occ. eigenvalues --   -0.35828  -0.35567  -0.35377  -0.35274  -0.34991
 Alpha  occ. eigenvalues --   -0.34895  -0.34633  -0.34259  -0.34161  -0.34121
 Alpha  occ. eigenvalues --   -0.33962  -0.33030  -0.32842  -0.32629  -0.32135
 Alpha  occ. eigenvalues --   -0.32106  -0.31977  -0.31691  -0.31462  -0.30583
 Alpha  occ. eigenvalues --   -0.30432  -0.30132  -0.29749  -0.29442  -0.29411
 Alpha  occ. eigenvalues --   -0.29175  -0.29090  -0.28678  -0.26624  -0.25667
 Alpha  occ. eigenvalues --   -0.25401  -0.25133  -0.24353  -0.24331  -0.20885
 Alpha  occ. eigenvalues --   -0.18462
 Alpha virt. eigenvalues --   -0.11017  -0.05362  -0.03463  -0.01918  -0.00508
 Alpha virt. eigenvalues --   -0.00159   0.00055   0.00883   0.01199   0.02858
 Alpha virt. eigenvalues --    0.04265   0.04332   0.05370   0.05947   0.05983

 Mulliken charges:
               1
     1  Mg   1.002942
     2  C   -0.020994
     3  C   -0.064894
     4  C   -0.055534
     5  C   -0.093270
     6  N   -0.346004
     7  C    0.015238
     8  C   -0.117439
     9  C   -0.131308
    10  C    0.078369
    11  C    0.017683
    12  C    0.033667
    13  C    0.013765
    14  C    0.207114
    15  O   -0.240790
    16  O   -0.376203
    17  N   -0.525971
    18  C    0.151556
    19  C   -0.119466
    20  C   -0.101821
    21  C    0.201441
    22  C    0.056712
    23  C    0.027967
    24  O   -0.238007
    25  C   -0.006214
    26  N   -0.414996
    27  C    0.035954
    28  C   -0.080277
    29  C   -0.117871
    30  C    0.092638
    31  C    0.030615
    32  C   -0.017917
    33  C   -0.045640
    34  N   -0.473738
    35  C    0.124927
    36  C   -0.176325
    37  C   -0.033145
    38  C    0.165402
    39  C    0.058585
    40  C    0.114271
    41  O   -0.200460
    42  C   -0.088099
    43  C    0.293566
    44  O   -0.277980
    45  O   -0.369080
    46  C    0.122513
    47  C    0.218865
    48  C   -0.116440
    49  C   -0.215142
    50  C   -0.011426
    51  C   -0.018996
    52  C   -0.037899
    53  C   -0.017560
    54  C   -0.243588
    55  C   -0.019331
    56  C   -0.022477
    57  C   -0.039057
    58  C   -0.011812
    59  C   -0.212317
    60  C   -0.016074
    61  C   -0.037051
    62  C   -0.044734
    63  C    0.018938
    64  C   -0.268113
    65  C   -0.011399
    66  C    0.002710
    67  H   -0.001051
    68  H   -0.006867
    69  H   -0.003837
    70  H    0.047240
    71  H    0.034789
    72  H    0.030319
    73  H    0.047108
    74  H    0.047626
    75  H    0.046628
    76  H    0.055045
    77  H    0.054667
    78  H    0.051643
    79  H    0.062769
    80  H    0.034806
    81  H    0.068362
    82  H    0.059476
    83  H    0.058912
    84  H    0.052451
    85  H    0.037785
    86  H    0.027685
    87  H    0.047415
    88  H    0.061894
    89  H    0.038484
    90  H    0.056416
    91  H    0.031732
    92  H    0.048452
    93  H    0.040644
    94  H    0.044588
    95  H    0.038636
    96  H    0.063400
    97  H    0.058000
    98  H    0.081302
    99  H    0.068587
   100  H    0.055255
   101  H    0.070750
   102  H    0.080551
   103  H    0.050937
   104  H    0.032141
   105  H    0.033877
   106  H    0.057204
   107  H    0.051165
   108  H    0.067433
   109  H    0.026467
   110  H    0.052520
   111  H    0.056056
   112  H    0.024964
   113  H    0.029292
   114  H    0.040707
   115  H    0.042550
   116  H    0.029239
   117  H    0.023575
   118  H    0.024946
   119  H    0.021488
   120  H    0.031083
   121  H    0.033212
   122  H    0.023623
   123  H    0.024757
   124  H    0.035228
   125  H    0.038363
   126  H    0.026943
   127  H    0.045473
   128  H    0.021233
   129  H    0.028232
   130  H    0.028124
   131  H    0.025324
   132  H    0.005416
   133  H    0.018757
   134  H    0.030390
   135  H    0.035317
   136  H    0.023437
   137  H    0.048504
   138  H    0.033064
   139  H    0.037588
   140  H    0.041127
 Sum of Mulliken charges =  -0.00000

 Dipole moment (field-independent basis, Debye):
    X=             -1.3055    Y=              3.1923    Z=             -0.9537  Tot=              3.5784
 Quadrupole moment (field-independent basis, Debye-Ang):
   XX=           -401.5895   YY=           -393.1746   ZZ=           -410.9824
   XY=              9.2612   XZ=             -9.5923   YZ=             54.1657

 Normal termination of Gaussian 16 at Sat Apr 30 08:47:43 2022.
