 Gaussian 16, Revision A.03,
 Gaussian 16:  ES64L-G16RevA.03 25-Dec-2016

 --------------------------------
 #p wB97XD/Def2SVP td=(nstates=5)
 --------------------------------

 ---------------------------------------------------
 step_651_chromophore_8 TDDFT with wB97XD functional
 ---------------------------------------------------
 Symbolic Z-matrix:
 Charge =  0 Multiplicity = 1

                         Standard orientation:
 ---------------------------------------------------------------------
 Center     Atomic      Atomic             Coordinates (Angstroms)
 Number     Number       Type             X           Y           Z
 ---------------------------------------------------------------------
      1         12           0        4.387127    1.269303    0.274475
      2          6           0        3.933481   -2.329834    0.824664
      3          6           0        4.652291    0.484424   -3.061594
      4          6           0        4.274122    4.473128   -0.321311
      5          6           0        3.426614    1.779940    3.512627
      6          7           0        4.217511   -0.709548   -0.973162
      7          6           0        3.975337   -1.986143   -0.543635
      8          6           0        3.764578   -2.889235   -1.731981
      9          6           0        4.508079   -2.127185   -2.867675
     10          6           0        4.493996   -0.694006   -2.338472
     11          6           0        5.926535   -2.653119   -3.151605
     12          6           0        2.286300   -3.113552   -2.026172
     13          6           0        1.740791   -4.591500   -2.333766
     14          6           0        0.569789   -5.086589   -1.514628
     15          8           0        0.677094   -5.778025   -0.533900
     16          8           0       -0.635304   -4.697108   -2.099779
     17          7           0        4.591652    2.310844   -1.423350
     18          6           0        4.681787    1.875948   -2.736277
     19          6           0        4.977665    2.982723   -3.704769
     20          6           0        4.816854    4.154148   -2.879366
     21          6           0        4.562330    3.685146   -1.457447
     22          6           0        5.307537    2.791796   -5.089683
     23          6           0        4.971719    5.561383   -3.474281
     24          8           0        5.137317    5.694911   -4.664547
     25          6           0        4.864128    6.856844   -2.754081
     26          7           0        3.726421    2.812008    1.362790
     27          6           0        4.036784    4.068441    1.028508
     28          6           0        4.016470    5.026433    2.159860
     29          6           0        3.155085    4.221132    3.140108
     30          6           0        3.457595    2.849505    2.671688
     31          6           0        5.463080    5.493236    2.662654
     32          6           0        1.608768    4.419749    3.105275
     33          6           0        1.054156    5.487609    4.083974
     34          7           0        3.906837    0.053832    1.949091
     35          6           0        3.653132    0.431484    3.234505
     36          6           0        3.468868   -0.830919    4.071456
     37          6           0        3.736352   -1.900495    3.131607
     38          6           0        3.889118   -1.341818    1.913528
     39          6           0        3.107470   -0.836486    5.484676
     40          6           0        3.743349   -3.317390    3.070031
     41          8           0        3.541909   -4.084123    3.989432
     42          6           0        3.860239   -3.619215    1.558949
     43          6           0        5.045210   -4.475548    1.383785
     44          8           0        6.125927   -4.284712    1.984155
     45          8           0        4.819199   -5.410837    0.389451
     46          6           0        5.941248   -6.379383    0.368501
     47          6           0       -1.781895   -5.126096   -1.279756
     48          6           0       -2.623765   -3.902449   -0.956574
     49          6           0       -3.899650   -3.893059   -0.460146
     50          6           0       -4.464761   -5.132422    0.214636
     51          6           0       -4.576008   -2.505787   -0.055522
     52          6           0       -4.879969   -1.501440   -1.228818
     53          6           0       -4.260349   -0.048424   -0.901026
     54          6           0       -5.439687    0.972803   -0.902495
     55          6           0       -5.032044    2.520848   -1.221551
     56          6           0       -6.196126    0.901291    0.489390
     57          6           0       -7.763630    0.822269    0.395121
     58          6           0       -8.555500    2.036393    1.005461
     59          6           0       -9.823178    2.356217    0.256514
     60          6           0      -10.297060    3.835222    0.700603
     61          6           0      -10.992820    1.320614    0.628318
     62          6           0      -11.691991    0.615674   -0.548442
     63          6           0      -12.812619   -0.227032   -0.123734
     64          6           0      -14.215001    0.307399   -0.475389
     65          6           0      -14.830379   -0.593315   -1.535199
     66          6           0      -15.118900    0.693766    0.749380
     67          1           0        4.733805    0.253735   -4.125637
     68          1           0        4.540834    5.530035   -0.377011
     69          1           0        3.255087    1.938786    4.578995
     70          1           0        4.223171   -3.861501   -1.551627
     71          1           0        4.017849   -2.390221   -3.805451
     72          1           0        5.969176   -3.647809   -2.708066
     73          1           0        6.628559   -1.996832   -2.635825
     74          1           0        6.285178   -2.799476   -4.170595
     75          1           0        1.998654   -2.429754   -2.824852
     76          1           0        1.725445   -2.782914   -1.152027
     77          1           0        2.557715   -5.311229   -2.275481
     78          1           0        1.439385   -4.641761   -3.380037
     79          1           0        4.342938    2.862562   -5.592406
     80          1           0        5.716582    1.839288   -5.424449
     81          1           0        6.006682    3.488984   -5.552372
     82          1           0        5.464191    6.846748   -1.844196
     83          1           0        3.812293    7.009240   -2.510918
     84          1           0        5.078485    7.720707   -3.383689
     85          1           0        3.412651    5.859099    1.801694
     86          1           0        3.516568    4.191873    4.166977
     87          1           0        5.452644    6.554345    2.910580
     88          1           0        6.328720    5.240855    2.049967
     89          1           0        5.598992    5.067581    3.657240
     90          1           0        1.018135    3.503547    3.070775
     91          1           0        1.465060    4.818040    2.100566
     92          1           0        0.756576    6.393744    3.555335
     93          1           0        1.684175    5.776809    4.924774
     94          1           0        0.194906    5.003828    4.547505
     95          1           0        2.275010   -0.165364    5.694616
     96          1           0        3.965352   -0.540143    6.088806
     97          1           0        2.704463   -1.802101    5.787385
     98          1           0        2.971040   -4.197232    1.308056
     99          1           0        6.848202   -5.776726    0.329681
    100          1           0        5.758312   -6.952287   -0.541659
    101          1           0        5.983894   -7.033191    1.239614
    102          1           0       -1.636164   -5.775611   -0.416651
    103          1           0       -2.355794   -5.756111   -1.959692
    104          1           0       -2.165343   -2.940656   -1.188096
    105          1           0       -3.763135   -5.946281    0.396855
    106          1           0       -5.330232   -5.511305   -0.329258
    107          1           0       -4.701160   -4.737409    1.201517
    108          1           0       -4.043363   -2.172834    0.834855
    109          1           0       -5.602709   -2.692123    0.260049
    110          1           0       -5.953306   -1.315134   -1.271380
    111          1           0       -4.430270   -1.847484   -2.159858
    112          1           0       -3.455381    0.240417   -1.577406
    113          1           0       -3.820789    0.177079    0.070540
    114          1           0       -6.125559    0.682802   -1.697723
    115          1           0       -5.594254    2.870513   -2.088251
    116          1           0       -3.965199    2.713143   -1.335593
    117          1           0       -5.243853    3.183508   -0.382797
    118          1           0       -5.923783    1.723461    1.151613
    119          1           0       -5.842505    0.041726    1.057228
    120          1           0       -7.924475   -0.089660    0.970405
    121          1           0       -8.117950    0.721498   -0.630343
    122          1           0       -7.859699    2.874651    1.046777
    123          1           0       -8.817369    1.887749    2.053483
    124          1           0       -9.688348    2.201509   -0.814119
    125          1           0      -10.696213    4.331965   -0.183454
    126          1           0       -9.423875    4.425121    0.979126
    127          1           0      -10.993296    3.844662    1.538835
    128          1           0      -11.742849    1.864648    1.202881
    129          1           0      -10.600383    0.531325    1.268707
    130          1           0      -10.966974    0.036278   -1.120774
    131          1           0      -12.087799    1.442953   -1.136800
    132          1           0      -12.765348   -0.265227    0.964972
    133          1           0      -12.585333   -1.274399   -0.319350
    134          1           0      -14.119358    1.278445   -0.960318
    135          1           0      -14.209171   -0.352955   -2.397782
    136          1           0      -15.802626   -0.146547   -1.743246
    137          1           0      -14.932185   -1.668826   -1.388659
    138          1           0      -14.623476    0.443656    1.686859
    139          1           0      -15.980318    0.064347    0.526344
    140          1           0      -15.205667    1.778647    0.691910
 ---------------------------------------------------------------------

 SCF Done:  E(RwB97XD) =  -3007.80957927     A.U. after   18 cycles

 Excitation energies and oscillator strengths:

 Excited State   1:      Singlet-A      1.6118 eV  769.21 nm  f=0.3519  <S**2>=0.000
     245 -> 248        0.18371
     246 -> 247        0.68334
     245 <- 248        0.11751
 This state for optimization and/or second-order correction.
 Total Energy, E(TD-HF/TD-DFT) =  -3007.75034553
 Copying the excited state density for this state as the 1-particle RhoCI density.

 Excited State   2:      Singlet-A      2.1752 eV  570.00 nm  f=0.0862  <S**2>=0.000
     245 -> 247        0.62366
     246 -> 248       -0.31593

 Excited State   3:      Singlet-A      3.2664 eV  379.58 nm  f=0.0009  <S**2>=0.000
     244 -> 247        0.67286
     246 -> 248        0.10053

 Excited State   4:      Singlet-A      3.4489 eV  359.49 nm  f=0.5539  <S**2>=0.000
     240 -> 247        0.10330
     242 -> 247       -0.26680
     245 -> 247        0.27815
     246 -> 248        0.57206
     245 <- 247       -0.10838

 Excited State   5:      Singlet-A      3.5736 eV  346.95 nm  f=0.1573  <S**2>=0.000
     240 -> 249       -0.17118
     240 -> 250       -0.14609
     241 -> 247        0.22888
     241 -> 249       -0.13620
     242 -> 247        0.49326
     242 -> 249       -0.14137
     245 -> 247        0.15308
     246 -> 248        0.20474

 The electronic state is 1-A.
 Alpha  occ. eigenvalues --  -46.94605 -19.30931 -19.30527 -19.25167 -19.24910
 Alpha  occ. eigenvalues --  -19.23322 -19.23250 -14.46613 -14.46240 -14.45023
 Alpha  occ. eigenvalues --  -14.43243 -10.43240 -10.43182 -10.38773 -10.37699
 Alpha  occ. eigenvalues --  -10.35828 -10.35449 -10.35430 -10.35323 -10.35273
 Alpha  occ. eigenvalues --  -10.35160 -10.34780 -10.33790 -10.33572 -10.33076
 Alpha  occ. eigenvalues --  -10.32761 -10.32679 -10.32353 -10.32216 -10.32137
 Alpha  occ. eigenvalues --  -10.31935 -10.31552 -10.31521 -10.31486 -10.31452
 Alpha  occ. eigenvalues --  -10.31442 -10.31398 -10.31257 -10.30963 -10.30945
 Alpha  occ. eigenvalues --  -10.30905 -10.30239 -10.30081 -10.30079 -10.29908
 Alpha  occ. eigenvalues --  -10.29859 -10.29799 -10.29793 -10.29779 -10.29718
 Alpha  occ. eigenvalues --  -10.29549 -10.29462 -10.29180 -10.29009 -10.28892
 Alpha  occ. eigenvalues --  -10.28874 -10.28868 -10.28615 -10.28414 -10.28409
 Alpha  occ. eigenvalues --  -10.28397 -10.28122 -10.28062 -10.27861 -10.27841
 Alpha  occ. eigenvalues --  -10.27416  -3.20785  -1.94341  -1.93940  -1.93760
 Alpha  occ. eigenvalues --   -1.18494  -1.17914  -1.13040  -1.11805  -1.10684
 Alpha  occ. eigenvalues --   -1.09061  -1.08647  -1.05312  -1.04546  -1.03659
 Alpha  occ. eigenvalues --   -0.95149  -0.91628  -0.91591  -0.91236  -0.90789
 Alpha  occ. eigenvalues --   -0.90742  -0.89904  -0.89580  -0.89006  -0.88607
 Alpha  occ. eigenvalues --   -0.87263  -0.87113  -0.86020  -0.85650  -0.85268
 Alpha  occ. eigenvalues --   -0.84307  -0.84019  -0.83348  -0.82619  -0.81916
 Alpha  occ. eigenvalues --   -0.81076  -0.80157  -0.80004  -0.79861  -0.78297
 Alpha  occ. eigenvalues --   -0.77638  -0.77472  -0.76711  -0.76109  -0.75647
 Alpha  occ. eigenvalues --   -0.74553  -0.74047  -0.73620  -0.72391  -0.71704
 Alpha  occ. eigenvalues --   -0.70496  -0.69712  -0.69202  -0.68539  -0.68074
 Alpha  occ. eigenvalues --   -0.67115  -0.67089  -0.66679  -0.66128  -0.65693
 Alpha  occ. eigenvalues --   -0.65428  -0.65113  -0.64442  -0.64225  -0.62622
 Alpha  occ. eigenvalues --   -0.62144  -0.61235  -0.61035  -0.60942  -0.60307
 Alpha  occ. eigenvalues --   -0.59783  -0.58817  -0.58497  -0.57873  -0.57116
 Alpha  occ. eigenvalues --   -0.56930  -0.56629  -0.56273  -0.56244  -0.55821
 Alpha  occ. eigenvalues --   -0.55281  -0.54894  -0.54613  -0.54501  -0.54416
 Alpha  occ. eigenvalues --   -0.54124  -0.54032  -0.53992  -0.53782  -0.53302
 Alpha  occ. eigenvalues --   -0.53200  -0.53099  -0.52955  -0.52572  -0.52265
 Alpha  occ. eigenvalues --   -0.52163  -0.52010  -0.51854  -0.51614  -0.51462
 Alpha  occ. eigenvalues --   -0.51188  -0.51053  -0.51028  -0.50695  -0.50211
 Alpha  occ. eigenvalues --   -0.50072  -0.49836  -0.49766  -0.49587  -0.49465
 Alpha  occ. eigenvalues --   -0.49134  -0.48920  -0.48821  -0.48634  -0.48527
 Alpha  occ. eigenvalues --   -0.48515  -0.48417  -0.48187  -0.48165  -0.48122
 Alpha  occ. eigenvalues --   -0.47780  -0.47730  -0.47332  -0.47162  -0.46442
 Alpha  occ. eigenvalues --   -0.46371  -0.46288  -0.46177  -0.45812  -0.45750
 Alpha  occ. eigenvalues --   -0.45667  -0.45566  -0.45250  -0.45091  -0.45018
 Alpha  occ. eigenvalues --   -0.44691  -0.44608  -0.44518  -0.44115  -0.44038
 Alpha  occ. eigenvalues --   -0.43826  -0.43721  -0.43272  -0.43174  -0.43057
 Alpha  occ. eigenvalues --   -0.42863  -0.42596  -0.42408  -0.42298  -0.42027
 Alpha  occ. eigenvalues --   -0.41878  -0.41626  -0.41343  -0.41221  -0.41159
 Alpha  occ. eigenvalues --   -0.41040  -0.39986  -0.39896  -0.39681  -0.39234
 Alpha  occ. eigenvalues --   -0.39018  -0.38970  -0.38701  -0.38500  -0.37507
 Alpha  occ. eigenvalues --   -0.37373  -0.37090  -0.36504  -0.36481  -0.36299
 Alpha  occ. eigenvalues --   -0.36221  -0.35966  -0.35350  -0.33209  -0.32614
 Alpha  occ. eigenvalues --   -0.32403  -0.32340  -0.31078  -0.30652  -0.25929
 Alpha  occ. eigenvalues --   -0.22645
 Alpha virt. eigenvalues --   -0.06886   0.00019   0.02815   0.04653   0.05404
 Alpha virt. eigenvalues --    0.06646   0.06891   0.07611   0.07986   0.09299
 Alpha virt. eigenvalues --    0.10781   0.11203   0.12037   0.12730   0.12786

 Mulliken charges:
               1
     1  Mg   0.991087
     2  C   -0.020164
     3  C   -0.078642
     4  C   -0.075732
     5  C   -0.107834
     6  N   -0.311575
     7  C   -0.020188
     8  C   -0.082153
     9  C   -0.102633
    10  C    0.063795
    11  C    0.023634
    12  C    0.039835
    13  C    0.028575
    14  C    0.199157
    15  O   -0.239525
    16  O   -0.376522
    17  N   -0.497132
    18  C    0.148038
    19  C   -0.105517
    20  C   -0.099154
    21  C    0.205043
    22  C    0.063393
    23  C    0.025554
    24  O   -0.233756
    25  C    0.004021
    26  N   -0.385449
    27  C    0.027208
    28  C   -0.051950
    29  C   -0.088636
    30  C    0.081143
    31  C    0.038081
    32  C   -0.005884
    33  C   -0.031556
    34  N   -0.437644
    35  C    0.106309
    36  C   -0.173475
    37  C   -0.026910
    38  C    0.144425
    39  C    0.068202
    40  C    0.094517
    41  O   -0.190510
    42  C   -0.048706
    43  C    0.272445
    44  O   -0.275029
    45  O   -0.368626
    46  C    0.138161
    47  C    0.232260
    48  C   -0.126898
    49  C   -0.201978
    50  C    0.004924
    51  C   -0.003135
    52  C   -0.016777
    53  C   -0.006456
    54  C   -0.210535
    55  C   -0.007654
    56  C   -0.008256
    57  C   -0.021907
    58  C    0.005693
    59  C   -0.181757
    60  C   -0.002207
    61  C   -0.022344
    62  C   -0.023932
    63  C    0.031941
    64  C   -0.239255
    65  C    0.002758
    66  C    0.015817
    67  H   -0.007564
    68  H   -0.018567
    69  H   -0.009098
    70  H    0.025004
    71  H    0.026545
    72  H    0.025038
    73  H    0.040852
    74  H    0.043546
    75  H    0.039161
    76  H    0.045139
    77  H    0.050436
    78  H    0.046408
    79  H    0.059383
    80  H    0.031701
    81  H    0.066645
    82  H    0.055290
    83  H    0.054895
    84  H    0.052150
    85  H    0.027896
    86  H    0.016085
    87  H    0.042700
    88  H    0.057321
    89  H    0.032794
    90  H    0.050048
    91  H    0.020055
    92  H    0.042689
    93  H    0.034794
    94  H    0.038784
    95  H    0.031754
    96  H    0.057322
    97  H    0.053501
    98  H    0.077438
    99  H    0.063676
   100  H    0.052354
   101  H    0.066854
   102  H    0.075705
   103  H    0.045517
   104  H    0.028063
   105  H    0.028408
   106  H    0.052103
   107  H    0.044649
   108  H    0.060064
   109  H    0.017940
   110  H    0.040796
   111  H    0.048734
   112  H    0.018205
   113  H    0.018687
   114  H    0.026298
   115  H    0.037421
   116  H    0.023783
   117  H    0.016359
   118  H    0.015370
   119  H    0.010312
   120  H    0.023257
   121  H    0.021052
   122  H    0.011348
   123  H    0.015989
   124  H    0.022931
   125  H    0.032754
   126  H    0.020473
   127  H    0.039615
   128  H    0.008485
   129  H    0.017397
   130  H    0.020269
   131  H    0.012552
   132  H   -0.008085
   133  H    0.012737
   134  H    0.017651
   135  H    0.027122
   136  H    0.016604
   137  H    0.043777
   138  H    0.027088
   139  H    0.031243
   140  H    0.036274
 Sum of Mulliken charges =  -0.00000

 Dipole moment (field-independent basis, Debye):
    X=             -1.1162    Y=              3.4341    Z=             -1.5008  Tot=              3.9104
 Quadrupole moment (field-independent basis, Debye-Ang):
   XX=           -399.5213   YY=           -391.3813   ZZ=           -411.3128
   XY=             10.6883   XZ=            -11.9687   YZ=             53.2303

 Normal termination of Gaussian 16 at Sat Apr 30 09:15:36 2022.
