 Gaussian 16, Revision A.03,
 Gaussian 16:  ES64L-G16RevA.03 25-Dec-2016

 --------------------
 #p ZINDO=(nstates=5)
 --------------------

 ----------------------------
 step_651_chromophore_8 ZINDO
 ----------------------------
 Symbolic Z-matrix:
 Charge =  0 Multiplicity = 1

                         Standard orientation:
 ---------------------------------------------------------------------
 Center     Atomic      Atomic             Coordinates (Angstroms)
 Number     Number       Type             X           Y           Z
 ---------------------------------------------------------------------
      1         12           0        4.387127    1.269303    0.274475
      2          6           0        3.933481   -2.329834    0.824664
      3          6           0        4.652291    0.484424   -3.061594
      4          6           0        4.274122    4.473128   -0.321311
      5          6           0        3.426614    1.779940    3.512627
      6          7           0        4.217511   -0.709548   -0.973162
      7          6           0        3.975337   -1.986143   -0.543635
      8          6           0        3.764578   -2.889235   -1.731981
      9          6           0        4.508079   -2.127185   -2.867675
     10          6           0        4.493996   -0.694006   -2.338472
     11          6           0        5.926535   -2.653119   -3.151605
     12          6           0        2.286300   -3.113552   -2.026172
     13          6           0        1.740791   -4.591500   -2.333766
     14          6           0        0.569789   -5.086589   -1.514628
     15          8           0        0.677094   -5.778025   -0.533900
     16          8           0       -0.635304   -4.697108   -2.099779
     17          7           0        4.591652    2.310844   -1.423350
     18          6           0        4.681787    1.875948   -2.736277
     19          6           0        4.977665    2.982723   -3.704769
     20          6           0        4.816854    4.154148   -2.879366
     21          6           0        4.562330    3.685146   -1.457447
     22          6           0        5.307537    2.791796   -5.089683
     23          6           0        4.971719    5.561383   -3.474281
     24          8           0        5.137317    5.694911   -4.664547
     25          6           0        4.864128    6.856844   -2.754081
     26          7           0        3.726421    2.812008    1.362790
     27          6           0        4.036784    4.068441    1.028508
     28          6           0        4.016470    5.026433    2.159860
     29          6           0        3.155085    4.221132    3.140108
     30          6           0        3.457595    2.849505    2.671688
     31          6           0        5.463080    5.493236    2.662654
     32          6           0        1.608768    4.419749    3.105275
     33          6           0        1.054156    5.487609    4.083974
     34          7           0        3.906837    0.053832    1.949091
     35          6           0        3.653132    0.431484    3.234505
     36          6           0        3.468868   -0.830919    4.071456
     37          6           0        3.736352   -1.900495    3.131607
     38          6           0        3.889118   -1.341818    1.913528
     39          6           0        3.107470   -0.836486    5.484676
     40          6           0        3.743349   -3.317390    3.070031
     41          8           0        3.541909   -4.084123    3.989432
     42          6           0        3.860239   -3.619215    1.558949
     43          6           0        5.045210   -4.475548    1.383785
     44          8           0        6.125927   -4.284712    1.984155
     45          8           0        4.819199   -5.410837    0.389451
     46          6           0        5.941248   -6.379383    0.368501
     47          6           0       -1.781895   -5.126096   -1.279756
     48          6           0       -2.623765   -3.902449   -0.956574
     49          6           0       -3.899650   -3.893059   -0.460146
     50          6           0       -4.464761   -5.132422    0.214636
     51          6           0       -4.576008   -2.505787   -0.055522
     52          6           0       -4.879969   -1.501440   -1.228818
     53          6           0       -4.260349   -0.048424   -0.901026
     54          6           0       -5.439687    0.972803   -0.902495
     55          6           0       -5.032044    2.520848   -1.221551
     56          6           0       -6.196126    0.901291    0.489390
     57          6           0       -7.763630    0.822269    0.395121
     58          6           0       -8.555500    2.036393    1.005461
     59          6           0       -9.823178    2.356217    0.256514
     60          6           0      -10.297060    3.835222    0.700603
     61          6           0      -10.992820    1.320614    0.628318
     62          6           0      -11.691991    0.615674   -0.548442
     63          6           0      -12.812619   -0.227032   -0.123734
     64          6           0      -14.215001    0.307399   -0.475389
     65          6           0      -14.830379   -0.593315   -1.535199
     66          6           0      -15.118900    0.693766    0.749380
     67          1           0        4.733805    0.253735   -4.125637
     68          1           0        4.540834    5.530035   -0.377011
     69          1           0        3.255087    1.938786    4.578995
     70          1           0        4.223171   -3.861501   -1.551627
     71          1           0        4.017849   -2.390221   -3.805451
     72          1           0        5.969176   -3.647809   -2.708066
     73          1           0        6.628559   -1.996832   -2.635825
     74          1           0        6.285178   -2.799476   -4.170595
     75          1           0        1.998654   -2.429754   -2.824852
     76          1           0        1.725445   -2.782914   -1.152027
     77          1           0        2.557715   -5.311229   -2.275481
     78          1           0        1.439385   -4.641761   -3.380037
     79          1           0        4.342938    2.862562   -5.592406
     80          1           0        5.716582    1.839288   -5.424449
     81          1           0        6.006682    3.488984   -5.552372
     82          1           0        5.464191    6.846748   -1.844196
     83          1           0        3.812293    7.009240   -2.510918
     84          1           0        5.078485    7.720707   -3.383689
     85          1           0        3.412651    5.859099    1.801694
     86          1           0        3.516568    4.191873    4.166977
     87          1           0        5.452644    6.554345    2.910580
     88          1           0        6.328720    5.240855    2.049967
     89          1           0        5.598992    5.067581    3.657240
     90          1           0        1.018135    3.503547    3.070775
     91          1           0        1.465060    4.818040    2.100566
     92          1           0        0.756576    6.393744    3.555335
     93          1           0        1.684175    5.776809    4.924774
     94          1           0        0.194906    5.003828    4.547505
     95          1           0        2.275010   -0.165364    5.694616
     96          1           0        3.965352   -0.540143    6.088806
     97          1           0        2.704463   -1.802101    5.787385
     98          1           0        2.971040   -4.197232    1.308056
     99          1           0        6.848202   -5.776726    0.329681
    100          1           0        5.758312   -6.952287   -0.541659
    101          1           0        5.983894   -7.033191    1.239614
    102          1           0       -1.636164   -5.775611   -0.416651
    103          1           0       -2.355794   -5.756111   -1.959692
    104          1           0       -2.165343   -2.940656   -1.188096
    105          1           0       -3.763135   -5.946281    0.396855
    106          1           0       -5.330232   -5.511305   -0.329258
    107          1           0       -4.701160   -4.737409    1.201517
    108          1           0       -4.043363   -2.172834    0.834855
    109          1           0       -5.602709   -2.692123    0.260049
    110          1           0       -5.953306   -1.315134   -1.271380
    111          1           0       -4.430270   -1.847484   -2.159858
    112          1           0       -3.455381    0.240417   -1.577406
    113          1           0       -3.820789    0.177079    0.070540
    114          1           0       -6.125559    0.682802   -1.697723
    115          1           0       -5.594254    2.870513   -2.088251
    116          1           0       -3.965199    2.713143   -1.335593
    117          1           0       -5.243853    3.183508   -0.382797
    118          1           0       -5.923783    1.723461    1.151613
    119          1           0       -5.842505    0.041726    1.057228
    120          1           0       -7.924475   -0.089660    0.970405
    121          1           0       -8.117950    0.721498   -0.630343
    122          1           0       -7.859699    2.874651    1.046777
    123          1           0       -8.817369    1.887749    2.053483
    124          1           0       -9.688348    2.201509   -0.814119
    125          1           0      -10.696213    4.331965   -0.183454
    126          1           0       -9.423875    4.425121    0.979126
    127          1           0      -10.993296    3.844662    1.538835
    128          1           0      -11.742849    1.864648    1.202881
    129          1           0      -10.600383    0.531325    1.268707
    130          1           0      -10.966974    0.036278   -1.120774
    131          1           0      -12.087799    1.442953   -1.136800
    132          1           0      -12.765348   -0.265227    0.964972
    133          1           0      -12.585333   -1.274399   -0.319350
    134          1           0      -14.119358    1.278445   -0.960318
    135          1           0      -14.209171   -0.352955   -2.397782
    136          1           0      -15.802626   -0.146547   -1.743246
    137          1           0      -14.932185   -1.668826   -1.388659
    138          1           0      -14.623476    0.443656    1.686859
    139          1           0      -15.980318    0.064347    0.526344
    140          1           0      -15.205667    1.778647    0.691910
 ---------------------------------------------------------------------

 SCF Done:  E(RZINDO/S) =  -474.187305529     A.U. after   20 cycles

 Excitation energies and oscillator strengths:

 Excited State   1:      Singlet-A      1.2379 eV 1001.53 nm  f=0.5849  <S**2>=0.000
     175 ->178         0.18673
     176 ->177         0.66321
 This state for optimization and/or second-order correction.
 Total Energy, E(CIS/TDA) =  -474.141811748
 Copying the excited state density for this state as the 1-particle RhoCI density.

 Excited State   2:      Singlet-A      1.8834 eV  658.30 nm  f=0.0141  <S**2>=0.000
     175 ->177         0.51181
     176 ->178        -0.46233

 Excited State   3:      Singlet-A      2.9134 eV  425.56 nm  f=1.0119  <S**2>=0.000
     175 ->177         0.41002
     176 ->178         0.48082
     176 ->179        -0.18014
     176 ->181         0.11712

 Excited State   4:      Singlet-A      2.9258 eV  423.76 nm  f=0.0152  <S**2>=0.000
     168 ->177         0.28509
     168 ->178        -0.14628
     168 ->179         0.38636
     168 ->180        -0.30877
     168 ->186        -0.26584
     168 ->191        -0.10796
     168 ->193         0.11032

 Excited State   5:      Singlet-A      2.9784 eV  416.28 nm  f=0.0017  <S**2>=0.000
     170 ->177         0.27907
     170 ->179        -0.29277
     170 ->180        -0.24946
     170 ->182         0.13258
     170 ->183        -0.19180
     170 ->184         0.10582
     170 ->186         0.15093
     170 ->187         0.13894
     174 ->177        -0.20342

 The electronic state is 1-A.
 Alpha  occ. eigenvalues --   -1.88763  -1.82016  -1.79024  -1.73043  -1.72238
 Alpha  occ. eigenvalues --   -1.70763  -1.64584  -1.61712  -1.59837  -1.59735
 Alpha  occ. eigenvalues --   -1.53928  -1.50251  -1.47490  -1.46694  -1.45934
 Alpha  occ. eigenvalues --   -1.43446  -1.42906  -1.39986  -1.38035  -1.37918
 Alpha  occ. eigenvalues --   -1.35877  -1.32771  -1.32388  -1.31349  -1.30242
 Alpha  occ. eigenvalues --   -1.27081  -1.26402  -1.22919  -1.20716  -1.18517
 Alpha  occ. eigenvalues --   -1.16391  -1.16035  -1.15055  -1.14495  -1.13147
 Alpha  occ. eigenvalues --   -1.11883  -1.10931  -1.09363  -1.06466  -1.03573
 Alpha  occ. eigenvalues --   -1.01441  -1.00099  -0.98122  -0.97800  -0.96680
 Alpha  occ. eigenvalues --   -0.95702  -0.94975  -0.94023  -0.93030  -0.93018
 Alpha  occ. eigenvalues --   -0.90801  -0.90173  -0.89741  -0.88919  -0.87318
 Alpha  occ. eigenvalues --   -0.86006  -0.84999  -0.82891  -0.82080  -0.80517
 Alpha  occ. eigenvalues --   -0.79558  -0.78597  -0.77333  -0.76442  -0.75998
 Alpha  occ. eigenvalues --   -0.74852  -0.74442  -0.74222  -0.73238  -0.72866
 Alpha  occ. eigenvalues --   -0.72732  -0.72140  -0.71876  -0.71693  -0.70924
 Alpha  occ. eigenvalues --   -0.70312  -0.69653  -0.68416  -0.68126  -0.67923
 Alpha  occ. eigenvalues --   -0.67350  -0.67097  -0.66663  -0.65946  -0.65537
 Alpha  occ. eigenvalues --   -0.65145  -0.64991  -0.64137  -0.63989  -0.63611
 Alpha  occ. eigenvalues --   -0.63348  -0.62929  -0.62433  -0.62388  -0.62290
 Alpha  occ. eigenvalues --   -0.61561  -0.61252  -0.61017  -0.60859  -0.60037
 Alpha  occ. eigenvalues --   -0.59708  -0.59586  -0.59434  -0.58347  -0.58239
 Alpha  occ. eigenvalues --   -0.57818  -0.57772  -0.56935  -0.56645  -0.56492
 Alpha  occ. eigenvalues --   -0.56038  -0.55576  -0.55111  -0.54742  -0.54379
 Alpha  occ. eigenvalues --   -0.54136  -0.53926  -0.53025  -0.52853  -0.52636
 Alpha  occ. eigenvalues --   -0.52312  -0.52046  -0.51884  -0.51689  -0.51613
 Alpha  occ. eigenvalues --   -0.51056  -0.50927  -0.50499  -0.50451  -0.50369
 Alpha  occ. eigenvalues --   -0.50055  -0.49817  -0.49625  -0.49345  -0.48936
 Alpha  occ. eigenvalues --   -0.48851  -0.48755  -0.48281  -0.48151  -0.47908
 Alpha  occ. eigenvalues --   -0.47852  -0.47434  -0.47108  -0.47003  -0.46181
 Alpha  occ. eigenvalues --   -0.46150  -0.45933  -0.45882  -0.45650  -0.45347
 Alpha  occ. eigenvalues --   -0.45279  -0.45078  -0.44533  -0.44285  -0.43467
 Alpha  occ. eigenvalues --   -0.43312  -0.42916  -0.42676  -0.42627  -0.42402
 Alpha  occ. eigenvalues --   -0.42046  -0.41562  -0.41314  -0.38966  -0.38890
 Alpha  occ. eigenvalues --   -0.37829  -0.37462  -0.35089  -0.34842  -0.33773
 Alpha  occ. eigenvalues --   -0.33282  -0.32548  -0.31813  -0.31021  -0.26597
 Alpha  occ. eigenvalues --   -0.21322
 Alpha virt. eigenvalues --   -0.08252  -0.02268  -0.00136   0.01637   0.01871
 Alpha virt. eigenvalues --    0.01948   0.02551   0.02797   0.04108   0.04723
 Alpha virt. eigenvalues --    0.06181   0.06426   0.07441   0.07799   0.08126

 Mulliken charges:
               1
     1  Mg   0.429846
     2  C   -0.041195
     3  C   -0.075317
     4  C   -0.114771
     5  C   -0.067105
     6  N   -0.305229
     7  C    0.119748
     8  C    0.012738
     9  C    0.010509
    10  C    0.144582
    11  C   -0.054281
    12  C   -0.017827
    13  C   -0.000950
    14  C    0.473328
    15  O   -0.501008
    16  O   -0.271574
    17  N   -0.317050
    18  C    0.113643
    19  C    0.069765
    20  C   -0.068536
    21  C    0.139551
    22  C   -0.020660
    23  C    0.327717
    24  O   -0.525357
    25  C   -0.021575
    26  N   -0.262465
    27  C    0.165360
    28  C    0.015205
    29  C    0.004798
    30  C    0.123947
    31  C   -0.050261
    32  C   -0.027097
    33  C   -0.058788
    34  N   -0.335257
    35  C    0.079123
    36  C    0.012285
    37  C   -0.041396
    38  C    0.096420
    39  C   -0.028624
    40  C    0.340906
    41  O   -0.521506
    42  C    0.072425
    43  C    0.489188
    44  O   -0.525781
    45  O   -0.272146
    46  C    0.073132
    47  C    0.104963
    48  C   -0.071533
    49  C   -0.038885
    50  C   -0.043639
    51  C   -0.031325
    52  C   -0.030816
    53  C   -0.045136
    54  C   -0.018478
    55  C   -0.070312
    56  C   -0.039961
    57  C   -0.046822
    58  C   -0.028867
    59  C   -0.019891
    60  C   -0.063591
    61  C   -0.044474
    62  C   -0.027775
    63  C   -0.030806
    64  C   -0.015605
    65  C   -0.056406
    66  C   -0.068748
    67  H    0.013114
    68  H    0.016866
    69  H    0.015155
    70  H    0.029375
    71  H    0.026333
    72  H    0.017167
    73  H    0.022953
    74  H    0.025626
    75  H    0.025173
    76  H    0.024467
    77  H    0.037657
    78  H    0.028835
    79  H    0.040694
    80  H    0.021255
    81  H    0.043431
    82  H    0.029768
    83  H    0.035481
    84  H    0.040628
    85  H    0.028316
    86  H    0.024326
    87  H    0.021107
    88  H    0.038181
    89  H    0.019936
    90  H    0.037332
    91  H    0.011019
    92  H    0.023012
    93  H    0.022605
    94  H    0.016756
    95  H    0.020441
    96  H    0.037242
    97  H    0.031948
    98  H    0.055386
    99  H    0.050006
   100  H    0.026845
   101  H    0.052427
   102  H    0.071716
   103  H    0.032396
   104  H    0.032498
   105  H    0.024624
   106  H    0.030415
   107  H    0.027007
   108  H    0.039949
   109  H    0.010215
   110  H    0.033253
   111  H    0.031522
   112  H    0.015062
   113  H    0.024597
   114  H    0.020548
   115  H    0.020495
   116  H    0.019689
   117  H    0.015594
   118  H    0.019421
   119  H    0.013038
   120  H    0.018311
   121  H    0.025858
   122  H    0.014213
   123  H    0.017475
   124  H    0.029775
   125  H    0.016066
   126  H    0.014419
   127  H    0.029984
   128  H    0.018732
   129  H    0.015196
   130  H    0.017803
   131  H    0.015550
   132  H    0.004039
   133  H    0.018846
   134  H    0.015183
   135  H    0.013488
   136  H    0.007563
   137  H    0.031947
   138  H    0.023237
   139  H    0.032035
   140  H    0.027026
 Sum of Mulliken charges =  -0.00000

 Dipole moment (field-independent basis, Debye):
    X=             -2.0023    Y=              5.2584    Z=             -2.6721  Tot=              6.2290
 N-N= 4.411247651825D+03 E-N= 0.000000000000D+00  KE=-9.496837858627D+03
 Leave Link  601 at Sat Apr 30 09:27:33 2022, MaxMem=  6710886400 cpu:               0.8 elap:               0.1
 (Enter /sw/apps/gaussian-16.0/g16/l9999.exe)
 1\1\GINC-BP1-COMPUTE102\SP\RZINDO CIS\STO-3G\C55H74Mg1N4O6\OF15641\30-
 Apr-2022\0\\#p ZINDO=(nstates=5)\\step_651_chromophore_8 ZINDO\\0,1\Mg
 ,0,44.188,3.601,47.594\C,0,41.565,6.145,47.262\C,0,41.629,1.306,47.608
 \C,0,46.477,1.29,47.366\C,0,46.486,6.027,46.885\N,0,41.857,3.728,47.36
 7\C,0,41.063,4.828,47.187\C,0,39.649,4.391,46.901\C,0,39.603,2.97,47.5
 35\C,0,41.081,2.583,47.533\C,0,38.969,2.929,48.937\C,0,39.339,4.394,45
 .409\C,0,37.967,5.031,44.872\C,0,38.063,6.074,43.781\O,0,38.054,7.262,

 Normal termination of Gaussian 16 at Sat Apr 30 09:27:33 2022.
