 Gaussian 16, Revision A.03,
 Gaussian 16:  ES64L-G16RevA.03 25-Dec-2016

 ------------------------------
 #p blyp/Def2SVP td=(nstates=5)
 ------------------------------

 ---------------------------------------------------
 step_1701_chromophore_22 TDDFT with blyp functional
 ---------------------------------------------------
 Symbolic Z-matrix:
 Charge =  0 Multiplicity = 1

                         Standard orientation:
 ---------------------------------------------------------------------
 Center     Atomic      Atomic             Coordinates (Angstroms)
 Number     Number       Type             X           Y           Z
 ---------------------------------------------------------------------
      1         12           0        6.041263    0.368834    0.154226
      2          6           0        3.801559   -2.236341   -0.230530
      3          6           0        3.370602    2.530828   -0.779659
      4          6           0        8.238613    3.016695   -0.181818
      5          6           0        8.623334   -1.831760    0.371775
      6          7           0        3.795670    0.113605   -0.415910
      7          6           0        3.118143   -1.023239   -0.522935
      8          6           0        1.664767   -0.834389   -0.997046
      9          6           0        1.670074    0.718791   -1.391798
     10          6           0        3.019567    1.161970   -0.779792
     11          6           0        1.579228    0.822596   -2.867333
     12          6           0        0.629110   -1.233810    0.098020
     13          6           0       -0.694625   -0.456157    0.120693
     14          6           0       -1.805907   -0.976341    0.954649
     15          8           0       -1.802384   -1.001407    2.155374
     16          8           0       -2.877077   -1.426919    0.181398
     17          7           0        5.876458    2.511836   -0.407670
     18          6           0        4.668410    3.204942   -0.575937
     19          6           0        4.894219    4.607641   -0.474597
     20          6           0        6.334844    4.731050   -0.362712
     21          6           0        6.881566    3.365179   -0.401555
     22          6           0        3.831779    5.764239   -0.614797
     23          6           0        7.251507    6.005516   -0.144126
     24          8           0        8.478234    5.904631   -0.142107
     25          6           0        6.640040    7.364996    0.116661
     26          7           0        8.125799    0.622520    0.191374
     27          6           0        8.795723    1.741627    0.007157
     28          6           0       10.283908    1.524475    0.226622
     29          6           0       10.430988   -0.029291    0.418037
     30          6           0        8.976567   -0.477496    0.377581
     31          6           0       11.229285    2.100338   -0.885465
     32          6           0       11.025088   -0.457813    1.776336
     33          6           0       11.778553   -1.787716    1.640629
     34          7           0        6.212728   -1.538263    0.223100
     35          6           0        7.318640   -2.347589    0.267681
     36          6           0        6.964896   -3.679008    0.388713
     37          6           0        5.539477   -3.702209    0.231704
     38          6           0        5.144767   -2.392648    0.080005
     39          6           0        7.938572   -4.781463    0.437291
     40          6           0        4.453135   -4.602203    0.034804
     41          8           0        4.498499   -5.836685   -0.029698
     42          6           0        3.298263   -3.735729   -0.246587
     43          6           0        2.117090   -4.105265    0.541923
     44          8           0        1.838567   -3.817075    1.697099
     45          8           0        1.287432   -4.778132   -0.239248
     46          6           0       -0.042454   -5.070687    0.394194
     47          6           0       -4.083647   -1.507011    0.910854
     48          6           0       -5.001165   -0.776489   -0.026437
     49          6           0       -6.317944   -0.746524   -0.019128
     50          6           0       -7.157034   -1.320482    1.028474
     51          6           0       -6.969228    0.151057   -1.059910
     52          6           0       -7.560496   -0.661496   -2.178229
     53          6           0       -8.808848   -0.131517   -2.898626
     54          6           0      -10.192011   -0.977990   -2.699163
     55          6           0      -10.222134   -2.158233   -3.757450
     56          6           0      -11.423131   -0.133661   -2.857264
     57          6           0      -11.950224    0.479771   -1.555254
     58          6           0      -13.395270    0.047113   -1.255263
     59          6           0      -13.992362    0.964161   -0.148068
     60          6           0      -14.990722    1.977615   -0.646980
     61          6           0      -14.449246    0.315615    1.207392
     62          6           0      -14.164821    1.170575    2.430298
     63          6           0      -12.758358    0.933020    3.204490
     64          6           0      -11.797775    2.096125    2.792567
     65          6           0      -10.324476    1.717973    2.831002
     66          6           0      -12.227561    3.271894    3.759283
     67          1           0        2.601546    3.218674   -1.135951
     68          1           0        9.034481    3.758667   -0.081477
     69          1           0        9.433403   -2.559399    0.285448
     70          1           0        1.543070   -1.434321   -1.899251
     71          1           0        0.919874    1.397922   -0.986317
     72          1           0        1.473860   -0.051254   -3.511903
     73          1           0        2.513838    1.242026   -3.239806
     74          1           0        0.767721    1.491798   -3.152021
     75          1           0        1.099249   -1.260799    1.081280
     76          1           0        0.361627   -2.288103    0.016299
     77          1           0       -1.097274   -0.201691   -0.859659
     78          1           0       -0.420173    0.467224    0.630625
     79          1           0        4.104460    6.240401   -1.556161
     80          1           0        3.751111    6.414673    0.256880
     81          1           0        2.866551    5.325331   -0.867585
     82          1           0        6.001922    7.574585   -0.741598
     83          1           0        7.404541    8.128091    0.259699
     84          1           0        5.953038    7.249778    0.955483
     85          1           0       10.531828    2.050965    1.148350
     86          1           0       10.987484   -0.342461   -0.465757
     87          1           0       10.576592    2.639218   -1.572246
     88          1           0       11.871747    1.358871   -1.359332
     89          1           0       11.872292    2.809969   -0.365756
     90          1           0       10.238618   -0.534310    2.526791
     91          1           0       11.751008    0.246146    2.181458
     92          1           0       12.832256   -1.637027    1.874774
     93          1           0       11.762570   -2.136422    0.607814
     94          1           0       11.308511   -2.568443    2.238058
     95          1           0        8.502273   -4.953697    1.354379
     96          1           0        8.673042   -4.704384   -0.364676
     97          1           0        7.353874   -5.696442    0.338007
     98          1           0        3.140774   -4.034934   -1.283203
     99          1           0        0.061669   -6.094597    0.753465
    100          1           0       -0.750368   -5.009432   -0.431701
    101          1           0       -0.406690   -4.368256    1.143726
    102          1           0       -4.133325   -0.995808    1.872422
    103          1           0       -4.385574   -2.548150    1.027038
    104          1           0       -4.500326   -0.388132   -0.913667
    105          1           0       -7.567968   -0.511661    1.632629
    106          1           0       -6.600998   -2.001968    1.672283
    107          1           0       -7.863953   -1.952528    0.490741
    108          1           0       -6.345091    0.953683   -1.453571
    109          1           0       -7.740644    0.678167   -0.497890
    110          1           0       -7.935627   -1.557401   -1.684722
    111          1           0       -6.791176   -0.874877   -2.920369
    112          1           0       -8.610347   -0.207062   -3.967556
    113          1           0       -8.949504    0.921808   -2.658617
    114          1           0      -10.219633   -1.497329   -1.741712
    115          1           0      -10.200544   -3.113332   -3.232362
    116          1           0       -9.326082   -2.191860   -4.377110
    117          1           0      -11.093188   -2.007337   -4.395287
    118          1           0      -12.169192   -0.690664   -3.425629
    119          1           0      -11.220012    0.714222   -3.510791
    120          1           0      -12.131855    1.547788   -1.673188
    121          1           0      -11.278996    0.404058   -0.699458
    122          1           0      -13.306197   -0.988629   -0.924125
    123          1           0      -13.968476    0.109431   -2.179973
    124          1           0      -13.195883    1.632943    0.177122
    125          1           0      -15.059343    1.976248   -1.734476
    126          1           0      -14.716768    2.963554   -0.271183
    127          1           0      -15.981462    1.765879   -0.243746
    128          1           0      -13.923017   -0.625760    1.364256
    129          1           0      -15.507223    0.072392    1.101747
    130          1           0      -14.843825    1.129443    3.282984
    131          1           0      -14.225377    2.213300    2.116655
    132          1           0      -12.312395    0.015228    2.822921
    133          1           0      -12.828201    0.746405    4.276280
    134          1           0      -11.937800    2.477667    1.781782
    135          1           0       -9.899686    1.562581    1.839167
    136          1           0      -10.184185    0.852849    3.478113
    137          1           0       -9.817797    2.537337    3.342090
    138          1           0      -12.354955    4.130968    3.100423
    139          1           0      -11.441702    3.533418    4.467839
    140          1           0      -13.105193    3.058110    4.369028
 ---------------------------------------------------------------------

 SCF Done:  E(RB-LYP) =  -3007.35064821     A.U. after   21 cycles

 Excitation energies and oscillator strengths:

 Excited State   1:      Singlet-A      1.8467 eV  671.39 nm  f=0.2364  <S**2>=0.000
     243 -> 247       -0.11797
     244 -> 247        0.31105
     245 -> 247       -0.18202
     245 -> 248        0.17957
     246 -> 247        0.57791
     246 <- 247       -0.12316
 This state for optimization and/or second-order correction.
 Total Energy, E(TD-HF/TD-DFT) =  -3007.28278411
 Copying the excited state density for this state as the 1-particle RhoCI density.

 Excited State   2:      Singlet-A      1.8518 eV  669.53 nm  f=0.0739  <S**2>=0.000
     244 -> 247        0.60681
     245 -> 247       -0.10657
     246 -> 247       -0.32537

 Excited State   3:      Singlet-A      1.8763 eV  660.79 nm  f=0.0134  <S**2>=0.000
     243 -> 247        0.69113
     246 -> 247        0.13839

 Excited State   4:      Singlet-A      1.9902 eV  622.96 nm  f=0.1009  <S**2>=0.000
     244 -> 247        0.17923
     245 -> 247        0.62781
     246 -> 247        0.11486
     246 -> 248       -0.21813

 Excited State   5:      Singlet-A      2.2280 eV  556.49 nm  f=0.0000  <S**2>=0.000
     242 -> 247        0.70708

 The electronic state is 1-A.
 Alpha  occ. eigenvalues --  -46.27025 -18.82358 -18.81960 -18.77102 -18.75752
 Alpha  occ. eigenvalues --  -18.75655 -18.75192 -14.03677 -14.03014 -14.00885
 Alpha  occ. eigenvalues --  -14.00594 -10.03924 -10.03360 -10.00268  -9.98805
 Alpha  occ. eigenvalues --   -9.97764  -9.97180  -9.97156  -9.96697  -9.96503
 Alpha  occ. eigenvalues --   -9.96099  -9.95850  -9.95469  -9.95024  -9.94604
 Alpha  occ. eigenvalues --   -9.94402  -9.94369  -9.94271  -9.94239  -9.93986
 Alpha  occ. eigenvalues --   -9.93719  -9.93697  -9.93579  -9.93434  -9.93368
 Alpha  occ. eigenvalues --   -9.93088  -9.92920  -9.92721  -9.92674  -9.92568
 Alpha  occ. eigenvalues --   -9.92350  -9.92311  -9.92240  -9.92219  -9.91991
 Alpha  occ. eigenvalues --   -9.91918  -9.91712  -9.91687  -9.91685  -9.91504
 Alpha  occ. eigenvalues --   -9.91470  -9.91460  -9.91385  -9.91358  -9.91351
 Alpha  occ. eigenvalues --   -9.91293  -9.91193  -9.91187  -9.91080  -9.90921
 Alpha  occ. eigenvalues --   -9.90844  -9.90824  -9.90793  -9.90648  -9.90510
 Alpha  occ. eigenvalues --   -9.90165  -2.91810  -1.72213  -1.71679  -1.71552
 Alpha  occ. eigenvalues --   -0.98921  -0.98838  -0.91344  -0.91179  -0.90523
 Alpha  occ. eigenvalues --   -0.89067  -0.87385  -0.86494  -0.85975  -0.85142
 Alpha  occ. eigenvalues --   -0.76458  -0.74258  -0.73365  -0.73189  -0.72607
 Alpha  occ. eigenvalues --   -0.71910  -0.71596  -0.70971  -0.70761  -0.70367
 Alpha  occ. eigenvalues --   -0.69831  -0.69133  -0.68382  -0.68044  -0.67165
 Alpha  occ. eigenvalues --   -0.66618  -0.66078  -0.65398  -0.65275  -0.64443
 Alpha  occ. eigenvalues --   -0.64247  -0.63019  -0.62321  -0.61856  -0.61127
 Alpha  occ. eigenvalues --   -0.60759  -0.60328  -0.59993  -0.59497  -0.58857
 Alpha  occ. eigenvalues --   -0.58295  -0.57710  -0.56927  -0.55965  -0.54486
 Alpha  occ. eigenvalues --   -0.54175  -0.53704  -0.52627  -0.51882  -0.51849
 Alpha  occ. eigenvalues --   -0.51318  -0.51195  -0.50556  -0.50315  -0.50029
 Alpha  occ. eigenvalues --   -0.49733  -0.49430  -0.48693  -0.48649  -0.46645
 Alpha  occ. eigenvalues --   -0.46420  -0.46032  -0.45927  -0.45404  -0.45235
 Alpha  occ. eigenvalues --   -0.44453  -0.44214  -0.43245  -0.43037  -0.42681
 Alpha  occ. eigenvalues --   -0.42288  -0.42140  -0.41759  -0.41433  -0.41122
 Alpha  occ. eigenvalues --   -0.41033  -0.40808  -0.40169  -0.40135  -0.39861
 Alpha  occ. eigenvalues --   -0.39766  -0.39668  -0.39600  -0.39162  -0.38941
 Alpha  occ. eigenvalues --   -0.38922  -0.38808  -0.38631  -0.38314  -0.38209
 Alpha  occ. eigenvalues --   -0.38065  -0.38046  -0.37960  -0.37851  -0.37667
 Alpha  occ. eigenvalues --   -0.37353  -0.37174  -0.36986  -0.36808  -0.36714
 Alpha  occ. eigenvalues --   -0.36532  -0.36377  -0.36030  -0.35831  -0.35603
 Alpha  occ. eigenvalues --   -0.35505  -0.35488  -0.35397  -0.35028  -0.34965
 Alpha  occ. eigenvalues --   -0.34881  -0.34596  -0.34583  -0.34477  -0.34012
 Alpha  occ. eigenvalues --   -0.33878  -0.33585  -0.33354  -0.33067  -0.32924
 Alpha  occ. eigenvalues --   -0.32896  -0.32757  -0.32400  -0.32342  -0.32242
 Alpha  occ. eigenvalues --   -0.32117  -0.32032  -0.31852  -0.31713  -0.31540
 Alpha  occ. eigenvalues --   -0.31332  -0.31080  -0.30860  -0.30822  -0.30615
 Alpha  occ. eigenvalues --   -0.30424  -0.30342  -0.30308  -0.30122  -0.30068
 Alpha  occ. eigenvalues --   -0.29962  -0.29838  -0.29605  -0.29072  -0.28844
 Alpha  occ. eigenvalues --   -0.28665  -0.28551  -0.28448  -0.27983  -0.27736
 Alpha  occ. eigenvalues --   -0.27107  -0.27010  -0.26808  -0.26699  -0.26626
 Alpha  occ. eigenvalues --   -0.26234  -0.26144  -0.25776  -0.25746  -0.25495
 Alpha  occ. eigenvalues --   -0.24979  -0.24754  -0.24362  -0.24013  -0.23573
 Alpha  occ. eigenvalues --   -0.23275  -0.22392  -0.22165  -0.21320  -0.20509
 Alpha  occ. eigenvalues --   -0.20187  -0.20036  -0.18620  -0.18581  -0.17223
 Alpha  occ. eigenvalues --   -0.16251
 Alpha virt. eigenvalues --   -0.11849  -0.06749  -0.06140  -0.04316  -0.03070
 Alpha virt. eigenvalues --   -0.02541  -0.02055  -0.01318  -0.00812   0.00315
 Alpha virt. eigenvalues --    0.01205   0.01265   0.01432   0.02390   0.02582

 Mulliken charges:
               1
     1  Mg   0.727965
     2  C    0.021816
     3  C   -0.049300
     4  C   -0.045274
     5  C   -0.093923
     6  N   -0.146634
     7  C   -0.146267
     8  C    0.063459
     9  C   -0.020886
    10  C    0.023912
    11  C    0.124754
    12  C    0.082796
    13  C    0.173172
    14  C    0.046652
    15  O   -0.162713
    16  O   -0.275194
    17  N   -0.232853
    18  C    0.090188
    19  C   -0.145282
    20  C   -0.019481
    21  C    0.107405
    22  C    0.160738
    23  C   -0.057322
    24  O   -0.171012
    25  C    0.147630
    26  N   -0.224893
    27  C   -0.017920
    28  C   -0.012864
    29  C    0.040323
    30  C    0.043203
    31  C    0.124135
    32  C    0.096449
    33  C    0.071194
    34  N   -0.354255
    35  C    0.143057
    36  C   -0.159662
    37  C    0.085773
    38  C    0.128823
    39  C    0.164150
    40  C   -0.102520
    41  O   -0.145888
    42  C    0.115603
    43  C    0.083459
    44  O   -0.189565
    45  O   -0.255141
    46  C    0.204927
    47  C    0.334915
    48  C   -0.154518
    49  C   -0.164776
    50  C    0.176383
    51  C    0.149941
    52  C    0.086455
    53  C    0.106332
    54  C   -0.104293
    55  C    0.097821
    56  C    0.158694
    57  C    0.024464
    58  C    0.119769
    59  C   -0.107400
    60  C    0.122127
    61  C    0.155289
    62  C    0.051229
    63  C    0.086220
    64  C   -0.139923
    65  C    0.124141
    66  C    0.100457
    67  H   -0.062112
    68  H   -0.036713
    69  H   -0.063280
    70  H   -0.021573
    71  H   -0.019318
    72  H   -0.008508
    73  H   -0.014195
    74  H   -0.013961
    75  H    0.003286
    76  H   -0.013306
    77  H   -0.016123
    78  H    0.003776
    79  H    0.012612
    80  H    0.022006
    81  H   -0.026049
    82  H   -0.000759
    83  H    0.003871
    84  H    0.006143
    85  H   -0.016965
    86  H   -0.022991
    87  H    0.004049
    88  H   -0.005462
    89  H   -0.008938
    90  H   -0.015695
    91  H   -0.023404
    92  H   -0.008746
    93  H   -0.009475
    94  H   -0.001947
    95  H   -0.008301
    96  H    0.001177
    97  H   -0.001063
    98  H    0.002500
    99  H    0.030371
   100  H    0.008957
   101  H    0.046607
   102  H    0.010947
   103  H   -0.001366
   104  H   -0.036910
   105  H    0.018344
   106  H   -0.025193
   107  H   -0.011333
   108  H   -0.035044
   109  H   -0.047366
   110  H   -0.036078
   111  H   -0.028192
   112  H   -0.038622
   113  H   -0.035706
   114  H   -0.033813
   115  H   -0.014615
   116  H   -0.022808
   117  H   -0.012089
   118  H   -0.040076
   119  H   -0.042802
   120  H   -0.042336
   121  H   -0.016430
   122  H   -0.039065
   123  H   -0.030250
   124  H   -0.029167
   125  H   -0.020820
   126  H   -0.015088
   127  H   -0.026150
   128  H   -0.045729
   129  H   -0.033169
   130  H   -0.037874
   131  H   -0.033933
   132  H   -0.047709
   133  H   -0.020136
   134  H   -0.023632
   135  H    0.001752
   136  H   -0.020225
   137  H   -0.031464
   138  H   -0.018044
   139  H   -0.025388
   140  H   -0.004953
 Sum of Mulliken charges =  -0.00000

 Dipole moment (field-independent basis, Debye):
    X=             -2.1719    Y=              3.3697    Z=             -2.2987  Tot=              4.6213
 Quadrupole moment (field-independent basis, Debye-Ang):
   XX=           -379.3542   YY=           -427.0310   ZZ=           -409.6904
   XY=             -0.9819   XZ=              4.9984   YZ=              4.6621

 Normal termination of Gaussian 16 at Wed May  4 12:43:05 2022.
