 Gaussian 16, Revision A.03,
 Gaussian 16:  ES64L-G16RevA.03 25-Dec-2016

 -----------------------------------
 #p cam-b3lyp/Def2SVP td=(nstates=5)
 -----------------------------------

 --------------------------------------------------------
 step_1701_chromophore_22 TDDFT with cam-b3lyp functional
 --------------------------------------------------------
 Symbolic Z-matrix:
 Charge =  0 Multiplicity = 1

                         Standard orientation:
 ---------------------------------------------------------------------
 Center     Atomic      Atomic             Coordinates (Angstroms)
 Number     Number       Type             X           Y           Z
 ---------------------------------------------------------------------
      1         12           0        6.041263    0.368834    0.154226
      2          6           0        3.801559   -2.236341   -0.230530
      3          6           0        3.370602    2.530828   -0.779659
      4          6           0        8.238613    3.016695   -0.181818
      5          6           0        8.623334   -1.831760    0.371775
      6          7           0        3.795670    0.113605   -0.415910
      7          6           0        3.118143   -1.023239   -0.522935
      8          6           0        1.664767   -0.834389   -0.997046
      9          6           0        1.670074    0.718791   -1.391798
     10          6           0        3.019567    1.161970   -0.779792
     11          6           0        1.579228    0.822596   -2.867333
     12          6           0        0.629110   -1.233810    0.098020
     13          6           0       -0.694625   -0.456157    0.120693
     14          6           0       -1.805907   -0.976341    0.954649
     15          8           0       -1.802384   -1.001407    2.155374
     16          8           0       -2.877077   -1.426919    0.181398
     17          7           0        5.876458    2.511836   -0.407670
     18          6           0        4.668410    3.204942   -0.575937
     19          6           0        4.894219    4.607641   -0.474597
     20          6           0        6.334844    4.731050   -0.362712
     21          6           0        6.881566    3.365179   -0.401555
     22          6           0        3.831779    5.764239   -0.614797
     23          6           0        7.251507    6.005516   -0.144126
     24          8           0        8.478234    5.904631   -0.142107
     25          6           0        6.640040    7.364996    0.116661
     26          7           0        8.125799    0.622520    0.191374
     27          6           0        8.795723    1.741627    0.007157
     28          6           0       10.283908    1.524475    0.226622
     29          6           0       10.430988   -0.029291    0.418037
     30          6           0        8.976567   -0.477496    0.377581
     31          6           0       11.229285    2.100338   -0.885465
     32          6           0       11.025088   -0.457813    1.776336
     33          6           0       11.778553   -1.787716    1.640629
     34          7           0        6.212728   -1.538263    0.223100
     35          6           0        7.318640   -2.347589    0.267681
     36          6           0        6.964896   -3.679008    0.388713
     37          6           0        5.539477   -3.702209    0.231704
     38          6           0        5.144767   -2.392648    0.080005
     39          6           0        7.938572   -4.781463    0.437291
     40          6           0        4.453135   -4.602203    0.034804
     41          8           0        4.498499   -5.836685   -0.029698
     42          6           0        3.298263   -3.735729   -0.246587
     43          6           0        2.117090   -4.105265    0.541923
     44          8           0        1.838567   -3.817075    1.697099
     45          8           0        1.287432   -4.778132   -0.239248
     46          6           0       -0.042454   -5.070687    0.394194
     47          6           0       -4.083647   -1.507011    0.910854
     48          6           0       -5.001165   -0.776489   -0.026437
     49          6           0       -6.317944   -0.746524   -0.019128
     50          6           0       -7.157034   -1.320482    1.028474
     51          6           0       -6.969228    0.151057   -1.059910
     52          6           0       -7.560496   -0.661496   -2.178229
     53          6           0       -8.808848   -0.131517   -2.898626
     54          6           0      -10.192011   -0.977990   -2.699163
     55          6           0      -10.222134   -2.158233   -3.757450
     56          6           0      -11.423131   -0.133661   -2.857264
     57          6           0      -11.950224    0.479771   -1.555254
     58          6           0      -13.395270    0.047113   -1.255263
     59          6           0      -13.992362    0.964161   -0.148068
     60          6           0      -14.990722    1.977615   -0.646980
     61          6           0      -14.449246    0.315615    1.207392
     62          6           0      -14.164821    1.170575    2.430298
     63          6           0      -12.758358    0.933020    3.204490
     64          6           0      -11.797775    2.096125    2.792567
     65          6           0      -10.324476    1.717973    2.831002
     66          6           0      -12.227561    3.271894    3.759283
     67          1           0        2.601546    3.218674   -1.135951
     68          1           0        9.034481    3.758667   -0.081477
     69          1           0        9.433403   -2.559399    0.285448
     70          1           0        1.543070   -1.434321   -1.899251
     71          1           0        0.919874    1.397922   -0.986317
     72          1           0        1.473860   -0.051254   -3.511903
     73          1           0        2.513838    1.242026   -3.239806
     74          1           0        0.767721    1.491798   -3.152021
     75          1           0        1.099249   -1.260799    1.081280
     76          1           0        0.361627   -2.288103    0.016299
     77          1           0       -1.097274   -0.201691   -0.859659
     78          1           0       -0.420173    0.467224    0.630625
     79          1           0        4.104460    6.240401   -1.556161
     80          1           0        3.751111    6.414673    0.256880
     81          1           0        2.866551    5.325331   -0.867585
     82          1           0        6.001922    7.574585   -0.741598
     83          1           0        7.404541    8.128091    0.259699
     84          1           0        5.953038    7.249778    0.955483
     85          1           0       10.531828    2.050965    1.148350
     86          1           0       10.987484   -0.342461   -0.465757
     87          1           0       10.576592    2.639218   -1.572246
     88          1           0       11.871747    1.358871   -1.359332
     89          1           0       11.872292    2.809969   -0.365756
     90          1           0       10.238618   -0.534310    2.526791
     91          1           0       11.751008    0.246146    2.181458
     92          1           0       12.832256   -1.637027    1.874774
     93          1           0       11.762570   -2.136422    0.607814
     94          1           0       11.308511   -2.568443    2.238058
     95          1           0        8.502273   -4.953697    1.354379
     96          1           0        8.673042   -4.704384   -0.364676
     97          1           0        7.353874   -5.696442    0.338007
     98          1           0        3.140774   -4.034934   -1.283203
     99          1           0        0.061669   -6.094597    0.753465
    100          1           0       -0.750368   -5.009432   -0.431701
    101          1           0       -0.406690   -4.368256    1.143726
    102          1           0       -4.133325   -0.995808    1.872422
    103          1           0       -4.385574   -2.548150    1.027038
    104          1           0       -4.500326   -0.388132   -0.913667
    105          1           0       -7.567968   -0.511661    1.632629
    106          1           0       -6.600998   -2.001968    1.672283
    107          1           0       -7.863953   -1.952528    0.490741
    108          1           0       -6.345091    0.953683   -1.453571
    109          1           0       -7.740644    0.678167   -0.497890
    110          1           0       -7.935627   -1.557401   -1.684722
    111          1           0       -6.791176   -0.874877   -2.920369
    112          1           0       -8.610347   -0.207062   -3.967556
    113          1           0       -8.949504    0.921808   -2.658617
    114          1           0      -10.219633   -1.497329   -1.741712
    115          1           0      -10.200544   -3.113332   -3.232362
    116          1           0       -9.326082   -2.191860   -4.377110
    117          1           0      -11.093188   -2.007337   -4.395287
    118          1           0      -12.169192   -0.690664   -3.425629
    119          1           0      -11.220012    0.714222   -3.510791
    120          1           0      -12.131855    1.547788   -1.673188
    121          1           0      -11.278996    0.404058   -0.699458
    122          1           0      -13.306197   -0.988629   -0.924125
    123          1           0      -13.968476    0.109431   -2.179973
    124          1           0      -13.195883    1.632943    0.177122
    125          1           0      -15.059343    1.976248   -1.734476
    126          1           0      -14.716768    2.963554   -0.271183
    127          1           0      -15.981462    1.765879   -0.243746
    128          1           0      -13.923017   -0.625760    1.364256
    129          1           0      -15.507223    0.072392    1.101747
    130          1           0      -14.843825    1.129443    3.282984
    131          1           0      -14.225377    2.213300    2.116655
    132          1           0      -12.312395    0.015228    2.822921
    133          1           0      -12.828201    0.746405    4.276280
    134          1           0      -11.937800    2.477667    1.781782
    135          1           0       -9.899686    1.562581    1.839167
    136          1           0      -10.184185    0.852849    3.478113
    137          1           0       -9.817797    2.537337    3.342090
    138          1           0      -12.354955    4.130968    3.100423
    139          1           0      -11.441702    3.533418    4.467839
    140          1           0      -13.105193    3.058110    4.369028
 ---------------------------------------------------------------------

 SCF Done:  E(RCAM-B3LYP) =  -3007.15703096     A.U. after   16 cycles

 Excitation energies and oscillator strengths:

 Excited State   1:      Singlet-A      1.7383 eV  713.26 nm  f=0.3977  <S**2>=0.000
     245 -> 248       -0.18926
     246 -> 247        0.67971
     245 <- 248       -0.10967
 This state for optimization and/or second-order correction.
 Total Energy, E(TD-HF/TD-DFT) =  -3007.09315054
 Copying the excited state density for this state as the 1-particle RhoCI density.

 Excited State   2:      Singlet-A      2.1560 eV  575.07 nm  f=0.1676  <S**2>=0.000
     245 -> 247        0.65463
     246 -> 248        0.24420

 Excited State   3:      Singlet-A      3.2075 eV  386.54 nm  f=0.0102  <S**2>=0.000
     244 -> 247        0.68446
     246 -> 248       -0.10733

 Excited State   4:      Singlet-A      3.3927 eV  365.44 nm  f=0.0196  <S**2>=0.000
     239 -> 247        0.12560
     241 -> 247        0.10066
     242 -> 247        0.66530

 Excited State   5:      Singlet-A      3.4674 eV  357.57 nm  f=0.0001  <S**2>=0.000
     240 -> 247        0.11092
     241 -> 247        0.56839
     241 -> 248        0.10300
     241 -> 249        0.29954
     241 -> 251       -0.15963
     242 -> 247       -0.11649

 The electronic state is 1-A.
 Alpha  occ. eigenvalues --  -46.88564 -19.25310 -19.24833 -19.20200 -19.18987
 Alpha  occ. eigenvalues --  -19.18783 -19.18311 -14.42645 -14.41779 -14.39352
 Alpha  occ. eigenvalues --  -14.38912 -10.39268 -10.38697 -10.35650 -10.34022
 Alpha  occ. eigenvalues --  -10.31821 -10.31650 -10.31253 -10.31085 -10.30860
 Alpha  occ. eigenvalues --  -10.30617 -10.30307 -10.29945 -10.29159 -10.29055
 Alpha  occ. eigenvalues --  -10.28662 -10.28646 -10.28604 -10.28450 -10.28092
 Alpha  occ. eigenvalues --  -10.28065 -10.27947 -10.27546 -10.27535 -10.27412
 Alpha  occ. eigenvalues --  -10.27215 -10.26981 -10.26922 -10.26660 -10.26463
 Alpha  occ. eigenvalues --  -10.26191 -10.26141 -10.25928 -10.25864 -10.25743
 Alpha  occ. eigenvalues --  -10.25706 -10.25584 -10.25401 -10.25269 -10.25247
 Alpha  occ. eigenvalues --  -10.25221 -10.25204 -10.25195 -10.25083 -10.25075
 Alpha  occ. eigenvalues --  -10.24931 -10.24865 -10.24857 -10.24728 -10.24551
 Alpha  occ. eigenvalues --  -10.24497 -10.24479 -10.24425 -10.24417 -10.24226
 Alpha  occ. eigenvalues --  -10.24060  -3.17258  -1.92134  -1.91687  -1.91598
 Alpha  occ. eigenvalues --   -1.17501  -1.17387  -1.09683  -1.09331  -1.08851
 Alpha  occ. eigenvalues --   -1.06992  -1.05196  -1.04138  -1.03565  -1.02719
 Alpha  occ. eigenvalues --   -0.93630  -0.91195  -0.90207  -0.90016  -0.89274
 Alpha  occ. eigenvalues --   -0.88621  -0.88278  -0.87527  -0.87339  -0.86902
 Alpha  occ. eigenvalues --   -0.86330  -0.85662  -0.84709  -0.84228  -0.83356
 Alpha  occ. eigenvalues --   -0.82669  -0.82124  -0.81536  -0.81081  -0.80343
 Alpha  occ. eigenvalues --   -0.80070  -0.78690  -0.78025  -0.77481  -0.76555
 Alpha  occ. eigenvalues --   -0.76150  -0.75714  -0.75286  -0.74793  -0.74097
 Alpha  occ. eigenvalues --   -0.73380  -0.72740  -0.71840  -0.70814  -0.69052
 Alpha  occ. eigenvalues --   -0.68808  -0.68306  -0.66973  -0.66243  -0.66046
 Alpha  occ. eigenvalues --   -0.65474  -0.65381  -0.64650  -0.64313  -0.63980
 Alpha  occ. eigenvalues --   -0.63750  -0.63402  -0.62596  -0.62444  -0.60404
 Alpha  occ. eigenvalues --   -0.60109  -0.59650  -0.59445  -0.58802  -0.58771
 Alpha  occ. eigenvalues --   -0.57864  -0.57589  -0.56452  -0.56215  -0.55949
 Alpha  occ. eigenvalues --   -0.55377  -0.55222  -0.54843  -0.54630  -0.54008
 Alpha  occ. eigenvalues --   -0.53810  -0.53762  -0.52868  -0.52758  -0.52689
 Alpha  occ. eigenvalues --   -0.52566  -0.52396  -0.52281  -0.51726  -0.51536
 Alpha  occ. eigenvalues --   -0.51358  -0.51264  -0.51188  -0.50845  -0.50531
 Alpha  occ. eigenvalues --   -0.50478  -0.50380  -0.50271  -0.50214  -0.49926
 Alpha  occ. eigenvalues --   -0.49797  -0.49600  -0.49425  -0.49094  -0.49043
 Alpha  occ. eigenvalues --   -0.48963  -0.48681  -0.48377  -0.48105  -0.47874
 Alpha  occ. eigenvalues --   -0.47587  -0.47455  -0.47388  -0.47040  -0.46986
 Alpha  occ. eigenvalues --   -0.46806  -0.46689  -0.46407  -0.46391  -0.45853
 Alpha  occ. eigenvalues --   -0.45735  -0.45436  -0.45079  -0.44954  -0.44640
 Alpha  occ. eigenvalues --   -0.44498  -0.44372  -0.44242  -0.44163  -0.43949
 Alpha  occ. eigenvalues --   -0.43913  -0.43635  -0.43501  -0.43223  -0.43168
 Alpha  occ. eigenvalues --   -0.42731  -0.42726  -0.42379  -0.42129  -0.42055
 Alpha  occ. eigenvalues --   -0.41950  -0.41773  -0.41657  -0.41644  -0.41557
 Alpha  occ. eigenvalues --   -0.41349  -0.41177  -0.40777  -0.40373  -0.40000
 Alpha  occ. eigenvalues --   -0.39785  -0.39589  -0.39437  -0.38955  -0.38801
 Alpha  occ. eigenvalues --   -0.37986  -0.37808  -0.37744  -0.37703  -0.37480
 Alpha  occ. eigenvalues --   -0.37146  -0.36858  -0.36805  -0.36438  -0.36318
 Alpha  occ. eigenvalues --   -0.36188  -0.35899  -0.34841  -0.34713  -0.34394
 Alpha  occ. eigenvalues --   -0.33983  -0.33644  -0.33332  -0.31257  -0.30878
 Alpha  occ. eigenvalues --   -0.30859  -0.29747  -0.29739  -0.29564  -0.23831
 Alpha  occ. eigenvalues --   -0.21692
 Alpha virt. eigenvalues --   -0.09139  -0.01576   0.00385   0.02430   0.02751
 Alpha virt. eigenvalues --    0.04683   0.05578   0.05977   0.06165   0.06690
 Alpha virt. eigenvalues --    0.07449   0.08075   0.08345   0.08676   0.09192

 Mulliken charges:
               1
     1  Mg   0.860081
     2  C   -0.005266
     3  C   -0.057750
     4  C   -0.067736
     5  C   -0.099165
     6  N   -0.213997
     7  C   -0.100857
     8  C    0.020910
     9  C   -0.077812
    10  C    0.041352
    11  C    0.063699
    12  C    0.035387
    13  C    0.096220
    14  C    0.131713
    15  O   -0.201495
    16  O   -0.339451
    17  N   -0.317756
    18  C    0.096104
    19  C   -0.153337
    20  C   -0.082896
    21  C    0.133295
    22  C    0.109993
    23  C    0.021339
    24  O   -0.212105
    25  C    0.068915
    26  N   -0.301880
    27  C    0.011821
    28  C   -0.065990
    29  C   -0.021933
    30  C    0.062265
    31  C    0.065191
    32  C    0.040533
    33  C    0.007511
    34  N   -0.448264
    35  C    0.147979
    36  C   -0.151139
    37  C    0.004324
    38  C    0.160900
    39  C    0.104693
    40  C   -0.001289
    41  O   -0.185655
    42  C    0.035702
    43  C    0.165975
    44  O   -0.228738
    45  O   -0.316827
    46  C    0.164847
    47  C    0.292204
    48  C   -0.162089
    49  C   -0.193950
    50  C    0.116371
    51  C    0.088623
    52  C    0.036076
    53  C    0.054282
    54  C   -0.157553
    55  C    0.042200
    56  C    0.098783
    57  C   -0.024694
    58  C    0.070459
    59  C   -0.166122
    60  C    0.064240
    61  C    0.102604
    62  C   -0.003361
    63  C    0.029824
    64  C   -0.194908
    65  C    0.068206
    66  C    0.041533
    67  H   -0.029361
    68  H    0.004079
    69  H   -0.027097
    70  H    0.014890
    71  H    0.014549
    72  H    0.018275
    73  H    0.014079
    74  H    0.010937
    75  H    0.037706
    76  H    0.011350
    77  H    0.017300
    78  H    0.035192
    79  H    0.038127
    80  H    0.046686
    81  H    0.002039
    82  H    0.025155
    83  H    0.038430
    84  H    0.032278
    85  H    0.017881
    86  H    0.011572
    87  H    0.029374
    88  H    0.018742
    89  H    0.015338
    90  H    0.015120
    91  H    0.005586
    92  H    0.016324
    93  H    0.011414
    94  H    0.021493
    95  H    0.018804
    96  H    0.025387
    97  H    0.028377
    98  H    0.047738
    99  H    0.055497
   100  H    0.032847
   101  H    0.068177
   102  H    0.043486
   103  H    0.024803
   104  H   -0.003575
   105  H    0.039708
   106  H    0.000688
   107  H    0.011834
   108  H   -0.003040
   109  H   -0.018654
   110  H   -0.010987
   111  H    0.000742
   112  H   -0.009150
   113  H   -0.007933
   114  H   -0.004373
   115  H    0.009352
   116  H    0.000848
   117  H    0.011167
   118  H   -0.009804
   119  H   -0.012052
   120  H   -0.013490
   121  H    0.006142
   122  H   -0.010375
   123  H   -0.002063
   124  H   -0.001886
   125  H    0.004244
   126  H    0.008092
   127  H   -0.001403
   128  H   -0.016302
   129  H   -0.003737
   130  H   -0.006900
   131  H   -0.008506
   132  H   -0.018967
   133  H    0.008961
   134  H    0.006286
   135  H    0.020114
   136  H    0.003229
   137  H   -0.006054
   138  H    0.005747
   139  H   -0.000412
   140  H    0.017794
 Sum of Mulliken charges =  -0.00000

 Dipole moment (field-independent basis, Debye):
    X=             -2.3698    Y=              4.1545    Z=             -2.4721  Tot=              5.3840
 Quadrupole moment (field-independent basis, Debye-Ang):
   XX=           -379.2473   YY=           -422.8586   ZZ=           -409.8447
   XY=              2.4101   XZ=              4.8031   YZ=              4.6792

 Normal termination of Gaussian 16 at Wed May  4 11:40:11 2022.
