 Gaussian 16, Revision A.03,
 Gaussian 16:  ES64L-G16RevA.03 25-Dec-2016

 ---------------------------------
 #p PBE1PBE/Def2SVP td=(nstates=5)
 ---------------------------------

 ------------------------------------------------------
 step_1701_chromophore_22 TDDFT with PBE1PBE functional
 ------------------------------------------------------
 Symbolic Z-matrix:
 Charge =  0 Multiplicity = 1

                         Standard orientation:
 ---------------------------------------------------------------------
 Center     Atomic      Atomic             Coordinates (Angstroms)
 Number     Number       Type             X           Y           Z
 ---------------------------------------------------------------------
      1         12           0        6.041263    0.368834    0.154226
      2          6           0        3.801559   -2.236341   -0.230530
      3          6           0        3.370602    2.530828   -0.779659
      4          6           0        8.238613    3.016695   -0.181818
      5          6           0        8.623334   -1.831760    0.371775
      6          7           0        3.795670    0.113605   -0.415910
      7          6           0        3.118143   -1.023239   -0.522935
      8          6           0        1.664767   -0.834389   -0.997046
      9          6           0        1.670074    0.718791   -1.391798
     10          6           0        3.019567    1.161970   -0.779792
     11          6           0        1.579228    0.822596   -2.867333
     12          6           0        0.629110   -1.233810    0.098020
     13          6           0       -0.694625   -0.456157    0.120693
     14          6           0       -1.805907   -0.976341    0.954649
     15          8           0       -1.802384   -1.001407    2.155374
     16          8           0       -2.877077   -1.426919    0.181398
     17          7           0        5.876458    2.511836   -0.407670
     18          6           0        4.668410    3.204942   -0.575937
     19          6           0        4.894219    4.607641   -0.474597
     20          6           0        6.334844    4.731050   -0.362712
     21          6           0        6.881566    3.365179   -0.401555
     22          6           0        3.831779    5.764239   -0.614797
     23          6           0        7.251507    6.005516   -0.144126
     24          8           0        8.478234    5.904631   -0.142107
     25          6           0        6.640040    7.364996    0.116661
     26          7           0        8.125799    0.622520    0.191374
     27          6           0        8.795723    1.741627    0.007157
     28          6           0       10.283908    1.524475    0.226622
     29          6           0       10.430988   -0.029291    0.418037
     30          6           0        8.976567   -0.477496    0.377581
     31          6           0       11.229285    2.100338   -0.885465
     32          6           0       11.025088   -0.457813    1.776336
     33          6           0       11.778553   -1.787716    1.640629
     34          7           0        6.212728   -1.538263    0.223100
     35          6           0        7.318640   -2.347589    0.267681
     36          6           0        6.964896   -3.679008    0.388713
     37          6           0        5.539477   -3.702209    0.231704
     38          6           0        5.144767   -2.392648    0.080005
     39          6           0        7.938572   -4.781463    0.437291
     40          6           0        4.453135   -4.602203    0.034804
     41          8           0        4.498499   -5.836685   -0.029698
     42          6           0        3.298263   -3.735729   -0.246587
     43          6           0        2.117090   -4.105265    0.541923
     44          8           0        1.838567   -3.817075    1.697099
     45          8           0        1.287432   -4.778132   -0.239248
     46          6           0       -0.042454   -5.070687    0.394194
     47          6           0       -4.083647   -1.507011    0.910854
     48          6           0       -5.001165   -0.776489   -0.026437
     49          6           0       -6.317944   -0.746524   -0.019128
     50          6           0       -7.157034   -1.320482    1.028474
     51          6           0       -6.969228    0.151057   -1.059910
     52          6           0       -7.560496   -0.661496   -2.178229
     53          6           0       -8.808848   -0.131517   -2.898626
     54          6           0      -10.192011   -0.977990   -2.699163
     55          6           0      -10.222134   -2.158233   -3.757450
     56          6           0      -11.423131   -0.133661   -2.857264
     57          6           0      -11.950224    0.479771   -1.555254
     58          6           0      -13.395270    0.047113   -1.255263
     59          6           0      -13.992362    0.964161   -0.148068
     60          6           0      -14.990722    1.977615   -0.646980
     61          6           0      -14.449246    0.315615    1.207392
     62          6           0      -14.164821    1.170575    2.430298
     63          6           0      -12.758358    0.933020    3.204490
     64          6           0      -11.797775    2.096125    2.792567
     65          6           0      -10.324476    1.717973    2.831002
     66          6           0      -12.227561    3.271894    3.759283
     67          1           0        2.601546    3.218674   -1.135951
     68          1           0        9.034481    3.758667   -0.081477
     69          1           0        9.433403   -2.559399    0.285448
     70          1           0        1.543070   -1.434321   -1.899251
     71          1           0        0.919874    1.397922   -0.986317
     72          1           0        1.473860   -0.051254   -3.511903
     73          1           0        2.513838    1.242026   -3.239806
     74          1           0        0.767721    1.491798   -3.152021
     75          1           0        1.099249   -1.260799    1.081280
     76          1           0        0.361627   -2.288103    0.016299
     77          1           0       -1.097274   -0.201691   -0.859659
     78          1           0       -0.420173    0.467224    0.630625
     79          1           0        4.104460    6.240401   -1.556161
     80          1           0        3.751111    6.414673    0.256880
     81          1           0        2.866551    5.325331   -0.867585
     82          1           0        6.001922    7.574585   -0.741598
     83          1           0        7.404541    8.128091    0.259699
     84          1           0        5.953038    7.249778    0.955483
     85          1           0       10.531828    2.050965    1.148350
     86          1           0       10.987484   -0.342461   -0.465757
     87          1           0       10.576592    2.639218   -1.572246
     88          1           0       11.871747    1.358871   -1.359332
     89          1           0       11.872292    2.809969   -0.365756
     90          1           0       10.238618   -0.534310    2.526791
     91          1           0       11.751008    0.246146    2.181458
     92          1           0       12.832256   -1.637027    1.874774
     93          1           0       11.762570   -2.136422    0.607814
     94          1           0       11.308511   -2.568443    2.238058
     95          1           0        8.502273   -4.953697    1.354379
     96          1           0        8.673042   -4.704384   -0.364676
     97          1           0        7.353874   -5.696442    0.338007
     98          1           0        3.140774   -4.034934   -1.283203
     99          1           0        0.061669   -6.094597    0.753465
    100          1           0       -0.750368   -5.009432   -0.431701
    101          1           0       -0.406690   -4.368256    1.143726
    102          1           0       -4.133325   -0.995808    1.872422
    103          1           0       -4.385574   -2.548150    1.027038
    104          1           0       -4.500326   -0.388132   -0.913667
    105          1           0       -7.567968   -0.511661    1.632629
    106          1           0       -6.600998   -2.001968    1.672283
    107          1           0       -7.863953   -1.952528    0.490741
    108          1           0       -6.345091    0.953683   -1.453571
    109          1           0       -7.740644    0.678167   -0.497890
    110          1           0       -7.935627   -1.557401   -1.684722
    111          1           0       -6.791176   -0.874877   -2.920369
    112          1           0       -8.610347   -0.207062   -3.967556
    113          1           0       -8.949504    0.921808   -2.658617
    114          1           0      -10.219633   -1.497329   -1.741712
    115          1           0      -10.200544   -3.113332   -3.232362
    116          1           0       -9.326082   -2.191860   -4.377110
    117          1           0      -11.093188   -2.007337   -4.395287
    118          1           0      -12.169192   -0.690664   -3.425629
    119          1           0      -11.220012    0.714222   -3.510791
    120          1           0      -12.131855    1.547788   -1.673188
    121          1           0      -11.278996    0.404058   -0.699458
    122          1           0      -13.306197   -0.988629   -0.924125
    123          1           0      -13.968476    0.109431   -2.179973
    124          1           0      -13.195883    1.632943    0.177122
    125          1           0      -15.059343    1.976248   -1.734476
    126          1           0      -14.716768    2.963554   -0.271183
    127          1           0      -15.981462    1.765879   -0.243746
    128          1           0      -13.923017   -0.625760    1.364256
    129          1           0      -15.507223    0.072392    1.101747
    130          1           0      -14.843825    1.129443    3.282984
    131          1           0      -14.225377    2.213300    2.116655
    132          1           0      -12.312395    0.015228    2.822921
    133          1           0      -12.828201    0.746405    4.276280
    134          1           0      -11.937800    2.477667    1.781782
    135          1           0       -9.899686    1.562581    1.839167
    136          1           0      -10.184185    0.852849    3.478113
    137          1           0       -9.817797    2.537337    3.342090
    138          1           0      -12.354955    4.130968    3.100423
    139          1           0      -11.441702    3.533418    4.467839
    140          1           0      -13.105193    3.058110    4.369028
 ---------------------------------------------------------------------

 SCF Done:  E(RPBE1PBE) =  -3005.34630950     A.U. after   15 cycles

 Excitation energies and oscillator strengths:

 Excited State   1:      Singlet-A      1.8963 eV  653.81 nm  f=0.3828  <S**2>=0.000
     245 -> 248        0.18547
     246 -> 247        0.68574
     246 <- 247       -0.10410
 This state for optimization and/or second-order correction.
 Total Energy, E(TD-HF/TD-DFT) =  -3005.27662058
 Copying the excited state density for this state as the 1-particle RhoCI density.

 Excited State   2:      Singlet-A      2.1767 eV  569.59 nm  f=0.1522  <S**2>=0.000
     245 -> 247        0.66160
     246 -> 248       -0.22556

 Excited State   3:      Singlet-A      2.8763 eV  431.05 nm  f=0.0084  <S**2>=0.000
     241 -> 247       -0.18941
     243 -> 247        0.66142

 Excited State   4:      Singlet-A      2.9312 eV  422.98 nm  f=0.0015  <S**2>=0.000
     240 -> 247        0.59271
     240 -> 249       -0.15172
     242 -> 247        0.31686

 Excited State   5:      Singlet-A      2.9903 eV  414.62 nm  f=0.0009  <S**2>=0.000
     241 -> 247        0.62277
     242 -> 247       -0.24507
     243 -> 247        0.16810

 The electronic state is 1-A.
 Alpha  occ. eigenvalues --  -46.91983 -19.25965 -19.25557 -19.20437 -19.19145
 Alpha  occ. eigenvalues --  -19.19050 -19.18603 -14.42066 -14.41350 -14.38971
 Alpha  occ. eigenvalues --  -14.38638 -10.36273 -10.35692 -10.32743 -10.31169
 Alpha  occ. eigenvalues --  -10.29402 -10.29067 -10.28920 -10.28695 -10.28490
 Alpha  occ. eigenvalues --  -10.28250 -10.27945 -10.27511 -10.26968 -10.26648
 Alpha  occ. eigenvalues --  -10.26441 -10.26425 -10.26344 -10.26222 -10.25664
 Alpha  occ. eigenvalues --  -10.25579 -10.25443 -10.25208 -10.25102 -10.25032
 Alpha  occ. eigenvalues --  -10.25006 -10.24817 -10.24709 -10.24371 -10.23869
 Alpha  occ. eigenvalues --  -10.23868 -10.23672 -10.23436 -10.23429 -10.23358
 Alpha  occ. eigenvalues --  -10.23241 -10.23094 -10.23043 -10.22819 -10.22787
 Alpha  occ. eigenvalues --  -10.22785 -10.22775 -10.22736 -10.22734 -10.22640
 Alpha  occ. eigenvalues --  -10.22449 -10.22414 -10.22409 -10.22282 -10.22260
 Alpha  occ. eigenvalues --  -10.22036 -10.21975 -10.21835 -10.21803 -10.21613
 Alpha  occ. eigenvalues --  -10.21607  -3.14253  -1.87068  -1.86600  -1.86518
 Alpha  occ. eigenvalues --   -1.12301  -1.12206  -1.04347  -1.04201  -1.03616
 Alpha  occ. eigenvalues --   -1.01821  -0.99802  -0.98804  -0.98263  -0.97379
 Alpha  occ. eigenvalues --   -0.88045  -0.85355  -0.84397  -0.84111  -0.83600
 Alpha  occ. eigenvalues --   -0.82725  -0.82552  -0.81839  -0.81466  -0.81265
 Alpha  occ. eigenvalues --   -0.80604  -0.79882  -0.78888  -0.78547  -0.77618
 Alpha  occ. eigenvalues --   -0.76866  -0.76359  -0.75706  -0.75382  -0.74666
 Alpha  occ. eigenvalues --   -0.74231  -0.72977  -0.72307  -0.71769  -0.70907
 Alpha  occ. eigenvalues --   -0.70334  -0.69809  -0.69645  -0.68933  -0.68249
 Alpha  occ. eigenvalues --   -0.67784  -0.67126  -0.66258  -0.65144  -0.63535
 Alpha  occ. eigenvalues --   -0.63191  -0.62512  -0.61357  -0.60534  -0.60433
 Alpha  occ. eigenvalues --   -0.59918  -0.59600  -0.59146  -0.58877  -0.58467
 Alpha  occ. eigenvalues --   -0.57873  -0.57543  -0.57030  -0.56817  -0.54876
 Alpha  occ. eigenvalues --   -0.54610  -0.54186  -0.53910  -0.53380  -0.53260
 Alpha  occ. eigenvalues --   -0.52435  -0.52018  -0.50951  -0.50758  -0.50480
 Alpha  occ. eigenvalues --   -0.49874  -0.49778  -0.49402  -0.49190  -0.48641
 Alpha  occ. eigenvalues --   -0.48206  -0.48120  -0.47467  -0.47375  -0.47259
 Alpha  occ. eigenvalues --   -0.47052  -0.46803  -0.46655  -0.46274  -0.46020
 Alpha  occ. eigenvalues --   -0.45905  -0.45817  -0.45766  -0.45532  -0.45187
 Alpha  occ. eigenvalues --   -0.45129  -0.44883  -0.44836  -0.44716  -0.44510
 Alpha  occ. eigenvalues --   -0.44374  -0.44131  -0.44051  -0.43689  -0.43647
 Alpha  occ. eigenvalues --   -0.43588  -0.43273  -0.42975  -0.42731  -0.42499
 Alpha  occ. eigenvalues --   -0.42248  -0.42098  -0.42028  -0.41695  -0.41662
 Alpha  occ. eigenvalues --   -0.41439  -0.41390  -0.41162  -0.40918  -0.40643
 Alpha  occ. eigenvalues --   -0.40518  -0.40164  -0.39847  -0.39686  -0.39400
 Alpha  occ. eigenvalues --   -0.39304  -0.39085  -0.39066  -0.38924  -0.38721
 Alpha  occ. eigenvalues --   -0.38668  -0.38435  -0.38275  -0.38023  -0.37895
 Alpha  occ. eigenvalues --   -0.37600  -0.37422  -0.37240  -0.36886  -0.36848
 Alpha  occ. eigenvalues --   -0.36793  -0.36537  -0.36460  -0.36407  -0.36397
 Alpha  occ. eigenvalues --   -0.36124  -0.36024  -0.35515  -0.35224  -0.34820
 Alpha  occ. eigenvalues --   -0.34608  -0.34518  -0.34166  -0.33728  -0.33660
 Alpha  occ. eigenvalues --   -0.33026  -0.32772  -0.32650  -0.32554  -0.32293
 Alpha  occ. eigenvalues --   -0.32217  -0.31805  -0.31689  -0.31335  -0.31265
 Alpha  occ. eigenvalues --   -0.31085  -0.30839  -0.29774  -0.29755  -0.29364
 Alpha  occ. eigenvalues --   -0.29137  -0.28576  -0.28542  -0.26922  -0.25699
 Alpha  occ. eigenvalues --   -0.25679  -0.25433  -0.25071  -0.25020  -0.20847
 Alpha  occ. eigenvalues --   -0.19276
 Alpha virt. eigenvalues --   -0.11532  -0.05099  -0.03845  -0.01684  -0.00282
 Alpha virt. eigenvalues --    0.00115   0.01038   0.01569   0.02150   0.03256
 Alpha virt. eigenvalues --    0.03916   0.03947   0.04429   0.05322   0.05490

 Mulliken charges:
               1
     1  Mg   1.007427
     2  C   -0.014510
     3  C   -0.048573
     4  C   -0.060139
     5  C   -0.080346
     6  N   -0.318810
     7  C   -0.021805
     8  C   -0.047011
     9  C   -0.157183
    10  C    0.077074
    11  C    0.014592
    12  C   -0.018209
    13  C    0.011816
    14  C    0.205970
    15  O   -0.236081
    16  O   -0.371136
    17  N   -0.427672
    18  C    0.114088
    19  C   -0.175990
    20  C   -0.128314
    21  C    0.169581
    22  C    0.048403
    23  C    0.068677
    24  O   -0.249047
    25  C   -0.004585
    26  N   -0.410394
    27  C    0.053826
    28  C   -0.135010
    29  C   -0.110508
    30  C    0.094121
    31  C    0.005952
    32  C   -0.014970
    33  C   -0.064186
    34  N   -0.581480
    35  C    0.164794
    36  C   -0.159261
    37  C   -0.048266
    38  C    0.199629
    39  C    0.048085
    40  C    0.093213
    41  O   -0.234323
    42  C   -0.059172
    43  C    0.252608
    44  O   -0.265688
    45  O   -0.349085
    46  C    0.105831
    47  C    0.249827
    48  C   -0.159926
    49  C   -0.250085
    50  C    0.051768
    51  C    0.023209
    52  C   -0.029806
    53  C    0.002569
    54  C   -0.245671
    55  C   -0.014675
    56  C    0.047639
    57  C   -0.096142
    58  C    0.018748
    59  C   -0.262397
    60  C    0.009658
    61  C    0.048719
    62  C   -0.067594
    63  C   -0.028691
    64  C   -0.285917
    65  C    0.004383
    66  C   -0.016579
    67  H    0.002204
    68  H    0.036330
    69  H    0.006145
    70  H    0.051007
    71  H    0.048498
    72  H    0.044213
    73  H    0.042245
    74  H    0.037837
    75  H    0.068306
    76  H    0.056698
    77  H    0.049025
    78  H    0.069446
    79  H    0.065403
    80  H    0.072080
    81  H    0.030453
    82  H    0.052555
    83  H    0.064683
    84  H    0.059475
    85  H    0.054769
    86  H    0.048253
    87  H    0.057563
    88  H    0.045123
    89  H    0.042816
    90  H    0.047828
    91  H    0.038820
    92  H    0.044816
    93  H    0.037582
    94  H    0.048927
    95  H    0.047285
    96  H    0.052805
    97  H    0.057822
    98  H    0.085806
    99  H    0.078277
   100  H    0.055027
   101  H    0.088297
   102  H    0.070914
   103  H    0.051524
   104  H    0.026257
   105  H    0.067166
   106  H    0.028848
   107  H    0.039473
   108  H    0.028333
   109  H    0.016854
   110  H    0.026559
   111  H    0.033104
   112  H    0.023873
   113  H    0.024238
   114  H    0.033182
   115  H    0.036475
   116  H    0.027888
   117  H    0.037806
   118  H    0.020819
   119  H    0.021133
   120  H    0.022069
   121  H    0.039677
   122  H    0.023657
   123  H    0.029757
   124  H    0.045187
   125  H    0.031376
   126  H    0.034031
   127  H    0.025869
   128  H    0.016617
   129  H    0.028758
   130  H    0.025880
   131  H    0.026260
   132  H    0.014929
   133  H    0.039889
   134  H    0.044167
   135  H    0.048228
   136  H    0.030671
   137  H    0.022201
   138  H    0.033088
   139  H    0.027178
   140  H    0.044671
 Sum of Mulliken charges =  -0.00000

 Dipole moment (field-independent basis, Debye):
    X=             -2.2231    Y=              3.9276    Z=             -2.4567  Tot=              5.1385
 Quadrupole moment (field-independent basis, Debye-Ang):
   XX=           -372.3297   YY=           -420.5364   ZZ=           -407.1713
   XY=              0.3429   XZ=              5.4136   YZ=              4.6371

 Normal termination of Gaussian 16 at Wed May  4 11:57:58 2022.
