 Gaussian 16, Revision A.03,
 Gaussian 16:  ES64L-G16RevA.03 25-Dec-2016

 --------------------------------
 #p wB97XD/Def2SVP td=(nstates=5)
 --------------------------------

 -----------------------------------------------------
 step_1701_chromophore_22 TDDFT with wB97XD functional
 -----------------------------------------------------
 Symbolic Z-matrix:
 Charge =  0 Multiplicity = 1

                         Standard orientation:
 ---------------------------------------------------------------------
 Center     Atomic      Atomic             Coordinates (Angstroms)
 Number     Number       Type             X           Y           Z
 ---------------------------------------------------------------------
      1         12           0        6.041263    0.368834    0.154226
      2          6           0        3.801559   -2.236341   -0.230530
      3          6           0        3.370602    2.530828   -0.779659
      4          6           0        8.238613    3.016695   -0.181818
      5          6           0        8.623334   -1.831760    0.371775
      6          7           0        3.795670    0.113605   -0.415910
      7          6           0        3.118143   -1.023239   -0.522935
      8          6           0        1.664767   -0.834389   -0.997046
      9          6           0        1.670074    0.718791   -1.391798
     10          6           0        3.019567    1.161970   -0.779792
     11          6           0        1.579228    0.822596   -2.867333
     12          6           0        0.629110   -1.233810    0.098020
     13          6           0       -0.694625   -0.456157    0.120693
     14          6           0       -1.805907   -0.976341    0.954649
     15          8           0       -1.802384   -1.001407    2.155374
     16          8           0       -2.877077   -1.426919    0.181398
     17          7           0        5.876458    2.511836   -0.407670
     18          6           0        4.668410    3.204942   -0.575937
     19          6           0        4.894219    4.607641   -0.474597
     20          6           0        6.334844    4.731050   -0.362712
     21          6           0        6.881566    3.365179   -0.401555
     22          6           0        3.831779    5.764239   -0.614797
     23          6           0        7.251507    6.005516   -0.144126
     24          8           0        8.478234    5.904631   -0.142107
     25          6           0        6.640040    7.364996    0.116661
     26          7           0        8.125799    0.622520    0.191374
     27          6           0        8.795723    1.741627    0.007157
     28          6           0       10.283908    1.524475    0.226622
     29          6           0       10.430988   -0.029291    0.418037
     30          6           0        8.976567   -0.477496    0.377581
     31          6           0       11.229285    2.100338   -0.885465
     32          6           0       11.025088   -0.457813    1.776336
     33          6           0       11.778553   -1.787716    1.640629
     34          7           0        6.212728   -1.538263    0.223100
     35          6           0        7.318640   -2.347589    0.267681
     36          6           0        6.964896   -3.679008    0.388713
     37          6           0        5.539477   -3.702209    0.231704
     38          6           0        5.144767   -2.392648    0.080005
     39          6           0        7.938572   -4.781463    0.437291
     40          6           0        4.453135   -4.602203    0.034804
     41          8           0        4.498499   -5.836685   -0.029698
     42          6           0        3.298263   -3.735729   -0.246587
     43          6           0        2.117090   -4.105265    0.541923
     44          8           0        1.838567   -3.817075    1.697099
     45          8           0        1.287432   -4.778132   -0.239248
     46          6           0       -0.042454   -5.070687    0.394194
     47          6           0       -4.083647   -1.507011    0.910854
     48          6           0       -5.001165   -0.776489   -0.026437
     49          6           0       -6.317944   -0.746524   -0.019128
     50          6           0       -7.157034   -1.320482    1.028474
     51          6           0       -6.969228    0.151057   -1.059910
     52          6           0       -7.560496   -0.661496   -2.178229
     53          6           0       -8.808848   -0.131517   -2.898626
     54          6           0      -10.192011   -0.977990   -2.699163
     55          6           0      -10.222134   -2.158233   -3.757450
     56          6           0      -11.423131   -0.133661   -2.857264
     57          6           0      -11.950224    0.479771   -1.555254
     58          6           0      -13.395270    0.047113   -1.255263
     59          6           0      -13.992362    0.964161   -0.148068
     60          6           0      -14.990722    1.977615   -0.646980
     61          6           0      -14.449246    0.315615    1.207392
     62          6           0      -14.164821    1.170575    2.430298
     63          6           0      -12.758358    0.933020    3.204490
     64          6           0      -11.797775    2.096125    2.792567
     65          6           0      -10.324476    1.717973    2.831002
     66          6           0      -12.227561    3.271894    3.759283
     67          1           0        2.601546    3.218674   -1.135951
     68          1           0        9.034481    3.758667   -0.081477
     69          1           0        9.433403   -2.559399    0.285448
     70          1           0        1.543070   -1.434321   -1.899251
     71          1           0        0.919874    1.397922   -0.986317
     72          1           0        1.473860   -0.051254   -3.511903
     73          1           0        2.513838    1.242026   -3.239806
     74          1           0        0.767721    1.491798   -3.152021
     75          1           0        1.099249   -1.260799    1.081280
     76          1           0        0.361627   -2.288103    0.016299
     77          1           0       -1.097274   -0.201691   -0.859659
     78          1           0       -0.420173    0.467224    0.630625
     79          1           0        4.104460    6.240401   -1.556161
     80          1           0        3.751111    6.414673    0.256880
     81          1           0        2.866551    5.325331   -0.867585
     82          1           0        6.001922    7.574585   -0.741598
     83          1           0        7.404541    8.128091    0.259699
     84          1           0        5.953038    7.249778    0.955483
     85          1           0       10.531828    2.050965    1.148350
     86          1           0       10.987484   -0.342461   -0.465757
     87          1           0       10.576592    2.639218   -1.572246
     88          1           0       11.871747    1.358871   -1.359332
     89          1           0       11.872292    2.809969   -0.365756
     90          1           0       10.238618   -0.534310    2.526791
     91          1           0       11.751008    0.246146    2.181458
     92          1           0       12.832256   -1.637027    1.874774
     93          1           0       11.762570   -2.136422    0.607814
     94          1           0       11.308511   -2.568443    2.238058
     95          1           0        8.502273   -4.953697    1.354379
     96          1           0        8.673042   -4.704384   -0.364676
     97          1           0        7.353874   -5.696442    0.338007
     98          1           0        3.140774   -4.034934   -1.283203
     99          1           0        0.061669   -6.094597    0.753465
    100          1           0       -0.750368   -5.009432   -0.431701
    101          1           0       -0.406690   -4.368256    1.143726
    102          1           0       -4.133325   -0.995808    1.872422
    103          1           0       -4.385574   -2.548150    1.027038
    104          1           0       -4.500326   -0.388132   -0.913667
    105          1           0       -7.567968   -0.511661    1.632629
    106          1           0       -6.600998   -2.001968    1.672283
    107          1           0       -7.863953   -1.952528    0.490741
    108          1           0       -6.345091    0.953683   -1.453571
    109          1           0       -7.740644    0.678167   -0.497890
    110          1           0       -7.935627   -1.557401   -1.684722
    111          1           0       -6.791176   -0.874877   -2.920369
    112          1           0       -8.610347   -0.207062   -3.967556
    113          1           0       -8.949504    0.921808   -2.658617
    114          1           0      -10.219633   -1.497329   -1.741712
    115          1           0      -10.200544   -3.113332   -3.232362
    116          1           0       -9.326082   -2.191860   -4.377110
    117          1           0      -11.093188   -2.007337   -4.395287
    118          1           0      -12.169192   -0.690664   -3.425629
    119          1           0      -11.220012    0.714222   -3.510791
    120          1           0      -12.131855    1.547788   -1.673188
    121          1           0      -11.278996    0.404058   -0.699458
    122          1           0      -13.306197   -0.988629   -0.924125
    123          1           0      -13.968476    0.109431   -2.179973
    124          1           0      -13.195883    1.632943    0.177122
    125          1           0      -15.059343    1.976248   -1.734476
    126          1           0      -14.716768    2.963554   -0.271183
    127          1           0      -15.981462    1.765879   -0.243746
    128          1           0      -13.923017   -0.625760    1.364256
    129          1           0      -15.507223    0.072392    1.101747
    130          1           0      -14.843825    1.129443    3.282984
    131          1           0      -14.225377    2.213300    2.116655
    132          1           0      -12.312395    0.015228    2.822921
    133          1           0      -12.828201    0.746405    4.276280
    134          1           0      -11.937800    2.477667    1.781782
    135          1           0       -9.899686    1.562581    1.839167
    136          1           0      -10.184185    0.852849    3.478113
    137          1           0       -9.817797    2.537337    3.342090
    138          1           0      -12.354955    4.130968    3.100423
    139          1           0      -11.441702    3.533418    4.467839
    140          1           0      -13.105193    3.058110    4.369028
 ---------------------------------------------------------------------

 SCF Done:  E(RwB97XD) =  -3007.85506904     A.U. after   17 cycles

 Excitation energies and oscillator strengths:

 Excited State   1:      Singlet-A      1.6791 eV  738.41 nm  f=0.3961  <S**2>=0.000
     245 -> 248        0.19465
     246 -> 247        0.67809
     245 <- 248        0.11905
 This state for optimization and/or second-order correction.
 Total Energy, E(TD-HF/TD-DFT) =  -3007.79336465
 Copying the excited state density for this state as the 1-particle RhoCI density.

 Excited State   2:      Singlet-A      2.1008 eV  590.18 nm  f=0.1621  <S**2>=0.000
     245 -> 247        0.65228
     246 -> 248       -0.24814
     246 <- 248       -0.10061

 Excited State   3:      Singlet-A      3.2200 eV  385.04 nm  f=0.0098  <S**2>=0.000
     243 -> 247        0.15495
     244 -> 247        0.66045
     246 -> 248        0.11237

 Excited State   4:      Singlet-A      3.4161 eV  362.94 nm  f=0.0170  <S**2>=0.000
     239 -> 247        0.13292
     242 -> 247        0.65713

 Excited State   5:      Singlet-A      3.5052 eV  353.72 nm  f=0.0004  <S**2>=0.000
     241 -> 247        0.56225
     241 -> 248       -0.11183
     241 -> 249       -0.32558
     241 -> 250        0.17988
     242 -> 247       -0.10650

 The electronic state is 1-A.
 Alpha  occ. eigenvalues --  -46.94910 -19.30525 -19.30099 -19.25134 -19.24035
 Alpha  occ. eigenvalues --  -19.23742 -19.23355 -14.47229 -14.46364 -14.43959
 Alpha  occ. eigenvalues --  -14.43527 -10.43079 -10.42528 -10.39654 -10.38001
 Alpha  occ. eigenvalues --  -10.35655 -10.35582 -10.35311 -10.34965 -10.34878
 Alpha  occ. eigenvalues --  -10.34725 -10.34316 -10.34000 -10.33253 -10.33238
 Alpha  occ. eigenvalues --  -10.32801 -10.32623 -10.32599 -10.32516 -10.32169
 Alpha  occ. eigenvalues --  -10.32060 -10.31978 -10.31688 -10.31479 -10.31404
 Alpha  occ. eigenvalues --  -10.31261 -10.31013 -10.30998 -10.30676 -10.30337
 Alpha  occ. eigenvalues --  -10.30140 -10.30116 -10.29784 -10.29771 -10.29696
 Alpha  occ. eigenvalues --  -10.29691 -10.29453 -10.29371 -10.29158 -10.29145
 Alpha  occ. eigenvalues --  -10.29144 -10.29132 -10.29079 -10.29061 -10.29004
 Alpha  occ. eigenvalues --  -10.28846 -10.28792 -10.28781 -10.28634 -10.28506
 Alpha  occ. eigenvalues --  -10.28407 -10.28388 -10.28242 -10.28216 -10.28045
 Alpha  occ. eigenvalues --  -10.27980  -3.21045  -1.94609  -1.94143  -1.94053
 Alpha  occ. eigenvalues --   -1.19679  -1.19576  -1.11916  -1.11543  -1.11057
 Alpha  occ. eigenvalues --   -1.09181  -1.07200  -1.06145  -1.05609  -1.04781
 Alpha  occ. eigenvalues --   -0.95628  -0.93015  -0.92048  -0.91778  -0.91150
 Alpha  occ. eigenvalues --   -0.90391  -0.90187  -0.89425  -0.89121  -0.88850
 Alpha  occ. eigenvalues --   -0.88249  -0.87595  -0.86556  -0.86152  -0.85259
 Alpha  occ. eigenvalues --   -0.84508  -0.84028  -0.83461  -0.83002  -0.82299
 Alpha  occ. eigenvalues --   -0.81895  -0.80600  -0.79996  -0.79430  -0.78492
 Alpha  occ. eigenvalues --   -0.78002  -0.77500  -0.77221  -0.76615  -0.75922
 Alpha  occ. eigenvalues --   -0.75331  -0.74696  -0.73806  -0.72748  -0.71026
 Alpha  occ. eigenvalues --   -0.70744  -0.70163  -0.68926  -0.68133  -0.67990
 Alpha  occ. eigenvalues --   -0.67409  -0.67252  -0.66649  -0.66320  -0.65949
 Alpha  occ. eigenvalues --   -0.65558  -0.65209  -0.64435  -0.64433  -0.62366
 Alpha  occ. eigenvalues --   -0.62075  -0.61646  -0.61376  -0.60762  -0.60734
 Alpha  occ. eigenvalues --   -0.59835  -0.59496  -0.58366  -0.58182  -0.57887
 Alpha  occ. eigenvalues --   -0.57342  -0.57171  -0.56796  -0.56587  -0.55978
 Alpha  occ. eigenvalues --   -0.55665  -0.55602  -0.54777  -0.54688  -0.54634
 Alpha  occ. eigenvalues --   -0.54478  -0.54323  -0.54168  -0.53665  -0.53400
 Alpha  occ. eigenvalues --   -0.53256  -0.53170  -0.53098  -0.52784  -0.52464
 Alpha  occ. eigenvalues --   -0.52407  -0.52298  -0.52158  -0.52111  -0.51842
 Alpha  occ. eigenvalues --   -0.51705  -0.51569  -0.51355  -0.50970  -0.50952
 Alpha  occ. eigenvalues --   -0.50901  -0.50593  -0.50334  -0.50022  -0.49766
 Alpha  occ. eigenvalues --   -0.49519  -0.49339  -0.49295  -0.48965  -0.48890
 Alpha  occ. eigenvalues --   -0.48679  -0.48619  -0.48329  -0.48210  -0.47799
 Alpha  occ. eigenvalues --   -0.47674  -0.47355  -0.46988  -0.46856  -0.46564
 Alpha  occ. eigenvalues --   -0.46438  -0.46226  -0.46185  -0.46100  -0.45865
 Alpha  occ. eigenvalues --   -0.45855  -0.45546  -0.45430  -0.45113  -0.45047
 Alpha  occ. eigenvalues --   -0.44670  -0.44577  -0.44320  -0.44056  -0.43974
 Alpha  occ. eigenvalues --   -0.43879  -0.43697  -0.43626  -0.43512  -0.43496
 Alpha  occ. eigenvalues --   -0.43196  -0.43106  -0.42631  -0.42268  -0.41882
 Alpha  occ. eigenvalues --   -0.41652  -0.41485  -0.41275  -0.40809  -0.40695
 Alpha  occ. eigenvalues --   -0.39895  -0.39715  -0.39665  -0.39578  -0.39329
 Alpha  occ. eigenvalues --   -0.39233  -0.38803  -0.38692  -0.38324  -0.38274
 Alpha  occ. eigenvalues --   -0.38080  -0.37788  -0.36696  -0.36662  -0.36371
 Alpha  occ. eigenvalues --   -0.36004  -0.35516  -0.35479  -0.33490  -0.32844
 Alpha  occ. eigenvalues --   -0.32800  -0.31907  -0.31773  -0.31760  -0.25746
 Alpha  occ. eigenvalues --   -0.23501
 Alpha virt. eigenvalues --   -0.07507   0.00331   0.02461   0.04837   0.05639
 Alpha virt. eigenvalues --    0.06928   0.07838   0.08338   0.08867   0.09539
 Alpha virt. eigenvalues --    0.10523   0.10630   0.11246   0.11990   0.12248

 Mulliken charges:
               1
     1  Mg   0.996702
     2  C   -0.018383
     3  C   -0.064638
     4  C   -0.079866
     5  C   -0.100065
     6  N   -0.281347
     7  C   -0.057946
     8  C   -0.022145
     9  C   -0.129485
    10  C    0.063123
    11  C    0.019001
    12  C   -0.001122
    13  C    0.032383
    14  C    0.194527
    15  O   -0.233428
    16  O   -0.369810
    17  N   -0.395470
    18  C    0.109469
    19  C   -0.169239
    20  C   -0.123493
    21  C    0.159184
    22  C    0.062951
    23  C    0.065880
    24  O   -0.243186
    25  C    0.008223
    26  N   -0.377092
    27  C    0.043139
    28  C   -0.116303
    29  C   -0.076357
    30  C    0.085682
    31  C    0.018392
    32  C   -0.004478
    33  C   -0.049068
    34  N   -0.543964
    35  C    0.159573
    36  C   -0.159171
    37  C   -0.043082
    38  C    0.188501
    39  C    0.057070
    40  C    0.074458
    41  O   -0.222739
    42  C   -0.025216
    43  C    0.228535
    44  O   -0.258973
    45  O   -0.347228
    46  C    0.120609
    47  C    0.259842
    48  C   -0.170816
    49  C   -0.228366
    50  C    0.064718
    51  C    0.039502
    52  C   -0.006838
    53  C    0.015321
    54  C   -0.215675
    55  C   -0.002395
    56  C    0.061730
    57  C   -0.070487
    58  C    0.029394
    59  C   -0.214239
    60  C    0.016896
    61  C    0.060470
    62  C   -0.045123
    63  C   -0.013648
    64  C   -0.254637
    65  C    0.017795
    66  C   -0.006896
    67  H   -0.005189
    68  H    0.031279
    69  H   -0.004267
    70  H    0.040974
    71  H    0.038280
    72  H    0.039698
    73  H    0.035623
    74  H    0.033339
    75  H    0.062499
    76  H    0.035612
    77  H    0.043145
    78  H    0.061417
    79  H    0.060008
    80  H    0.068685
    81  H    0.026041
    82  H    0.045901
    83  H    0.064642
    84  H    0.053430
    85  H    0.044737
    86  H    0.035446
    87  H    0.050353
    88  H    0.040205
    89  H    0.037492
    90  H    0.039760
    91  H    0.030928
    92  H    0.040210
    93  H    0.029900
    94  H    0.043537
    95  H    0.042430
    96  H    0.047267
    97  H    0.053292
    98  H    0.078700
    99  H    0.075712
   100  H    0.051983
   101  H    0.084391
   102  H    0.066271
   103  H    0.046691
   104  H    0.021168
   105  H    0.062341
   106  H    0.023432
   107  H    0.033071
   108  H    0.023028
   109  H    0.005804
   110  H    0.008219
   111  H    0.026779
   112  H    0.014496
   113  H    0.015295
   114  H    0.019199
   115  H    0.031546
   116  H    0.021105
   117  H    0.031543
   118  H    0.010832
   119  H    0.012931
   120  H    0.010153
   121  H    0.028215
   122  H    0.014435
   123  H    0.020842
   124  H    0.013726
   125  H    0.025944
   126  H    0.029522
   127  H    0.019443
   128  H    0.006953
   129  H    0.020936
   130  H    0.019327
   131  H    0.010816
   132  H    0.003533
   133  H    0.033252
   134  H    0.031912
   135  H    0.042888
   136  H    0.023980
   137  H    0.015299
   138  H    0.027826
   139  H    0.021156
   140  H    0.037979
 Sum of Mulliken charges =  -0.00000

 Dipole moment (field-independent basis, Debye):
    X=             -2.3826    Y=              4.2810    Z=             -2.4890  Tot=              5.4954
 Quadrupole moment (field-independent basis, Debye-Ang):
   XX=           -374.1229   YY=           -418.4648   ZZ=           -406.9695
   XY=              2.7511   XZ=              5.2888   YZ=              4.6639

 Normal termination of Gaussian 16 at Wed May  4 12:27:56 2022.
