 Gaussian 16, Revision A.03,
 Gaussian 16:  ES64L-G16RevA.03 25-Dec-2016

 --------------------
 #p ZINDO=(nstates=5)
 --------------------

 ------------------------------
 step_1701_chromophore_22 ZINDO
 ------------------------------
 Symbolic Z-matrix:
 Charge =  0 Multiplicity = 1

                         Standard orientation:
 ---------------------------------------------------------------------
 Center     Atomic      Atomic             Coordinates (Angstroms)
 Number     Number       Type             X           Y           Z
 ---------------------------------------------------------------------
      1         12           0        6.041263    0.368834    0.154226
      2          6           0        3.801559   -2.236341   -0.230530
      3          6           0        3.370602    2.530828   -0.779659
      4          6           0        8.238613    3.016695   -0.181818
      5          6           0        8.623334   -1.831760    0.371775
      6          7           0        3.795670    0.113605   -0.415910
      7          6           0        3.118143   -1.023239   -0.522935
      8          6           0        1.664767   -0.834389   -0.997046
      9          6           0        1.670074    0.718791   -1.391798
     10          6           0        3.019567    1.161970   -0.779792
     11          6           0        1.579228    0.822596   -2.867333
     12          6           0        0.629110   -1.233810    0.098020
     13          6           0       -0.694625   -0.456157    0.120693
     14          6           0       -1.805907   -0.976341    0.954649
     15          8           0       -1.802384   -1.001407    2.155374
     16          8           0       -2.877077   -1.426919    0.181398
     17          7           0        5.876458    2.511836   -0.407670
     18          6           0        4.668410    3.204942   -0.575937
     19          6           0        4.894219    4.607641   -0.474597
     20          6           0        6.334844    4.731050   -0.362712
     21          6           0        6.881566    3.365179   -0.401555
     22          6           0        3.831779    5.764239   -0.614797
     23          6           0        7.251507    6.005516   -0.144126
     24          8           0        8.478234    5.904631   -0.142107
     25          6           0        6.640040    7.364996    0.116661
     26          7           0        8.125799    0.622520    0.191374
     27          6           0        8.795723    1.741627    0.007157
     28          6           0       10.283908    1.524475    0.226622
     29          6           0       10.430988   -0.029291    0.418037
     30          6           0        8.976567   -0.477496    0.377581
     31          6           0       11.229285    2.100338   -0.885465
     32          6           0       11.025088   -0.457813    1.776336
     33          6           0       11.778553   -1.787716    1.640629
     34          7           0        6.212728   -1.538263    0.223100
     35          6           0        7.318640   -2.347589    0.267681
     36          6           0        6.964896   -3.679008    0.388713
     37          6           0        5.539477   -3.702209    0.231704
     38          6           0        5.144767   -2.392648    0.080005
     39          6           0        7.938572   -4.781463    0.437291
     40          6           0        4.453135   -4.602203    0.034804
     41          8           0        4.498499   -5.836685   -0.029698
     42          6           0        3.298263   -3.735729   -0.246587
     43          6           0        2.117090   -4.105265    0.541923
     44          8           0        1.838567   -3.817075    1.697099
     45          8           0        1.287432   -4.778132   -0.239248
     46          6           0       -0.042454   -5.070687    0.394194
     47          6           0       -4.083647   -1.507011    0.910854
     48          6           0       -5.001165   -0.776489   -0.026437
     49          6           0       -6.317944   -0.746524   -0.019128
     50          6           0       -7.157034   -1.320482    1.028474
     51          6           0       -6.969228    0.151057   -1.059910
     52          6           0       -7.560496   -0.661496   -2.178229
     53          6           0       -8.808848   -0.131517   -2.898626
     54          6           0      -10.192011   -0.977990   -2.699163
     55          6           0      -10.222134   -2.158233   -3.757450
     56          6           0      -11.423131   -0.133661   -2.857264
     57          6           0      -11.950224    0.479771   -1.555254
     58          6           0      -13.395270    0.047113   -1.255263
     59          6           0      -13.992362    0.964161   -0.148068
     60          6           0      -14.990722    1.977615   -0.646980
     61          6           0      -14.449246    0.315615    1.207392
     62          6           0      -14.164821    1.170575    2.430298
     63          6           0      -12.758358    0.933020    3.204490
     64          6           0      -11.797775    2.096125    2.792567
     65          6           0      -10.324476    1.717973    2.831002
     66          6           0      -12.227561    3.271894    3.759283
     67          1           0        2.601546    3.218674   -1.135951
     68          1           0        9.034481    3.758667   -0.081477
     69          1           0        9.433403   -2.559399    0.285448
     70          1           0        1.543070   -1.434321   -1.899251
     71          1           0        0.919874    1.397922   -0.986317
     72          1           0        1.473860   -0.051254   -3.511903
     73          1           0        2.513838    1.242026   -3.239806
     74          1           0        0.767721    1.491798   -3.152021
     75          1           0        1.099249   -1.260799    1.081280
     76          1           0        0.361627   -2.288103    0.016299
     77          1           0       -1.097274   -0.201691   -0.859659
     78          1           0       -0.420173    0.467224    0.630625
     79          1           0        4.104460    6.240401   -1.556161
     80          1           0        3.751111    6.414673    0.256880
     81          1           0        2.866551    5.325331   -0.867585
     82          1           0        6.001922    7.574585   -0.741598
     83          1           0        7.404541    8.128091    0.259699
     84          1           0        5.953038    7.249778    0.955483
     85          1           0       10.531828    2.050965    1.148350
     86          1           0       10.987484   -0.342461   -0.465757
     87          1           0       10.576592    2.639218   -1.572246
     88          1           0       11.871747    1.358871   -1.359332
     89          1           0       11.872292    2.809969   -0.365756
     90          1           0       10.238618   -0.534310    2.526791
     91          1           0       11.751008    0.246146    2.181458
     92          1           0       12.832256   -1.637027    1.874774
     93          1           0       11.762570   -2.136422    0.607814
     94          1           0       11.308511   -2.568443    2.238058
     95          1           0        8.502273   -4.953697    1.354379
     96          1           0        8.673042   -4.704384   -0.364676
     97          1           0        7.353874   -5.696442    0.338007
     98          1           0        3.140774   -4.034934   -1.283203
     99          1           0        0.061669   -6.094597    0.753465
    100          1           0       -0.750368   -5.009432   -0.431701
    101          1           0       -0.406690   -4.368256    1.143726
    102          1           0       -4.133325   -0.995808    1.872422
    103          1           0       -4.385574   -2.548150    1.027038
    104          1           0       -4.500326   -0.388132   -0.913667
    105          1           0       -7.567968   -0.511661    1.632629
    106          1           0       -6.600998   -2.001968    1.672283
    107          1           0       -7.863953   -1.952528    0.490741
    108          1           0       -6.345091    0.953683   -1.453571
    109          1           0       -7.740644    0.678167   -0.497890
    110          1           0       -7.935627   -1.557401   -1.684722
    111          1           0       -6.791176   -0.874877   -2.920369
    112          1           0       -8.610347   -0.207062   -3.967556
    113          1           0       -8.949504    0.921808   -2.658617
    114          1           0      -10.219633   -1.497329   -1.741712
    115          1           0      -10.200544   -3.113332   -3.232362
    116          1           0       -9.326082   -2.191860   -4.377110
    117          1           0      -11.093188   -2.007337   -4.395287
    118          1           0      -12.169192   -0.690664   -3.425629
    119          1           0      -11.220012    0.714222   -3.510791
    120          1           0      -12.131855    1.547788   -1.673188
    121          1           0      -11.278996    0.404058   -0.699458
    122          1           0      -13.306197   -0.988629   -0.924125
    123          1           0      -13.968476    0.109431   -2.179973
    124          1           0      -13.195883    1.632943    0.177122
    125          1           0      -15.059343    1.976248   -1.734476
    126          1           0      -14.716768    2.963554   -0.271183
    127          1           0      -15.981462    1.765879   -0.243746
    128          1           0      -13.923017   -0.625760    1.364256
    129          1           0      -15.507223    0.072392    1.101747
    130          1           0      -14.843825    1.129443    3.282984
    131          1           0      -14.225377    2.213300    2.116655
    132          1           0      -12.312395    0.015228    2.822921
    133          1           0      -12.828201    0.746405    4.276280
    134          1           0      -11.937800    2.477667    1.781782
    135          1           0       -9.899686    1.562581    1.839167
    136          1           0      -10.184185    0.852849    3.478113
    137          1           0       -9.817797    2.537337    3.342090
    138          1           0      -12.354955    4.130968    3.100423
    139          1           0      -11.441702    3.533418    4.467839
    140          1           0      -13.105193    3.058110    4.369028
 ---------------------------------------------------------------------

 SCF Done:  E(RZINDO/S) =  -474.625733740     A.U. after   20 cycles

 Excitation energies and oscillator strengths:

 Excited State   1:      Singlet-A      1.2663 eV  979.13 nm  f=0.6079  <S**2>=0.000
     175 ->178        -0.19858
     176 ->177         0.66001
 This state for optimization and/or second-order correction.
 Total Energy, E(CIS/TDA) =  -474.579198986
 Copying the excited state density for this state as the 1-particle RhoCI density.

 Excited State   2:      Singlet-A      1.8708 eV  662.75 nm  f=0.1294  <S**2>=0.000
     175 ->177         0.58794
     176 ->178         0.35919

 Excited State   3:      Singlet-A      2.9319 eV  422.89 nm  f=0.0010  <S**2>=0.000
     170 ->177         0.37118
     170 ->178         0.21044
     170 ->179         0.32288
     170 ->180        -0.27870
     170 ->185         0.19375
     170 ->187         0.15644

 Excited State   4:      Singlet-A      2.9744 eV  416.84 nm  f=0.0103  <S**2>=0.000
     168 ->177        -0.28671
     168 ->179         0.32235
     168 ->180         0.31572
     168 ->185         0.20553
     169 ->177         0.10533
     171 ->177         0.12099
     172 ->177        -0.20405

 Excited State   5:      Singlet-A      3.0397 eV  407.89 nm  f=0.6352  <S**2>=0.000
     168 ->177        -0.12157
     168 ->180         0.10244
     171 ->177        -0.17669
     172 ->177         0.29055
     175 ->177        -0.25167
     176 ->178         0.47226
     176 ->179         0.12822

 The electronic state is 1-A.
 Alpha  occ. eigenvalues --   -1.86982  -1.81474  -1.79913  -1.76166  -1.75424
 Alpha  occ. eigenvalues --   -1.71878  -1.65812  -1.61755  -1.60573  -1.57748
 Alpha  occ. eigenvalues --   -1.56770  -1.52628  -1.50235  -1.48233  -1.47894
 Alpha  occ. eigenvalues --   -1.44980  -1.42649  -1.39924  -1.39743  -1.38850
 Alpha  occ. eigenvalues --   -1.36889  -1.34540  -1.33261  -1.30632  -1.28587
 Alpha  occ. eigenvalues --   -1.27102  -1.25540  -1.22420  -1.20747  -1.18607
 Alpha  occ. eigenvalues --   -1.17922  -1.16325  -1.16003  -1.14795  -1.13070
 Alpha  occ. eigenvalues --   -1.11580  -1.10545  -1.09978  -1.04974  -1.03888
 Alpha  occ. eigenvalues --   -1.01877  -1.01098  -0.99506  -0.97711  -0.96936
 Alpha  occ. eigenvalues --   -0.96412  -0.94634  -0.93240  -0.92281  -0.91672
 Alpha  occ. eigenvalues --   -0.91152  -0.91056  -0.89963  -0.88319  -0.86429
 Alpha  occ. eigenvalues --   -0.86011  -0.85553  -0.83116  -0.82169  -0.80535
 Alpha  occ. eigenvalues --   -0.79969  -0.79127  -0.76969  -0.76776  -0.76684
 Alpha  occ. eigenvalues --   -0.75650  -0.75244  -0.74641  -0.74360  -0.73497
 Alpha  occ. eigenvalues --   -0.72908  -0.72626  -0.72097  -0.71792  -0.70844
 Alpha  occ. eigenvalues --   -0.70168  -0.69302  -0.68987  -0.68375  -0.68029
 Alpha  occ. eigenvalues --   -0.67249  -0.66797  -0.66459  -0.66425  -0.66262
 Alpha  occ. eigenvalues --   -0.65679  -0.65160  -0.64500  -0.63916  -0.63538
 Alpha  occ. eigenvalues --   -0.63120  -0.62697  -0.62419  -0.62280  -0.62154
 Alpha  occ. eigenvalues --   -0.62040  -0.61360  -0.61159  -0.60948  -0.60673
 Alpha  occ. eigenvalues --   -0.60593  -0.59621  -0.59413  -0.59182  -0.58227
 Alpha  occ. eigenvalues --   -0.57883  -0.57505  -0.56638  -0.56330  -0.55985
 Alpha  occ. eigenvalues --   -0.55852  -0.55209  -0.55056  -0.54761  -0.54540
 Alpha  occ. eigenvalues --   -0.54144  -0.53872  -0.53380  -0.53115  -0.52832
 Alpha  occ. eigenvalues --   -0.52470  -0.52290  -0.52158  -0.51890  -0.51422
 Alpha  occ. eigenvalues --   -0.51104  -0.50693  -0.50652  -0.50418  -0.50397
 Alpha  occ. eigenvalues --   -0.50267  -0.49797  -0.49346  -0.49207  -0.49022
 Alpha  occ. eigenvalues --   -0.48584  -0.48513  -0.48294  -0.47682  -0.47547
 Alpha  occ. eigenvalues --   -0.47250  -0.47114  -0.46615  -0.46211  -0.45968
 Alpha  occ. eigenvalues --   -0.45900  -0.45610  -0.45375  -0.45044  -0.44806
 Alpha  occ. eigenvalues --   -0.44783  -0.44357  -0.44282  -0.44208  -0.43995
 Alpha  occ. eigenvalues --   -0.43919  -0.43690  -0.42775  -0.42700  -0.41741
 Alpha  occ. eigenvalues --   -0.41249  -0.41013  -0.40707  -0.38906  -0.38513
 Alpha  occ. eigenvalues --   -0.37703  -0.37107  -0.35324  -0.35026  -0.34316
 Alpha  occ. eigenvalues --   -0.33023  -0.32522  -0.32121  -0.32039  -0.26293
 Alpha  occ. eigenvalues --   -0.22306
 Alpha virt. eigenvalues --   -0.08996  -0.02031  -0.00193   0.01575   0.01905
 Alpha virt. eigenvalues --    0.02392   0.03022   0.03129   0.04844   0.05625
 Alpha virt. eigenvalues --    0.06233   0.06575   0.06874   0.07592   0.08336

 Mulliken charges:
               1
     1  Mg   0.432248
     2  C   -0.054944
     3  C   -0.087660
     4  C   -0.072468
     5  C   -0.068791
     6  N   -0.268809
     7  C    0.132218
     8  C    0.007550
     9  C    0.005369
    10  C    0.129630
    11  C   -0.047186
    12  C   -0.018106
    13  C    0.006545
    14  C    0.469621
    15  O   -0.506945
    16  O   -0.274599
    17  N   -0.326863
    18  C    0.105918
    19  C   -0.000223
    20  C   -0.056809
    21  C    0.159526
    22  C   -0.045564
    23  C    0.321309
    24  O   -0.522294
    25  C   -0.025517
    26  N   -0.262244
    27  C    0.159250
    28  C   -0.008287
    29  C   -0.000823
    30  C    0.107057
    31  C   -0.057899
    32  C   -0.023035
    33  C   -0.059496
    34  N   -0.333637
    35  C    0.098081
    36  C    0.025847
    37  C   -0.055281
    38  C    0.117945
    39  C   -0.039578
    40  C    0.343665
    41  O   -0.546382
    42  C    0.058925
    43  C    0.501691
    44  O   -0.539227
    45  O   -0.262199
    46  C    0.072108
    47  C    0.105599
    48  C   -0.098760
    49  C   -0.007251
    50  C   -0.038465
    51  C   -0.017929
    52  C   -0.029339
    53  C   -0.041280
    54  C   -0.015853
    55  C   -0.068239
    56  C   -0.028248
    57  C   -0.040717
    58  C   -0.029357
    59  C   -0.019911
    60  C   -0.053008
    61  C   -0.022804
    62  C   -0.039184
    63  C   -0.037907
    64  C   -0.016057
    65  C   -0.058078
    66  C   -0.062965
    67  H    0.024031
    68  H    0.052425
    69  H    0.032493
    70  H    0.035641
    71  H    0.036602
    72  H    0.023826
    73  H    0.016503
    74  H    0.013059
    75  H    0.044298
    76  H    0.025388
    77  H    0.031638
    78  H    0.036622
    79  H    0.031136
    80  H    0.042450
    81  H    0.021321
    82  H    0.034349
    83  H    0.047006
    84  H    0.037011
    85  H    0.033548
    86  H    0.039132
    87  H    0.030329
    88  H    0.027502
    89  H    0.019349
    90  H    0.027226
    91  H    0.016766
    92  H    0.019782
    93  H    0.015123
    94  H    0.023183
    95  H    0.031380
    96  H    0.027639
    97  H    0.025869
    98  H    0.055356
    99  H    0.049206
   100  H    0.023294
   101  H    0.060200
   102  H    0.060083
   103  H    0.043944
   104  H    0.024751
   105  H    0.036918
   106  H    0.018024
   107  H    0.030422
   108  H    0.021308
   109  H    0.012507
   110  H    0.019743
   111  H    0.024204
   112  H    0.015958
   113  H    0.018609
   114  H    0.023265
   115  H    0.017727
   116  H    0.016044
   117  H    0.025700
   118  H    0.021146
   119  H    0.011169
   120  H    0.009715
   121  H    0.027233
   122  H    0.015724
   123  H    0.025894
   124  H    0.013705
   125  H    0.018578
   126  H    0.017157
   127  H    0.014424
   128  H    0.013715
   129  H    0.018484
   130  H    0.014683
   131  H    0.016981
   132  H    0.003645
   133  H    0.032448
   134  H    0.024776
   135  H    0.022508
   136  H    0.017967
   137  H    0.014596
   138  H    0.015034
   139  H    0.015390
   140  H    0.025254
 Sum of Mulliken charges =  -0.00000

 Dipole moment (field-independent basis, Debye):
    X=             -3.4626    Y=              6.9328    Z=             -5.1566  Tot=              9.3083
 N-N= 4.253229036496D+03 E-N= 0.000000000000D+00  KE=-9.181109763873D+03
 Leave Link  601 at Wed May  4 12:43:11 2022, MaxMem=  6710886400 cpu:               0.9 elap:               0.1
 (Enter /sw/apps/gaussian-16.0/g16/l9999.exe)
 1\1\GINC-BP1-COMPUTE128\SP\RZINDO CIS\STO-3G\C55H74Mg1N4O6\OF15641\04-
 May-2022\0\\#p ZINDO=(nstates=5)\\step_1701_chromophore_22 ZINDO\\0,1\
 Mg,0,8.635,48.046,26.058\C,0,6.576,48.04,28.835\C,0,11.35,48.445,28.32
 7\C,0,10.781,48.752,23.441\C,0,5.937,48.335,24.01\N,0,8.882,48.194,28.
 371\C,0,7.918,48.187,29.284\C,0,8.429,48.382,30.724\C,0,9.965,48.753,3
 0.457\C,0,10.086,48.396,28.957\C,0,10.16,50.185,30.785\C,0,8.199,47.11
 9,31.609\C,0,9.233,46.843,32.71\C,0,8.914,45.824,33.74\O,0,8.828,44.64

 Normal termination of Gaussian 16 at Wed May  4 12:43:11 2022.
