 Gaussian 16, Revision A.03,
 Gaussian 16:  ES64L-G16RevA.03 25-Dec-2016

 ------------------------------
 #p blyp/Def2SVP td=(nstates=5)
 ------------------------------

 ---------------------------------------------------
 step_1051_chromophore_23 TDDFT with blyp functional
 ---------------------------------------------------
 Symbolic Z-matrix:
 Charge =  0 Multiplicity = 1

                         Standard orientation:
 ---------------------------------------------------------------------
 Center     Atomic      Atomic             Coordinates (Angstroms)
 Number     Number       Type             X           Y           Z
 ---------------------------------------------------------------------
      1         12           0       -4.753753    0.004332   -0.335933
      2          6           0       -2.578309    2.709141    0.278465
      3          6           0       -2.924980   -0.510190   -3.341096
      4          6           0       -6.308089   -2.880638   -0.718268
      5          6           0       -5.682982    0.182311    3.071450
      6          7           0       -2.905128    0.973192   -1.328288
      7          6           0       -2.328593    2.126666   -0.959178
      8          6           0       -1.062447    2.429834   -1.826576
      9          6           0       -1.390444    1.544440   -3.065176
     10          6           0       -2.517580    0.644729   -2.577157
     11          6           0       -1.671034    2.414961   -4.273107
     12          6           0        0.288339    2.091664   -1.144619
     13          6           0        1.300605    3.284325   -0.897661
     14          6           0        2.652011    3.409822   -1.674672
     15          8           0        2.724567    3.757986   -2.822837
     16          8           0        3.735126    3.291286   -0.775611
     17          7           0       -4.802621   -1.362988   -1.948118
     18          6           0       -3.986810   -1.414062   -3.090515
     19          6           0       -4.478383   -2.506624   -3.867747
     20          6           0       -5.517869   -3.142649   -3.160219
     21          6           0       -5.595287   -2.496433   -1.886024
     22          6           0       -3.965653   -2.890763   -5.254169
     23          6           0       -6.320106   -4.277923   -3.630307
     24          8           0       -6.070344   -4.812928   -4.736292
     25          6           0       -7.359673   -4.847221   -2.870457
     26          7           0       -5.679122   -1.213441    0.986084
     27          6           0       -6.348534   -2.391089    0.610144
     28          6           0       -7.314261   -2.789930    1.754995
     29          6           0       -6.655865   -2.081706    2.969669
     30          6           0       -5.977385   -0.924291    2.276949
     31          6           0       -8.796778   -2.493948    1.488918
     32          6           0       -5.630364   -2.995293    3.655291
     33          6           0       -6.094973   -3.466795    5.096982
     34          7           0       -4.400043    1.295310    1.345637
     35          6           0       -4.843985    1.227840    2.620819
     36          6           0       -4.436070    2.386212    3.328483
     37          6           0       -3.501301    3.015259    2.492333
     38          6           0       -3.497561    2.257838    1.283301
     39          6           0       -4.848618    2.734483    4.756271
     40          6           0       -2.580660    4.156376    2.274706
     41          8           0       -2.261774    5.082170    3.034205
     42          6           0       -1.809405    3.882860    0.909080
     43          6           0       -1.916967    5.137496    0.155665
     44          8           0       -2.889319    5.396324   -0.555930
     45          8           0       -0.837516    5.984401    0.391546
     46          6           0       -0.887104    7.283101   -0.340437
     47          6           0        5.114175    3.395845   -1.286054
     48          6           0        5.913700    2.550745   -0.366436
     49          6           0        6.529770    1.305150   -0.586476
     50          6           0        6.540631    0.391014   -1.840315
     51          6           0        7.448871    0.730970    0.468305
     52          6           0        8.837337    1.442957    0.524130
     53          6           0       10.009282    0.473218    0.750353
     54          6           0       10.418020   -0.271432   -0.539410
     55          6           0       11.786020    0.223847   -1.041048
     56          6           0       10.511817   -1.791498   -0.346333
     57          6           0        9.290529   -2.517130   -1.027485
     58          6           0        9.044331   -3.913110   -0.425799
     59          6           0        8.057040   -3.843179    0.723576
     60          6           0        8.531499   -4.858019    1.867066
     61          6           0        6.647970   -4.073400    0.293620
     62          6           0        5.702612   -2.918185    0.722265
     63          6           0        4.510627   -3.360163    1.602224
     64          6           0        4.608101   -2.746272    3.045102
     65          6           0        5.018765   -3.699458    4.215922
     66          6           0        3.229630   -2.154899    3.553386
     67          1           0       -2.290424   -0.608593   -4.223568
     68          1           0       -6.892930   -3.800745   -0.782255
     69          1           0       -6.062361    0.242898    4.093933
     70          1           0       -1.110366    3.487536   -2.087587
     71          1           0       -0.586430    0.830649   -3.247307
     72          1           0       -2.750332    2.336576   -4.401073
     73          1           0       -1.116064    2.114409   -5.161250
     74          1           0       -1.409502    3.466342   -4.148460
     75          1           0        0.821639    1.437316   -1.834357
     76          1           0        0.070234    1.525457   -0.239228
     77          1           0        1.550774    3.346935    0.161136
     78          1           0        0.754134    4.185363   -1.176426
     79          1           0       -3.363350   -3.799058   -5.266608
     80          1           0       -3.097550   -2.253369   -5.417430
     81          1           0       -4.785962   -2.882782   -5.971092
     82          1           0       -7.851278   -4.017194   -2.362291
     83          1           0       -6.962488   -5.511171   -2.103269
     84          1           0       -8.176227   -5.135214   -3.532916
     85          1           0       -7.290652   -3.867627    1.914867
     86          1           0       -7.348563   -1.680257    3.710025
     87          1           0       -9.038933   -1.518371    1.909162
     88          1           0       -9.410544   -3.305932    1.878911
     89          1           0       -8.824839   -2.373457    0.406288
     90          1           0       -4.717968   -2.432539    3.852854
     91          1           0       -5.433870   -3.849521    3.007440
     92          1           0       -5.202701   -3.673476    5.688091
     93          1           0       -6.631460   -4.398928    4.922721
     94          1           0       -6.718290   -2.733172    5.609434
     95          1           0       -5.912429    2.966891    4.698679
     96          1           0       -4.367430    3.622329    5.165018
     97          1           0       -4.567679    1.871931    5.360405
     98          1           0       -0.762053    3.607258    1.028287
     99          1           0       -0.397717    8.065767    0.239613
    100          1           0       -1.881402    7.662606   -0.578541
    101          1           0       -0.303608    7.164093   -1.253607
    102          1           0        5.462035    4.426353   -1.361579
    103          1           0        5.117220    2.951082   -2.281840
    104          1           0        6.083095    2.995697    0.614540
    105          1           0        6.328739   -0.587414   -1.408004
    106          1           0        7.462394    0.527484   -2.406158
    107          1           0        5.694208    0.665645   -2.468435
    108          1           0        7.574363   -0.351599    0.451199
    109          1           0        6.964120    1.021615    1.399309
    110          1           0        8.843127    2.147120    1.356348
    111          1           0        8.984384    2.052397   -0.367567
    112          1           0        9.655384   -0.207877    1.523415
    113          1           0       10.833167    1.070441    1.141812
    114          1           0        9.786539   -0.000695   -1.385224
    115          1           0       12.050433    1.168109   -0.565325
    116          1           0       11.773775    0.461915   -2.104075
    117          1           0       12.523835   -0.550520   -0.826751
    118          1           0       10.365137   -1.989117    0.716050
    119          1           0       11.364322   -2.343826   -0.741605
    120          1           0        9.482614   -2.559194   -2.099237
    121          1           0        8.449337   -1.823460   -1.044266
    122          1           0       10.029555   -4.255834   -0.108683
    123          1           0        8.693893   -4.585770   -1.208810
    124          1           0        8.318641   -2.902573    1.208450
    125          1           0        8.956921   -4.270552    2.681148
    126          1           0        9.266970   -5.629876    1.640673
    127          1           0        7.662364   -5.373835    2.275416
    128          1           0        6.273527   -5.065399    0.546744
    129          1           0        6.578300   -4.112569   -0.792809
    130          1           0        5.245686   -2.479641   -0.164608
    131          1           0        6.269687   -2.095250    1.156816
    132          1           0        4.550892   -4.447799    1.662588
    133          1           0        3.595595   -2.940319    1.182850
    134          1           0        5.301291   -1.905917    3.007453
    135          1           0        5.833662   -3.200641    4.740702
    136          1           0        5.218322   -4.721185    3.893764
    137          1           0        4.260394   -3.828432    4.988291
    138          1           0        2.461984   -2.927107    3.599652
    139          1           0        2.804883   -1.310564    3.011445
    140          1           0        3.313640   -1.665049    4.523664
 ---------------------------------------------------------------------

 SCF Done:  E(RB-LYP) =  -3007.35935046     A.U. after   20 cycles

 Excitation energies and oscillator strengths:

 Excited State   1:      Singlet-A      1.5172 eV  817.21 nm  f=0.0014  <S**2>=0.000
     244 -> 247        0.18858
     245 -> 247        0.67827
 This state for optimization and/or second-order correction.
 Total Energy, E(TD-HF/TD-DFT) =  -3007.30359599
 Copying the excited state density for this state as the 1-particle RhoCI density.

 Excited State   2:      Singlet-A      1.8104 eV  684.84 nm  f=0.2846  <S**2>=0.000
     243 -> 247       -0.10508
     244 -> 248        0.17647
     246 -> 247        0.67987
     246 <- 247       -0.14826

 Excited State   3:      Singlet-A      1.9619 eV  631.97 nm  f=0.0126  <S**2>=0.000
     243 -> 247        0.68874
     244 -> 247       -0.10227

 Excited State   4:      Singlet-A      2.0237 eV  612.65 nm  f=0.0660  <S**2>=0.000
     242 -> 247        0.13852
     243 -> 247        0.11329
     244 -> 247        0.60339
     245 -> 247       -0.16516
     246 -> 248       -0.24757

 Excited State   5:      Singlet-A      2.2288 eV  556.29 nm  f=0.0002  <S**2>=0.000
     241 -> 247        0.70017

 The electronic state is 1-A.
 Alpha  occ. eigenvalues --  -46.27743 -18.82289 -18.81219 -18.77416 -18.76524
 Alpha  occ. eigenvalues --  -18.76161 -18.74052 -14.03703 -14.03507 -14.01061
 Alpha  occ. eigenvalues --  -14.00907 -10.04296 -10.03783 -10.00536  -9.98288
 Alpha  occ. eigenvalues --   -9.97797  -9.97557  -9.97435  -9.96813  -9.96423
 Alpha  occ. eigenvalues --   -9.96407  -9.96269  -9.95905  -9.95206  -9.94795
 Alpha  occ. eigenvalues --   -9.94328  -9.94295  -9.94283  -9.93964  -9.93962
 Alpha  occ. eigenvalues --   -9.93908  -9.93860  -9.93691  -9.93568  -9.93566
 Alpha  occ. eigenvalues --   -9.93396  -9.93383  -9.93333  -9.92924  -9.92893
 Alpha  occ. eigenvalues --   -9.92864  -9.92843  -9.92720  -9.92482  -9.92426
 Alpha  occ. eigenvalues --   -9.92394  -9.92015  -9.91976  -9.91946  -9.91887
 Alpha  occ. eigenvalues --   -9.91848  -9.91731  -9.91648  -9.91601  -9.91425
 Alpha  occ. eigenvalues --   -9.91379  -9.91350  -9.91327  -9.91251  -9.91188
 Alpha  occ. eigenvalues --   -9.90950  -9.90867  -9.90845  -9.90719  -9.90713
 Alpha  occ. eigenvalues --   -9.90697  -2.92336  -1.72740  -1.72241  -1.72037
 Alpha  occ. eigenvalues --   -0.96781  -0.96555  -0.90715  -0.90242  -0.89407
 Alpha  occ. eigenvalues --   -0.89177  -0.87727  -0.86900  -0.85963  -0.84617
 Alpha  occ. eigenvalues --   -0.75271  -0.74050  -0.73202  -0.72790  -0.72680
 Alpha  occ. eigenvalues --   -0.71984  -0.71925  -0.71008  -0.70681  -0.70341
 Alpha  occ. eigenvalues --   -0.69487  -0.69146  -0.68330  -0.67862  -0.67582
 Alpha  occ. eigenvalues --   -0.66725  -0.66494  -0.65618  -0.65096  -0.64937
 Alpha  occ. eigenvalues --   -0.64184  -0.62402  -0.62272  -0.61837  -0.60883
 Alpha  occ. eigenvalues --   -0.60621  -0.60096  -0.59877  -0.59348  -0.59067
 Alpha  occ. eigenvalues --   -0.58265  -0.57465  -0.56972  -0.55497  -0.54450
 Alpha  occ. eigenvalues --   -0.54221  -0.53850  -0.52978  -0.52717  -0.51795
 Alpha  occ. eigenvalues --   -0.51619  -0.51445  -0.50885  -0.50759  -0.50154
 Alpha  occ. eigenvalues --   -0.49731  -0.49201  -0.48867  -0.48109  -0.46738
 Alpha  occ. eigenvalues --   -0.46308  -0.46131  -0.45754  -0.45639  -0.44525
 Alpha  occ. eigenvalues --   -0.44458  -0.43361  -0.43084  -0.42975  -0.42352
 Alpha  occ. eigenvalues --   -0.42326  -0.41692  -0.41549  -0.41296  -0.41154
 Alpha  occ. eigenvalues --   -0.41117  -0.40886  -0.40722  -0.40331  -0.40321
 Alpha  occ. eigenvalues --   -0.39973  -0.39893  -0.39765  -0.39616  -0.39508
 Alpha  occ. eigenvalues --   -0.39335  -0.39098  -0.38988  -0.38827  -0.38547
 Alpha  occ. eigenvalues --   -0.38263  -0.38163  -0.37851  -0.37738  -0.37504
 Alpha  occ. eigenvalues --   -0.37350  -0.37178  -0.37032  -0.36662  -0.36359
 Alpha  occ. eigenvalues --   -0.36226  -0.36107  -0.35987  -0.35715  -0.35587
 Alpha  occ. eigenvalues --   -0.35325  -0.35156  -0.35057  -0.34905  -0.34844
 Alpha  occ. eigenvalues --   -0.34642  -0.34381  -0.34143  -0.34001  -0.33781
 Alpha  occ. eigenvalues --   -0.33758  -0.33677  -0.33591  -0.33497  -0.33359
 Alpha  occ. eigenvalues --   -0.33161  -0.32956  -0.32873  -0.32614  -0.32438
 Alpha  occ. eigenvalues --   -0.32123  -0.31730  -0.31672  -0.31506  -0.31441
 Alpha  occ. eigenvalues --   -0.31224  -0.30973  -0.30906  -0.30412  -0.30230
 Alpha  occ. eigenvalues --   -0.30172  -0.29940  -0.29885  -0.29820  -0.29651
 Alpha  occ. eigenvalues --   -0.29374  -0.29349  -0.29148  -0.28994  -0.28847
 Alpha  occ. eigenvalues --   -0.28745  -0.28637  -0.28304  -0.28265  -0.27927
 Alpha  occ. eigenvalues --   -0.27765  -0.27758  -0.27128  -0.26793  -0.26387
 Alpha  occ. eigenvalues --   -0.26351  -0.26239  -0.25967  -0.25566  -0.25265
 Alpha  occ. eigenvalues --   -0.25038  -0.24972  -0.24927  -0.24260  -0.24110
 Alpha  occ. eigenvalues --   -0.23790  -0.22473  -0.22335  -0.21739  -0.20862
 Alpha  occ. eigenvalues --   -0.20151  -0.19986  -0.19046  -0.17835  -0.17430
 Alpha  occ. eigenvalues --   -0.16234
 Alpha virt. eigenvalues --   -0.11963  -0.07491  -0.06440  -0.04955  -0.03739
 Alpha virt. eigenvalues --   -0.03389  -0.03058  -0.02654  -0.02074  -0.00093
 Alpha virt. eigenvalues --    0.00810   0.01438   0.01850   0.02234   0.02568

 Mulliken charges:
               1
     1  Mg   0.706604
     2  C    0.033058
     3  C   -0.065445
     4  C   -0.044923
     5  C   -0.120570
     6  N   -0.168719
     7  C   -0.100584
     8  C   -0.007046
     9  C   -0.009562
    10  C   -0.012210
    11  C    0.147058
    12  C    0.143219
    13  C    0.088436
    14  C    0.073593
    15  O   -0.167208
    16  O   -0.299384
    17  N   -0.319812
    18  C    0.177981
    19  C   -0.170993
    20  C    0.109160
    21  C    0.134181
    22  C    0.229749
    23  C   -0.153245
    24  O   -0.206475
    25  C    0.204057
    26  N   -0.276668
    27  C   -0.005612
    28  C    0.003442
    29  C    0.009074
    30  C    0.091679
    31  C    0.167782
    32  C    0.090495
    33  C    0.059128
    34  N   -0.202890
    35  C    0.106480
    36  C   -0.218688
    37  C    0.116690
    38  C    0.030811
    39  C    0.179114
    40  C   -0.027602
    41  O   -0.144418
    42  C    0.068339
    43  C    0.112698
    44  O   -0.196112
    45  O   -0.281003
    46  C    0.212108
    47  C    0.338583
    48  C   -0.084254
    49  C   -0.184948
    50  C    0.143573
    51  C    0.094643
    52  C    0.061404
    53  C    0.119260
    54  C   -0.069341
    55  C    0.101092
    56  C    0.113166
    57  C    0.002819
    58  C    0.146926
    59  C   -0.076882
    60  C    0.078174
    61  C    0.170449
    62  C    0.011876
    63  C    0.158352
    64  C   -0.098674
    65  C    0.101818
    66  C    0.061079
    67  H   -0.051512
    68  H   -0.078263
    69  H   -0.057446
    70  H   -0.019161
    71  H   -0.020169
    72  H   -0.007073
    73  H   -0.005403
    74  H   -0.001483
    75  H   -0.016735
    76  H   -0.003878
    77  H    0.004034
    78  H    0.006929
    79  H   -0.011719
    80  H   -0.057046
    81  H    0.028014
    82  H   -0.021554
    83  H    0.031617
    84  H   -0.006253
    85  H   -0.043121
    86  H   -0.043443
    87  H   -0.011930
    88  H    0.004719
    89  H   -0.015444
    90  H   -0.019331
    91  H   -0.011908
    92  H   -0.003492
    93  H   -0.008017
    94  H   -0.003451
    95  H    0.003048
    96  H    0.001224
    97  H    0.010522
    98  H    0.006855
    99  H    0.016105
   100  H    0.027646
   101  H    0.011934
   102  H    0.003357
   103  H   -0.023120
   104  H   -0.036917
   105  H    0.020061
   106  H    0.024010
   107  H   -0.019010
   108  H    0.000162
   109  H   -0.020991
   110  H   -0.035037
   111  H   -0.029578
   112  H   -0.031775
   113  H   -0.032521
   114  H   -0.028534
   115  H   -0.029059
   116  H   -0.021559
   117  H   -0.013214
   118  H   -0.036207
   119  H   -0.016752
   120  H   -0.047639
   121  H   -0.050332
   122  H   -0.043988
   123  H   -0.041475
   124  H   -0.031245
   125  H   -0.023474
   126  H   -0.012499
   127  H   -0.025310
   128  H   -0.034874
   129  H   -0.046007
   130  H   -0.023674
   131  H   -0.008524
   132  H   -0.029633
   133  H   -0.035124
   134  H   -0.029228
   135  H   -0.013479
   136  H   -0.014542
   137  H   -0.021038
   138  H   -0.008794
   139  H   -0.030301
   140  H   -0.021834
 Sum of Mulliken charges =  -0.00000

 Dipole moment (field-independent basis, Debye):
    X=              1.0382    Y=             -1.8860    Z=              2.7823  Tot=              3.5180
 Quadrupole moment (field-independent basis, Debye-Ang):
   XX=           -369.9055   YY=           -426.6072   ZZ=           -422.4522
   XY=              8.3030   XZ=            -28.5596   YZ=            -28.6918

 Normal termination of Gaussian 16 at Wed Apr 27 04:17:13 2022.
