 Gaussian 16, Revision A.03,
 Gaussian 16:  ES64L-G16RevA.03 25-Dec-2016

 -----------------------------------
 #p cam-b3lyp/Def2SVP td=(nstates=5)
 -----------------------------------

 --------------------------------------------------------
 step_1051_chromophore_23 TDDFT with cam-b3lyp functional
 --------------------------------------------------------
 Symbolic Z-matrix:
 Charge =  0 Multiplicity = 1

                         Standard orientation:
 ---------------------------------------------------------------------
 Center     Atomic      Atomic             Coordinates (Angstroms)
 Number     Number       Type             X           Y           Z
 ---------------------------------------------------------------------
      1         12           0       -4.753753    0.004332   -0.335933
      2          6           0       -2.578309    2.709141    0.278465
      3          6           0       -2.924980   -0.510190   -3.341096
      4          6           0       -6.308089   -2.880638   -0.718268
      5          6           0       -5.682982    0.182311    3.071450
      6          7           0       -2.905128    0.973192   -1.328288
      7          6           0       -2.328593    2.126666   -0.959178
      8          6           0       -1.062447    2.429834   -1.826576
      9          6           0       -1.390444    1.544440   -3.065176
     10          6           0       -2.517580    0.644729   -2.577157
     11          6           0       -1.671034    2.414961   -4.273107
     12          6           0        0.288339    2.091664   -1.144619
     13          6           0        1.300605    3.284325   -0.897661
     14          6           0        2.652011    3.409822   -1.674672
     15          8           0        2.724567    3.757986   -2.822837
     16          8           0        3.735126    3.291286   -0.775611
     17          7           0       -4.802621   -1.362988   -1.948118
     18          6           0       -3.986810   -1.414062   -3.090515
     19          6           0       -4.478383   -2.506624   -3.867747
     20          6           0       -5.517869   -3.142649   -3.160219
     21          6           0       -5.595287   -2.496433   -1.886024
     22          6           0       -3.965653   -2.890763   -5.254169
     23          6           0       -6.320106   -4.277923   -3.630307
     24          8           0       -6.070344   -4.812928   -4.736292
     25          6           0       -7.359673   -4.847221   -2.870457
     26          7           0       -5.679122   -1.213441    0.986084
     27          6           0       -6.348534   -2.391089    0.610144
     28          6           0       -7.314261   -2.789930    1.754995
     29          6           0       -6.655865   -2.081706    2.969669
     30          6           0       -5.977385   -0.924291    2.276949
     31          6           0       -8.796778   -2.493948    1.488918
     32          6           0       -5.630364   -2.995293    3.655291
     33          6           0       -6.094973   -3.466795    5.096982
     34          7           0       -4.400043    1.295310    1.345637
     35          6           0       -4.843985    1.227840    2.620819
     36          6           0       -4.436070    2.386212    3.328483
     37          6           0       -3.501301    3.015259    2.492333
     38          6           0       -3.497561    2.257838    1.283301
     39          6           0       -4.848618    2.734483    4.756271
     40          6           0       -2.580660    4.156376    2.274706
     41          8           0       -2.261774    5.082170    3.034205
     42          6           0       -1.809405    3.882860    0.909080
     43          6           0       -1.916967    5.137496    0.155665
     44          8           0       -2.889319    5.396324   -0.555930
     45          8           0       -0.837516    5.984401    0.391546
     46          6           0       -0.887104    7.283101   -0.340437
     47          6           0        5.114175    3.395845   -1.286054
     48          6           0        5.913700    2.550745   -0.366436
     49          6           0        6.529770    1.305150   -0.586476
     50          6           0        6.540631    0.391014   -1.840315
     51          6           0        7.448871    0.730970    0.468305
     52          6           0        8.837337    1.442957    0.524130
     53          6           0       10.009282    0.473218    0.750353
     54          6           0       10.418020   -0.271432   -0.539410
     55          6           0       11.786020    0.223847   -1.041048
     56          6           0       10.511817   -1.791498   -0.346333
     57          6           0        9.290529   -2.517130   -1.027485
     58          6           0        9.044331   -3.913110   -0.425799
     59          6           0        8.057040   -3.843179    0.723576
     60          6           0        8.531499   -4.858019    1.867066
     61          6           0        6.647970   -4.073400    0.293620
     62          6           0        5.702612   -2.918185    0.722265
     63          6           0        4.510627   -3.360163    1.602224
     64          6           0        4.608101   -2.746272    3.045102
     65          6           0        5.018765   -3.699458    4.215922
     66          6           0        3.229630   -2.154899    3.553386
     67          1           0       -2.290424   -0.608593   -4.223568
     68          1           0       -6.892930   -3.800745   -0.782255
     69          1           0       -6.062361    0.242898    4.093933
     70          1           0       -1.110366    3.487536   -2.087587
     71          1           0       -0.586430    0.830649   -3.247307
     72          1           0       -2.750332    2.336576   -4.401073
     73          1           0       -1.116064    2.114409   -5.161250
     74          1           0       -1.409502    3.466342   -4.148460
     75          1           0        0.821639    1.437316   -1.834357
     76          1           0        0.070234    1.525457   -0.239228
     77          1           0        1.550774    3.346935    0.161136
     78          1           0        0.754134    4.185363   -1.176426
     79          1           0       -3.363350   -3.799058   -5.266608
     80          1           0       -3.097550   -2.253369   -5.417430
     81          1           0       -4.785962   -2.882782   -5.971092
     82          1           0       -7.851278   -4.017194   -2.362291
     83          1           0       -6.962488   -5.511171   -2.103269
     84          1           0       -8.176227   -5.135214   -3.532916
     85          1           0       -7.290652   -3.867627    1.914867
     86          1           0       -7.348563   -1.680257    3.710025
     87          1           0       -9.038933   -1.518371    1.909162
     88          1           0       -9.410544   -3.305932    1.878911
     89          1           0       -8.824839   -2.373457    0.406288
     90          1           0       -4.717968   -2.432539    3.852854
     91          1           0       -5.433870   -3.849521    3.007440
     92          1           0       -5.202701   -3.673476    5.688091
     93          1           0       -6.631460   -4.398928    4.922721
     94          1           0       -6.718290   -2.733172    5.609434
     95          1           0       -5.912429    2.966891    4.698679
     96          1           0       -4.367430    3.622329    5.165018
     97          1           0       -4.567679    1.871931    5.360405
     98          1           0       -0.762053    3.607258    1.028287
     99          1           0       -0.397717    8.065767    0.239613
    100          1           0       -1.881402    7.662606   -0.578541
    101          1           0       -0.303608    7.164093   -1.253607
    102          1           0        5.462035    4.426353   -1.361579
    103          1           0        5.117220    2.951082   -2.281840
    104          1           0        6.083095    2.995697    0.614540
    105          1           0        6.328739   -0.587414   -1.408004
    106          1           0        7.462394    0.527484   -2.406158
    107          1           0        5.694208    0.665645   -2.468435
    108          1           0        7.574363   -0.351599    0.451199
    109          1           0        6.964120    1.021615    1.399309
    110          1           0        8.843127    2.147120    1.356348
    111          1           0        8.984384    2.052397   -0.367567
    112          1           0        9.655384   -0.207877    1.523415
    113          1           0       10.833167    1.070441    1.141812
    114          1           0        9.786539   -0.000695   -1.385224
    115          1           0       12.050433    1.168109   -0.565325
    116          1           0       11.773775    0.461915   -2.104075
    117          1           0       12.523835   -0.550520   -0.826751
    118          1           0       10.365137   -1.989117    0.716050
    119          1           0       11.364322   -2.343826   -0.741605
    120          1           0        9.482614   -2.559194   -2.099237
    121          1           0        8.449337   -1.823460   -1.044266
    122          1           0       10.029555   -4.255834   -0.108683
    123          1           0        8.693893   -4.585770   -1.208810
    124          1           0        8.318641   -2.902573    1.208450
    125          1           0        8.956921   -4.270552    2.681148
    126          1           0        9.266970   -5.629876    1.640673
    127          1           0        7.662364   -5.373835    2.275416
    128          1           0        6.273527   -5.065399    0.546744
    129          1           0        6.578300   -4.112569   -0.792809
    130          1           0        5.245686   -2.479641   -0.164608
    131          1           0        6.269687   -2.095250    1.156816
    132          1           0        4.550892   -4.447799    1.662588
    133          1           0        3.595595   -2.940319    1.182850
    134          1           0        5.301291   -1.905917    3.007453
    135          1           0        5.833662   -3.200641    4.740702
    136          1           0        5.218322   -4.721185    3.893764
    137          1           0        4.260394   -3.828432    4.988291
    138          1           0        2.461984   -2.927107    3.599652
    139          1           0        2.804883   -1.310564    3.011445
    140          1           0        3.313640   -1.665049    4.523664
 ---------------------------------------------------------------------

 SCF Done:  E(RCAM-B3LYP) =  -3007.15111206     A.U. after   17 cycles

 Excitation energies and oscillator strengths:

 Excited State   1:      Singlet-A      1.7002 eV  729.24 nm  f=0.3708  <S**2>=0.000
     245 -> 248        0.17970
     246 -> 247        0.68484
     245 <- 248        0.10654
 This state for optimization and/or second-order correction.
 Total Energy, E(TD-HF/TD-DFT) =  -3007.08863183
 Copying the excited state density for this state as the 1-particle RhoCI density.

 Excited State   2:      Singlet-A      2.2378 eV  554.05 nm  f=0.1004  <S**2>=0.000
     245 -> 247        0.62990
     246 -> 248       -0.30193

 Excited State   3:      Singlet-A      3.1362 eV  395.33 nm  f=0.0005  <S**2>=0.000
     244 -> 247        0.66264
     244 -> 249        0.10124
     246 -> 248       -0.14401

 Excited State   4:      Singlet-A      3.3698 eV  367.92 nm  f=0.0048  <S**2>=0.000
     241 -> 247        0.42200
     241 -> 248        0.14675
     241 -> 249        0.24207
     241 -> 251       -0.18694
     242 -> 247        0.36586

 Excited State   5:      Singlet-A      3.3988 eV  364.79 nm  f=0.0378  <S**2>=0.000
     240 -> 247        0.18737
     240 -> 249       -0.14533
     241 -> 247       -0.32232
     242 -> 247        0.44965
     246 -> 248       -0.25397

 The electronic state is 1-A.
 Alpha  occ. eigenvalues --  -46.89347 -19.25347 -19.24071 -19.20483 -19.19780
 Alpha  occ. eigenvalues --  -19.19453 -19.17267 -14.42808 -14.42232 -14.39564
 Alpha  occ. eigenvalues --  -14.39258 -10.39726 -10.39437 -10.36033 -10.33424
 Alpha  occ. eigenvalues --  -10.32153 -10.31910 -10.31650 -10.31342 -10.30887
 Alpha  occ. eigenvalues --  -10.30822 -10.30745 -10.30269 -10.29321 -10.29015
 Alpha  occ. eigenvalues --  -10.28809 -10.28544 -10.28454 -10.28327 -10.28289
 Alpha  occ. eigenvalues --  -10.28095 -10.28024 -10.27887 -10.27839 -10.27793
 Alpha  occ. eigenvalues --  -10.27566 -10.27448 -10.27228 -10.26792 -10.26578
 Alpha  occ. eigenvalues --  -10.26557 -10.26523 -10.26380 -10.26342 -10.26142
 Alpha  occ. eigenvalues --  -10.26088 -10.26016 -10.25778 -10.25721 -10.25654
 Alpha  occ. eigenvalues --  -10.25646 -10.25535 -10.25534 -10.25356 -10.25300
 Alpha  occ. eigenvalues --  -10.25239 -10.24992 -10.24982 -10.24889 -10.24788
 Alpha  occ. eigenvalues --  -10.24623 -10.24492 -10.24401 -10.24324 -10.24294
 Alpha  occ. eigenvalues --  -10.24261  -3.17838  -1.92719  -1.92316  -1.92119
 Alpha  occ. eigenvalues --   -1.15303  -1.15195  -1.09153  -1.08119  -1.07773
 Alpha  occ. eigenvalues --   -1.07221  -1.05453  -1.04638  -1.03571  -1.02214
 Alpha  occ. eigenvalues --   -0.92488  -0.90920  -0.89982  -0.89591  -0.89326
 Alpha  occ. eigenvalues --   -0.88663  -0.88618  -0.87646  -0.87210  -0.86842
 Alpha  occ. eigenvalues --   -0.86157  -0.85585  -0.84626  -0.84046  -0.83858
 Alpha  occ. eigenvalues --   -0.82853  -0.82604  -0.81554  -0.80925  -0.80865
 Alpha  occ. eigenvalues --   -0.79968  -0.78057  -0.77785  -0.77496  -0.76336
 Alpha  occ. eigenvalues --   -0.75972  -0.75420  -0.75163  -0.74595  -0.74281
 Alpha  occ. eigenvalues --   -0.73340  -0.72442  -0.71888  -0.70310  -0.68991
 Alpha  occ. eigenvalues --   -0.68863  -0.68404  -0.67499  -0.67115  -0.66029
 Alpha  occ. eigenvalues --   -0.65866  -0.65487  -0.64917  -0.64866  -0.64160
 Alpha  occ. eigenvalues --   -0.63701  -0.62934  -0.62739  -0.61817  -0.60386
 Alpha  occ. eigenvalues --   -0.59812  -0.59734  -0.59294  -0.59077  -0.58210
 Alpha  occ. eigenvalues --   -0.58012  -0.56725  -0.56368  -0.56207  -0.55676
 Alpha  occ. eigenvalues --   -0.55420  -0.54538  -0.54395  -0.54132  -0.53975
 Alpha  occ. eigenvalues --   -0.53922  -0.53733  -0.53377  -0.53282  -0.53019
 Alpha  occ. eigenvalues --   -0.52818  -0.52535  -0.52458  -0.52222  -0.52129
 Alpha  occ. eigenvalues --   -0.52018  -0.51871  -0.51260  -0.51228  -0.50782
 Alpha  occ. eigenvalues --   -0.50708  -0.50570  -0.50335  -0.50158  -0.49931
 Alpha  occ. eigenvalues --   -0.49653  -0.49465  -0.49275  -0.48842  -0.48783
 Alpha  occ. eigenvalues --   -0.48332  -0.48267  -0.48205  -0.47972  -0.47830
 Alpha  occ. eigenvalues --   -0.47654  -0.47401  -0.47091  -0.46919  -0.46737
 Alpha  occ. eigenvalues --   -0.46581  -0.46366  -0.46129  -0.45701  -0.45638
 Alpha  occ. eigenvalues --   -0.45623  -0.45515  -0.45408  -0.45166  -0.45140
 Alpha  occ. eigenvalues --   -0.44983  -0.44792  -0.44522  -0.44291  -0.44088
 Alpha  occ. eigenvalues --   -0.43670  -0.43289  -0.43110  -0.43101  -0.42774
 Alpha  occ. eigenvalues --   -0.42741  -0.42528  -0.42321  -0.42118  -0.41846
 Alpha  occ. eigenvalues --   -0.41773  -0.41372  -0.41306  -0.40981  -0.40920
 Alpha  occ. eigenvalues --   -0.40816  -0.40510  -0.40481  -0.40325  -0.39974
 Alpha  occ. eigenvalues --   -0.39797  -0.39764  -0.39553  -0.39137  -0.38825
 Alpha  occ. eigenvalues --   -0.38756  -0.38564  -0.37929  -0.37597  -0.37461
 Alpha  occ. eigenvalues --   -0.37111  -0.37019  -0.36644  -0.36599  -0.36552
 Alpha  occ. eigenvalues --   -0.36375  -0.35778  -0.35523  -0.34898  -0.34492
 Alpha  occ. eigenvalues --   -0.34317  -0.34241  -0.33519  -0.31649  -0.31089
 Alpha  occ. eigenvalues --   -0.30334  -0.30143  -0.29719  -0.29247  -0.24615
 Alpha  occ. eigenvalues --   -0.21548
 Alpha virt. eigenvalues --   -0.09121  -0.02368   0.00031   0.01766   0.01929
 Alpha virt. eigenvalues --    0.03710   0.04090   0.04755   0.05252   0.07256
 Alpha virt. eigenvalues --    0.07662   0.08064   0.08124   0.08438   0.08852

 Mulliken charges:
               1
     1  Mg   0.836121
     2  C    0.011613
     3  C   -0.067638
     4  C   -0.082683
     5  C   -0.123978
     6  N   -0.230204
     7  C   -0.054167
     8  C   -0.052967
     9  C   -0.069175
    10  C    0.003383
    11  C    0.087786
    12  C    0.086719
    13  C    0.019718
    14  C    0.160309
    15  O   -0.207020
    16  O   -0.366603
    17  N   -0.406208
    18  C    0.175136
    19  C   -0.167176
    20  C    0.025982
    21  C    0.169409
    22  C    0.176971
    23  C   -0.063143
    24  O   -0.246049
    25  C    0.104746
    26  N   -0.352538
    27  C    0.025707
    28  C   -0.053265
    29  C   -0.052596
    30  C    0.108988
    31  C    0.111020
    32  C    0.035032
    33  C    0.002297
    34  N   -0.291853
    35  C    0.107334
    36  C   -0.210119
    37  C    0.036194
    38  C    0.064724
    39  C    0.124953
    40  C    0.073573
    41  O   -0.180774
    42  C   -0.011478
    43  C    0.198636
    44  O   -0.231937
    45  O   -0.344262
    46  C    0.174151
    47  C    0.305915
    48  C   -0.109217
    49  C   -0.199001
    50  C    0.087951
    51  C    0.036225
    52  C    0.015749
    53  C    0.064392
    54  C   -0.131139
    55  C    0.047690
    56  C    0.061781
    57  C   -0.037652
    58  C    0.087153
    59  C   -0.134864
    60  C    0.029617
    61  C    0.109871
    62  C   -0.038028
    63  C    0.102810
    64  C   -0.153220
    65  C    0.041647
    66  C    0.001657
    67  H   -0.014963
    68  H   -0.041627
    69  H   -0.021340
    70  H    0.013873
    71  H    0.014915
    72  H    0.018722
    73  H    0.019638
    74  H    0.023820
    75  H    0.014115
    76  H    0.028034
    77  H    0.038278
    78  H    0.033332
    79  H    0.018214
    80  H   -0.030716
    81  H    0.054940
    82  H    0.009230
    83  H    0.060529
    84  H    0.030190
    85  H   -0.006763
    86  H   -0.006657
    87  H    0.013076
    88  H    0.029079
    89  H    0.008675
    90  H    0.011603
    91  H    0.014801
    92  H    0.020434
    93  H    0.013709
    94  H    0.017706
    95  H    0.027967
    96  H    0.029618
    97  H    0.033483
    98  H    0.048050
    99  H    0.039424
   100  H    0.053499
   101  H    0.032186
   102  H    0.030593
   103  H    0.007819
   104  H   -0.003483
   105  H    0.037220
   106  H    0.046216
   107  H    0.006693
   108  H    0.016952
   109  H    0.009947
   110  H   -0.005375
   111  H   -0.001932
   112  H   -0.004767
   113  H   -0.001999
   114  H    0.000398
   115  H   -0.004712
   116  H    0.002917
   117  H    0.010319
   118  H   -0.009798
   119  H    0.011528
   120  H   -0.017377
   121  H   -0.030187
   122  H   -0.013542
   123  H   -0.010703
   124  H   -0.003459
   125  H   -0.000160
   126  H    0.011329
   127  H   -0.003896
   128  H   -0.004860
   129  H   -0.014155
   130  H    0.003992
   131  H    0.013081
   132  H   -0.002870
   133  H   -0.003600
   134  H    0.001181
   135  H    0.010125
   136  H    0.006909
   137  H    0.004611
   138  H    0.014055
   139  H   -0.005011
   140  H    0.002918
 Sum of Mulliken charges =  -0.00000

 Dipole moment (field-independent basis, Debye):
    X=              0.9461    Y=             -1.9969    Z=              2.5532  Tot=              3.3766
 Quadrupole moment (field-independent basis, Debye-Ang):
   XX=           -367.9881   YY=           -424.6771   ZZ=           -421.3707
   XY=             10.6852   XZ=            -28.6357   YZ=            -29.1260

 Normal termination of Gaussian 16 at Wed Apr 27 03:15:03 2022.
