 Gaussian 16, Revision A.03,
 Gaussian 16:  ES64L-G16RevA.03 25-Dec-2016

 ---------------------------------
 #p PBE1PBE/Def2SVP td=(nstates=5)
 ---------------------------------

 ------------------------------------------------------
 step_1051_chromophore_23 TDDFT with PBE1PBE functional
 ------------------------------------------------------
 Symbolic Z-matrix:
 Charge =  0 Multiplicity = 1

                         Standard orientation:
 ---------------------------------------------------------------------
 Center     Atomic      Atomic             Coordinates (Angstroms)
 Number     Number       Type             X           Y           Z
 ---------------------------------------------------------------------
      1         12           0       -4.753753    0.004332   -0.335933
      2          6           0       -2.578309    2.709141    0.278465
      3          6           0       -2.924980   -0.510190   -3.341096
      4          6           0       -6.308089   -2.880638   -0.718268
      5          6           0       -5.682982    0.182311    3.071450
      6          7           0       -2.905128    0.973192   -1.328288
      7          6           0       -2.328593    2.126666   -0.959178
      8          6           0       -1.062447    2.429834   -1.826576
      9          6           0       -1.390444    1.544440   -3.065176
     10          6           0       -2.517580    0.644729   -2.577157
     11          6           0       -1.671034    2.414961   -4.273107
     12          6           0        0.288339    2.091664   -1.144619
     13          6           0        1.300605    3.284325   -0.897661
     14          6           0        2.652011    3.409822   -1.674672
     15          8           0        2.724567    3.757986   -2.822837
     16          8           0        3.735126    3.291286   -0.775611
     17          7           0       -4.802621   -1.362988   -1.948118
     18          6           0       -3.986810   -1.414062   -3.090515
     19          6           0       -4.478383   -2.506624   -3.867747
     20          6           0       -5.517869   -3.142649   -3.160219
     21          6           0       -5.595287   -2.496433   -1.886024
     22          6           0       -3.965653   -2.890763   -5.254169
     23          6           0       -6.320106   -4.277923   -3.630307
     24          8           0       -6.070344   -4.812928   -4.736292
     25          6           0       -7.359673   -4.847221   -2.870457
     26          7           0       -5.679122   -1.213441    0.986084
     27          6           0       -6.348534   -2.391089    0.610144
     28          6           0       -7.314261   -2.789930    1.754995
     29          6           0       -6.655865   -2.081706    2.969669
     30          6           0       -5.977385   -0.924291    2.276949
     31          6           0       -8.796778   -2.493948    1.488918
     32          6           0       -5.630364   -2.995293    3.655291
     33          6           0       -6.094973   -3.466795    5.096982
     34          7           0       -4.400043    1.295310    1.345637
     35          6           0       -4.843985    1.227840    2.620819
     36          6           0       -4.436070    2.386212    3.328483
     37          6           0       -3.501301    3.015259    2.492333
     38          6           0       -3.497561    2.257838    1.283301
     39          6           0       -4.848618    2.734483    4.756271
     40          6           0       -2.580660    4.156376    2.274706
     41          8           0       -2.261774    5.082170    3.034205
     42          6           0       -1.809405    3.882860    0.909080
     43          6           0       -1.916967    5.137496    0.155665
     44          8           0       -2.889319    5.396324   -0.555930
     45          8           0       -0.837516    5.984401    0.391546
     46          6           0       -0.887104    7.283101   -0.340437
     47          6           0        5.114175    3.395845   -1.286054
     48          6           0        5.913700    2.550745   -0.366436
     49          6           0        6.529770    1.305150   -0.586476
     50          6           0        6.540631    0.391014   -1.840315
     51          6           0        7.448871    0.730970    0.468305
     52          6           0        8.837337    1.442957    0.524130
     53          6           0       10.009282    0.473218    0.750353
     54          6           0       10.418020   -0.271432   -0.539410
     55          6           0       11.786020    0.223847   -1.041048
     56          6           0       10.511817   -1.791498   -0.346333
     57          6           0        9.290529   -2.517130   -1.027485
     58          6           0        9.044331   -3.913110   -0.425799
     59          6           0        8.057040   -3.843179    0.723576
     60          6           0        8.531499   -4.858019    1.867066
     61          6           0        6.647970   -4.073400    0.293620
     62          6           0        5.702612   -2.918185    0.722265
     63          6           0        4.510627   -3.360163    1.602224
     64          6           0        4.608101   -2.746272    3.045102
     65          6           0        5.018765   -3.699458    4.215922
     66          6           0        3.229630   -2.154899    3.553386
     67          1           0       -2.290424   -0.608593   -4.223568
     68          1           0       -6.892930   -3.800745   -0.782255
     69          1           0       -6.062361    0.242898    4.093933
     70          1           0       -1.110366    3.487536   -2.087587
     71          1           0       -0.586430    0.830649   -3.247307
     72          1           0       -2.750332    2.336576   -4.401073
     73          1           0       -1.116064    2.114409   -5.161250
     74          1           0       -1.409502    3.466342   -4.148460
     75          1           0        0.821639    1.437316   -1.834357
     76          1           0        0.070234    1.525457   -0.239228
     77          1           0        1.550774    3.346935    0.161136
     78          1           0        0.754134    4.185363   -1.176426
     79          1           0       -3.363350   -3.799058   -5.266608
     80          1           0       -3.097550   -2.253369   -5.417430
     81          1           0       -4.785962   -2.882782   -5.971092
     82          1           0       -7.851278   -4.017194   -2.362291
     83          1           0       -6.962488   -5.511171   -2.103269
     84          1           0       -8.176227   -5.135214   -3.532916
     85          1           0       -7.290652   -3.867627    1.914867
     86          1           0       -7.348563   -1.680257    3.710025
     87          1           0       -9.038933   -1.518371    1.909162
     88          1           0       -9.410544   -3.305932    1.878911
     89          1           0       -8.824839   -2.373457    0.406288
     90          1           0       -4.717968   -2.432539    3.852854
     91          1           0       -5.433870   -3.849521    3.007440
     92          1           0       -5.202701   -3.673476    5.688091
     93          1           0       -6.631460   -4.398928    4.922721
     94          1           0       -6.718290   -2.733172    5.609434
     95          1           0       -5.912429    2.966891    4.698679
     96          1           0       -4.367430    3.622329    5.165018
     97          1           0       -4.567679    1.871931    5.360405
     98          1           0       -0.762053    3.607258    1.028287
     99          1           0       -0.397717    8.065767    0.239613
    100          1           0       -1.881402    7.662606   -0.578541
    101          1           0       -0.303608    7.164093   -1.253607
    102          1           0        5.462035    4.426353   -1.361579
    103          1           0        5.117220    2.951082   -2.281840
    104          1           0        6.083095    2.995697    0.614540
    105          1           0        6.328739   -0.587414   -1.408004
    106          1           0        7.462394    0.527484   -2.406158
    107          1           0        5.694208    0.665645   -2.468435
    108          1           0        7.574363   -0.351599    0.451199
    109          1           0        6.964120    1.021615    1.399309
    110          1           0        8.843127    2.147120    1.356348
    111          1           0        8.984384    2.052397   -0.367567
    112          1           0        9.655384   -0.207877    1.523415
    113          1           0       10.833167    1.070441    1.141812
    114          1           0        9.786539   -0.000695   -1.385224
    115          1           0       12.050433    1.168109   -0.565325
    116          1           0       11.773775    0.461915   -2.104075
    117          1           0       12.523835   -0.550520   -0.826751
    118          1           0       10.365137   -1.989117    0.716050
    119          1           0       11.364322   -2.343826   -0.741605
    120          1           0        9.482614   -2.559194   -2.099237
    121          1           0        8.449337   -1.823460   -1.044266
    122          1           0       10.029555   -4.255834   -0.108683
    123          1           0        8.693893   -4.585770   -1.208810
    124          1           0        8.318641   -2.902573    1.208450
    125          1           0        8.956921   -4.270552    2.681148
    126          1           0        9.266970   -5.629876    1.640673
    127          1           0        7.662364   -5.373835    2.275416
    128          1           0        6.273527   -5.065399    0.546744
    129          1           0        6.578300   -4.112569   -0.792809
    130          1           0        5.245686   -2.479641   -0.164608
    131          1           0        6.269687   -2.095250    1.156816
    132          1           0        4.550892   -4.447799    1.662588
    133          1           0        3.595595   -2.940319    1.182850
    134          1           0        5.301291   -1.905917    3.007453
    135          1           0        5.833662   -3.200641    4.740702
    136          1           0        5.218322   -4.721185    3.893764
    137          1           0        4.260394   -3.828432    4.988291
    138          1           0        2.461984   -2.927107    3.599652
    139          1           0        2.804883   -1.310564    3.011445
    140          1           0        3.313640   -1.665049    4.523664
 ---------------------------------------------------------------------

 SCF Done:  E(RPBE1PBE) =  -3005.34090674     A.U. after   15 cycles

 Excitation energies and oscillator strengths:

 Excited State   1:      Singlet-A      1.8596 eV  666.72 nm  f=0.3571  <S**2>=0.000
     245 -> 248        0.17314
     246 -> 247        0.69231
     246 <- 247       -0.10860
 This state for optimization and/or second-order correction.
 Total Energy, E(TD-HF/TD-DFT) =  -3005.27256684
 Copying the excited state density for this state as the 1-particle RhoCI density.

 Excited State   2:      Singlet-A      2.2376 eV  554.09 nm  f=0.0957  <S**2>=0.000
     245 -> 247        0.63967
     246 -> 248       -0.27263

 Excited State   3:      Singlet-A      2.7021 eV  458.85 nm  f=0.0039  <S**2>=0.000
     244 -> 247        0.67172

 Excited State   4:      Singlet-A      2.8997 eV  427.57 nm  f=0.0018  <S**2>=0.000
     242 -> 247        0.67518

 Excited State   5:      Singlet-A      2.9693 eV  417.56 nm  f=0.0010  <S**2>=0.000
     240 -> 247       -0.35911
     240 -> 249        0.13315
     241 -> 247        0.57234

 The electronic state is 1-A.
 Alpha  occ. eigenvalues --  -46.92740 -19.25962 -19.24808 -19.20730 -19.19960
 Alpha  occ. eigenvalues --  -19.19678 -19.17492 -14.42154 -14.41878 -14.39222
 Alpha  occ. eigenvalues --  -14.38924 -10.36767 -10.36389 -10.33213 -10.30492
 Alpha  occ. eigenvalues --  -10.29852 -10.29258 -10.29048 -10.28855 -10.28607
 Alpha  occ. eigenvalues --  -10.28534 -10.28453 -10.27929 -10.27084 -10.26782
 Alpha  occ. eigenvalues --  -10.26383 -10.26257 -10.26172 -10.26115 -10.25907
 Alpha  occ. eigenvalues --  -10.25812 -10.25635 -10.25593 -10.25507 -10.25337
 Alpha  occ. eigenvalues --  -10.25303 -10.25202 -10.25100 -10.24573 -10.24237
 Alpha  occ. eigenvalues --  -10.23995 -10.23967 -10.23928 -10.23870 -10.23815
 Alpha  occ. eigenvalues --  -10.23677 -10.23566 -10.23563 -10.23373 -10.23306
 Alpha  occ. eigenvalues --  -10.23232 -10.23119 -10.23076 -10.22835 -10.22683
 Alpha  occ. eigenvalues --  -10.22640 -10.22586 -10.22516 -10.22429 -10.22331
 Alpha  occ. eigenvalues --  -10.22184 -10.22043 -10.21774 -10.21736 -10.21680
 Alpha  occ. eigenvalues --  -10.21674  -3.14811  -1.87631  -1.87208  -1.87013
 Alpha  occ. eigenvalues --   -1.10097  -1.09885  -1.03882  -1.03009  -1.02447
 Alpha  occ. eigenvalues --   -1.01985  -1.00157  -0.99273  -0.98205  -0.96832
 Alpha  occ. eigenvalues --   -0.86801  -0.85005  -0.84099  -0.83821  -0.83651
 Alpha  occ. eigenvalues --   -0.82948  -0.82768  -0.81957  -0.81301  -0.81223
 Alpha  occ. eigenvalues --   -0.80425  -0.79823  -0.78827  -0.78343  -0.78015
 Alpha  occ. eigenvalues --   -0.77050  -0.76838  -0.75768  -0.75255  -0.75155
 Alpha  occ. eigenvalues --   -0.74108  -0.72356  -0.72089  -0.71749  -0.70621
 Alpha  occ. eigenvalues --   -0.70145  -0.69762  -0.69277  -0.68675  -0.68421
 Alpha  occ. eigenvalues --   -0.67777  -0.66790  -0.66322  -0.64612  -0.63453
 Alpha  occ. eigenvalues --   -0.63219  -0.62638  -0.61927  -0.61305  -0.60494
 Alpha  occ. eigenvalues --   -0.60032  -0.59938  -0.59464  -0.59429  -0.58260
 Alpha  occ. eigenvalues --   -0.57876  -0.57462  -0.56924  -0.56392  -0.54911
 Alpha  occ. eigenvalues --   -0.54297  -0.54174  -0.53911  -0.53660  -0.52654
 Alpha  occ. eigenvalues --   -0.52524  -0.51257  -0.50860  -0.50528  -0.50212
 Alpha  occ. eigenvalues --   -0.50039  -0.49049  -0.48908  -0.48642  -0.48410
 Alpha  occ. eigenvalues --   -0.48284  -0.48185  -0.47983  -0.47876  -0.47549
 Alpha  occ. eigenvalues --   -0.47337  -0.47129  -0.46978  -0.46801  -0.46637
 Alpha  occ. eigenvalues --   -0.46476  -0.46423  -0.45843  -0.45781  -0.45315
 Alpha  occ. eigenvalues --   -0.45247  -0.45165  -0.44924  -0.44739  -0.44533
 Alpha  occ. eigenvalues --   -0.44308  -0.43991  -0.43898  -0.43449  -0.43396
 Alpha  occ. eigenvalues --   -0.42953  -0.42907  -0.42821  -0.42597  -0.42459
 Alpha  occ. eigenvalues --   -0.42332  -0.42030  -0.41855  -0.41603  -0.41443
 Alpha  occ. eigenvalues --   -0.41214  -0.41093  -0.40687  -0.40403  -0.40298
 Alpha  occ. eigenvalues --   -0.40272  -0.40214  -0.39954  -0.39915  -0.39809
 Alpha  occ. eigenvalues --   -0.39703  -0.39541  -0.39257  -0.39066  -0.38853
 Alpha  occ. eigenvalues --   -0.38532  -0.38093  -0.37903  -0.37808  -0.37563
 Alpha  occ. eigenvalues --   -0.37497  -0.37268  -0.37102  -0.36950  -0.36675
 Alpha  occ. eigenvalues --   -0.36510  -0.36201  -0.36030  -0.35798  -0.35687
 Alpha  occ. eigenvalues --   -0.35644  -0.35397  -0.35330  -0.35096  -0.34901
 Alpha  occ. eigenvalues --   -0.34691  -0.34512  -0.34472  -0.33902  -0.33720
 Alpha  occ. eigenvalues --   -0.33589  -0.33309  -0.32808  -0.32577  -0.32540
 Alpha  occ. eigenvalues --   -0.31914  -0.31868  -0.31561  -0.31521  -0.31458
 Alpha  occ. eigenvalues --   -0.31393  -0.30656  -0.30398  -0.30058  -0.29429
 Alpha  occ. eigenvalues --   -0.29271  -0.29099  -0.28923  -0.27292  -0.26112
 Alpha  occ. eigenvalues --   -0.25722  -0.25229  -0.25091  -0.24515  -0.21530
 Alpha  occ. eigenvalues --   -0.19199
 Alpha virt. eigenvalues --   -0.11590  -0.05878  -0.04175  -0.02458  -0.01011
 Alpha virt. eigenvalues --   -0.00766  -0.00265   0.00382   0.00786   0.02963
 Alpha virt. eigenvalues --    0.03933   0.04029   0.04711   0.05181   0.05317

 Mulliken charges:
               1
     1  Mg   0.977458
     2  C   -0.005421
     3  C   -0.061182
     4  C   -0.095636
     5  C   -0.098600
     6  N   -0.332310
     7  C    0.035006
     8  C   -0.123752
     9  C   -0.154927
    10  C    0.048176
    11  C    0.033641
    12  C    0.036267
    13  C   -0.061777
    14  C    0.230122
    15  O   -0.240131
    16  O   -0.395532
    17  N   -0.516142
    18  C    0.196244
    19  C   -0.191498
    20  C   -0.033132
    21  C    0.202353
    22  C    0.120150
    23  C   -0.006176
    24  O   -0.280570
    25  C    0.024989
    26  N   -0.453129
    27  C    0.066952
    28  C   -0.132218
    29  C   -0.132636
    30  C    0.140559
    31  C    0.054077
    32  C   -0.018182
    33  C   -0.069842
    34  N   -0.418697
    35  C    0.121734
    36  C   -0.219493
    37  C   -0.016443
    38  C    0.120020
    39  C    0.067938
    40  C    0.169452
    41  O   -0.223421
    42  C   -0.130110
    43  C    0.287596
    44  O   -0.265298
    45  O   -0.375727
    46  C    0.118935
    47  C    0.263811
    48  C   -0.126527
    49  C   -0.232068
    50  C    0.015065
    51  C   -0.038364
    52  C   -0.040824
    53  C    0.005115
    54  C   -0.222149
    55  C   -0.007115
    56  C    0.008756
    57  C   -0.104693
    58  C    0.028182
    59  C   -0.228210
    60  C   -0.024735
    61  C    0.059502
    62  C   -0.108330
    63  C    0.047369
    64  C   -0.240339
    65  C   -0.016969
    66  C   -0.064856
    67  H    0.014902
    68  H   -0.006274
    69  H    0.009181
    70  H    0.053961
    71  H    0.051299
    72  H    0.046974
    73  H    0.046442
    74  H    0.049928
    75  H    0.048429
    76  H    0.059821
    77  H    0.069134
    78  H    0.068928
    79  H    0.046072
    80  H   -0.000922
    81  H    0.080544
    82  H    0.037593
    83  H    0.087070
    84  H    0.057684
    85  H    0.030779
    86  H    0.028660
    87  H    0.041097
    88  H    0.055801
    89  H    0.038132
    90  H    0.045561
    91  H    0.046919
    92  H    0.048567
    93  H    0.042494
    94  H    0.044109
    95  H    0.056246
    96  H    0.057897
    97  H    0.060403
    98  H    0.087779
    99  H    0.061019
   100  H    0.074128
   101  H    0.053852
   102  H    0.056511
   103  H    0.035212
   104  H    0.026242
   105  H    0.068860
   106  H    0.073239
   107  H    0.036428
   108  H    0.053263
   109  H    0.044192
   110  H    0.027456
   111  H    0.031320
   112  H    0.027915
   113  H    0.030228
   114  H    0.041239
   115  H    0.022594
   116  H    0.030498
   117  H    0.037387
   118  H    0.024668
   119  H    0.042843
   120  H    0.016977
   121  H    0.011185
   122  H    0.019701
   123  H    0.022089
   124  H    0.035886
   125  H    0.026732
   126  H    0.037256
   127  H    0.024686
   128  H    0.024854
   129  H    0.018506
   130  H    0.038551
   131  H    0.049854
   132  H    0.029135
   133  H    0.030010
   134  H    0.038579
   135  H    0.037345
   136  H    0.033313
   137  H    0.031360
   138  H    0.042392
   139  H    0.023503
   140  H    0.031470
 Sum of Mulliken charges =  -0.00000

 Dipole moment (field-independent basis, Debye):
    X=              0.9253    Y=             -2.0294    Z=              2.7577  Tot=              3.5468
 Quadrupole moment (field-independent basis, Debye-Ang):
   XX=           -363.4981   YY=           -422.1471   ZZ=           -417.2544
   XY=             11.2023   XZ=            -30.4592   YZ=            -29.5110

 Normal termination of Gaussian 16 at Wed Apr 27 03:33:12 2022.
