 Gaussian 16, Revision A.03,
 Gaussian 16:  ES64L-G16RevA.03 25-Dec-2016

 --------------------------------
 #p wB97XD/Def2SVP td=(nstates=5)
 --------------------------------

 -----------------------------------------------------
 step_1051_chromophore_23 TDDFT with wB97XD functional
 -----------------------------------------------------
 Symbolic Z-matrix:
 Charge =  0 Multiplicity = 1

                         Standard orientation:
 ---------------------------------------------------------------------
 Center     Atomic      Atomic             Coordinates (Angstroms)
 Number     Number       Type             X           Y           Z
 ---------------------------------------------------------------------
      1         12           0       -4.753753    0.004332   -0.335933
      2          6           0       -2.578309    2.709141    0.278465
      3          6           0       -2.924980   -0.510190   -3.341096
      4          6           0       -6.308089   -2.880638   -0.718268
      5          6           0       -5.682982    0.182311    3.071450
      6          7           0       -2.905128    0.973192   -1.328288
      7          6           0       -2.328593    2.126666   -0.959178
      8          6           0       -1.062447    2.429834   -1.826576
      9          6           0       -1.390444    1.544440   -3.065176
     10          6           0       -2.517580    0.644729   -2.577157
     11          6           0       -1.671034    2.414961   -4.273107
     12          6           0        0.288339    2.091664   -1.144619
     13          6           0        1.300605    3.284325   -0.897661
     14          6           0        2.652011    3.409822   -1.674672
     15          8           0        2.724567    3.757986   -2.822837
     16          8           0        3.735126    3.291286   -0.775611
     17          7           0       -4.802621   -1.362988   -1.948118
     18          6           0       -3.986810   -1.414062   -3.090515
     19          6           0       -4.478383   -2.506624   -3.867747
     20          6           0       -5.517869   -3.142649   -3.160219
     21          6           0       -5.595287   -2.496433   -1.886024
     22          6           0       -3.965653   -2.890763   -5.254169
     23          6           0       -6.320106   -4.277923   -3.630307
     24          8           0       -6.070344   -4.812928   -4.736292
     25          6           0       -7.359673   -4.847221   -2.870457
     26          7           0       -5.679122   -1.213441    0.986084
     27          6           0       -6.348534   -2.391089    0.610144
     28          6           0       -7.314261   -2.789930    1.754995
     29          6           0       -6.655865   -2.081706    2.969669
     30          6           0       -5.977385   -0.924291    2.276949
     31          6           0       -8.796778   -2.493948    1.488918
     32          6           0       -5.630364   -2.995293    3.655291
     33          6           0       -6.094973   -3.466795    5.096982
     34          7           0       -4.400043    1.295310    1.345637
     35          6           0       -4.843985    1.227840    2.620819
     36          6           0       -4.436070    2.386212    3.328483
     37          6           0       -3.501301    3.015259    2.492333
     38          6           0       -3.497561    2.257838    1.283301
     39          6           0       -4.848618    2.734483    4.756271
     40          6           0       -2.580660    4.156376    2.274706
     41          8           0       -2.261774    5.082170    3.034205
     42          6           0       -1.809405    3.882860    0.909080
     43          6           0       -1.916967    5.137496    0.155665
     44          8           0       -2.889319    5.396324   -0.555930
     45          8           0       -0.837516    5.984401    0.391546
     46          6           0       -0.887104    7.283101   -0.340437
     47          6           0        5.114175    3.395845   -1.286054
     48          6           0        5.913700    2.550745   -0.366436
     49          6           0        6.529770    1.305150   -0.586476
     50          6           0        6.540631    0.391014   -1.840315
     51          6           0        7.448871    0.730970    0.468305
     52          6           0        8.837337    1.442957    0.524130
     53          6           0       10.009282    0.473218    0.750353
     54          6           0       10.418020   -0.271432   -0.539410
     55          6           0       11.786020    0.223847   -1.041048
     56          6           0       10.511817   -1.791498   -0.346333
     57          6           0        9.290529   -2.517130   -1.027485
     58          6           0        9.044331   -3.913110   -0.425799
     59          6           0        8.057040   -3.843179    0.723576
     60          6           0        8.531499   -4.858019    1.867066
     61          6           0        6.647970   -4.073400    0.293620
     62          6           0        5.702612   -2.918185    0.722265
     63          6           0        4.510627   -3.360163    1.602224
     64          6           0        4.608101   -2.746272    3.045102
     65          6           0        5.018765   -3.699458    4.215922
     66          6           0        3.229630   -2.154899    3.553386
     67          1           0       -2.290424   -0.608593   -4.223568
     68          1           0       -6.892930   -3.800745   -0.782255
     69          1           0       -6.062361    0.242898    4.093933
     70          1           0       -1.110366    3.487536   -2.087587
     71          1           0       -0.586430    0.830649   -3.247307
     72          1           0       -2.750332    2.336576   -4.401073
     73          1           0       -1.116064    2.114409   -5.161250
     74          1           0       -1.409502    3.466342   -4.148460
     75          1           0        0.821639    1.437316   -1.834357
     76          1           0        0.070234    1.525457   -0.239228
     77          1           0        1.550774    3.346935    0.161136
     78          1           0        0.754134    4.185363   -1.176426
     79          1           0       -3.363350   -3.799058   -5.266608
     80          1           0       -3.097550   -2.253369   -5.417430
     81          1           0       -4.785962   -2.882782   -5.971092
     82          1           0       -7.851278   -4.017194   -2.362291
     83          1           0       -6.962488   -5.511171   -2.103269
     84          1           0       -8.176227   -5.135214   -3.532916
     85          1           0       -7.290652   -3.867627    1.914867
     86          1           0       -7.348563   -1.680257    3.710025
     87          1           0       -9.038933   -1.518371    1.909162
     88          1           0       -9.410544   -3.305932    1.878911
     89          1           0       -8.824839   -2.373457    0.406288
     90          1           0       -4.717968   -2.432539    3.852854
     91          1           0       -5.433870   -3.849521    3.007440
     92          1           0       -5.202701   -3.673476    5.688091
     93          1           0       -6.631460   -4.398928    4.922721
     94          1           0       -6.718290   -2.733172    5.609434
     95          1           0       -5.912429    2.966891    4.698679
     96          1           0       -4.367430    3.622329    5.165018
     97          1           0       -4.567679    1.871931    5.360405
     98          1           0       -0.762053    3.607258    1.028287
     99          1           0       -0.397717    8.065767    0.239613
    100          1           0       -1.881402    7.662606   -0.578541
    101          1           0       -0.303608    7.164093   -1.253607
    102          1           0        5.462035    4.426353   -1.361579
    103          1           0        5.117220    2.951082   -2.281840
    104          1           0        6.083095    2.995697    0.614540
    105          1           0        6.328739   -0.587414   -1.408004
    106          1           0        7.462394    0.527484   -2.406158
    107          1           0        5.694208    0.665645   -2.468435
    108          1           0        7.574363   -0.351599    0.451199
    109          1           0        6.964120    1.021615    1.399309
    110          1           0        8.843127    2.147120    1.356348
    111          1           0        8.984384    2.052397   -0.367567
    112          1           0        9.655384   -0.207877    1.523415
    113          1           0       10.833167    1.070441    1.141812
    114          1           0        9.786539   -0.000695   -1.385224
    115          1           0       12.050433    1.168109   -0.565325
    116          1           0       11.773775    0.461915   -2.104075
    117          1           0       12.523835   -0.550520   -0.826751
    118          1           0       10.365137   -1.989117    0.716050
    119          1           0       11.364322   -2.343826   -0.741605
    120          1           0        9.482614   -2.559194   -2.099237
    121          1           0        8.449337   -1.823460   -1.044266
    122          1           0       10.029555   -4.255834   -0.108683
    123          1           0        8.693893   -4.585770   -1.208810
    124          1           0        8.318641   -2.902573    1.208450
    125          1           0        8.956921   -4.270552    2.681148
    126          1           0        9.266970   -5.629876    1.640673
    127          1           0        7.662364   -5.373835    2.275416
    128          1           0        6.273527   -5.065399    0.546744
    129          1           0        6.578300   -4.112569   -0.792809
    130          1           0        5.245686   -2.479641   -0.164608
    131          1           0        6.269687   -2.095250    1.156816
    132          1           0        4.550892   -4.447799    1.662588
    133          1           0        3.595595   -2.940319    1.182850
    134          1           0        5.301291   -1.905917    3.007453
    135          1           0        5.833662   -3.200641    4.740702
    136          1           0        5.218322   -4.721185    3.893764
    137          1           0        4.260394   -3.828432    4.988291
    138          1           0        2.461984   -2.927107    3.599652
    139          1           0        2.804883   -1.310564    3.011445
    140          1           0        3.313640   -1.665049    4.523664
 ---------------------------------------------------------------------

 SCF Done:  E(RwB97XD) =  -3007.85407512     A.U. after   18 cycles

 Excitation energies and oscillator strengths:

 Excited State   1:      Singlet-A      1.6419 eV  755.11 nm  f=0.3699  <S**2>=0.000
     245 -> 248        0.18530
     246 -> 247        0.68258
     245 <- 248        0.11579
 This state for optimization and/or second-order correction.
 Total Energy, E(TD-HF/TD-DFT) =  -3007.79373536
 Copying the excited state density for this state as the 1-particle RhoCI density.

 Excited State   2:      Singlet-A      2.1833 eV  567.88 nm  f=0.0977  <S**2>=0.000
     245 -> 247        0.62826
     246 -> 248       -0.30325

 Excited State   3:      Singlet-A      3.1515 eV  393.41 nm  f=0.0011  <S**2>=0.000
     244 -> 247        0.64683
     244 -> 249        0.13052
     246 -> 248       -0.15586

 Excited State   4:      Singlet-A      3.3849 eV  366.28 nm  f=0.0030  <S**2>=0.000
     241 -> 247        0.12949
     241 -> 249        0.19395
     241 -> 250       -0.14177
     242 -> 247        0.53172
     242 -> 248        0.10868
     242 -> 249        0.17165
     242 -> 250       -0.15677
     244 -> 249        0.10163
     244 -> 250       -0.12590

 Excited State   5:      Singlet-A      3.4155 eV  363.01 nm  f=0.0588  <S**2>=0.000
     240 -> 247        0.14244
     240 -> 249       -0.14182
     241 -> 247        0.51615
     242 -> 247       -0.19109
     242 -> 249        0.14125
     246 -> 248        0.28776

 The electronic state is 1-A.
 Alpha  occ. eigenvalues --  -46.95682 -19.30579 -19.29356 -19.25435 -19.24730
 Alpha  occ. eigenvalues --  -19.24517 -19.22317 -14.47415 -14.46807 -14.44193
 Alpha  occ. eigenvalues --  -14.43828 -10.43574 -10.43296 -10.40083 -10.37356
 Alpha  occ. eigenvalues --  -10.36236 -10.35790 -10.35399 -10.35369 -10.34957
 Alpha  occ. eigenvalues --  -10.34823 -10.34729 -10.34334 -10.33301 -10.32993
 Alpha  occ. eigenvalues --  -10.32864 -10.32617 -10.32585 -10.32445 -10.32325
 Alpha  occ. eigenvalues --  -10.32186 -10.32169 -10.31929 -10.31870 -10.31747
 Alpha  occ. eigenvalues --  -10.31603 -10.31494 -10.31257 -10.30780 -10.30475
 Alpha  occ. eigenvalues --  -10.30428 -10.30371 -10.30294 -10.30243 -10.30087
 Alpha  occ. eigenvalues --  -10.30076 -10.29903 -10.29836 -10.29672 -10.29644
 Alpha  occ. eigenvalues --  -10.29506 -10.29490 -10.29475 -10.29242 -10.29207
 Alpha  occ. eigenvalues --  -10.29182 -10.28938 -10.28874 -10.28788 -10.28697
 Alpha  occ. eigenvalues --  -10.28550 -10.28411 -10.28181 -10.28145 -10.28096
 Alpha  occ. eigenvalues --  -10.28088  -3.21627  -1.95194  -1.94769  -1.94575
 Alpha  occ. eigenvalues --   -1.17487  -1.17358  -1.11398  -1.10358  -1.09977
 Alpha  occ. eigenvalues --   -1.09422  -1.07467  -1.06659  -1.05560  -1.04278
 Alpha  occ. eigenvalues --   -0.94460  -0.92676  -0.91759  -0.91448  -0.91191
 Alpha  occ. eigenvalues --   -0.90565  -0.90426  -0.89574  -0.88960  -0.88773
 Alpha  occ. eigenvalues --   -0.88139  -0.87485  -0.86510  -0.85935  -0.85706
 Alpha  occ. eigenvalues --   -0.84733  -0.84489  -0.83420  -0.82878  -0.82793
 Alpha  occ. eigenvalues --   -0.81776  -0.79986  -0.79688  -0.79427  -0.78268
 Alpha  occ. eigenvalues --   -0.77818  -0.77361  -0.76954  -0.76364  -0.76089
 Alpha  occ. eigenvalues --   -0.75324  -0.74387  -0.73866  -0.72236  -0.70967
 Alpha  occ. eigenvalues --   -0.70783  -0.70267  -0.69486  -0.68956  -0.68000
 Alpha  occ. eigenvalues --   -0.67690  -0.67408  -0.66924  -0.66873  -0.65939
 Alpha  occ. eigenvalues --   -0.65526  -0.64938  -0.64549  -0.63819  -0.62350
 Alpha  occ. eigenvalues --   -0.61754  -0.61681  -0.61307  -0.61054  -0.60156
 Alpha  occ. eigenvalues --   -0.60032  -0.58697  -0.58312  -0.58058  -0.57627
 Alpha  occ. eigenvalues --   -0.57398  -0.56457  -0.56323  -0.56045  -0.55869
 Alpha  occ. eigenvalues --   -0.55821  -0.55619  -0.55311  -0.55214  -0.54908
 Alpha  occ. eigenvalues --   -0.54720  -0.54442  -0.54363  -0.54160  -0.53994
 Alpha  occ. eigenvalues --   -0.53857  -0.53812  -0.53139  -0.53120  -0.52674
 Alpha  occ. eigenvalues --   -0.52589  -0.52498  -0.52258  -0.52085  -0.51832
 Alpha  occ. eigenvalues --   -0.51600  -0.51307  -0.51160  -0.50750  -0.50694
 Alpha  occ. eigenvalues --   -0.50235  -0.50187  -0.50090  -0.49864  -0.49778
 Alpha  occ. eigenvalues --   -0.49572  -0.49361  -0.49021  -0.48854  -0.48639
 Alpha  occ. eigenvalues --   -0.48447  -0.48304  -0.47952  -0.47581  -0.47544
 Alpha  occ. eigenvalues --   -0.47505  -0.47463  -0.47201  -0.47082  -0.47073
 Alpha  occ. eigenvalues --   -0.46867  -0.46703  -0.46406  -0.46221  -0.45997
 Alpha  occ. eigenvalues --   -0.45630  -0.45185  -0.45069  -0.44959  -0.44652
 Alpha  occ. eigenvalues --   -0.44628  -0.44405  -0.44276  -0.44045  -0.43759
 Alpha  occ. eigenvalues --   -0.43698  -0.43300  -0.43136  -0.42884  -0.42777
 Alpha  occ. eigenvalues --   -0.42723  -0.42530  -0.42390  -0.42177  -0.41876
 Alpha  occ. eigenvalues --   -0.41699  -0.41598  -0.41454  -0.40966  -0.40667
 Alpha  occ. eigenvalues --   -0.40653  -0.40359  -0.39797  -0.39581  -0.39522
 Alpha  occ. eigenvalues --   -0.38925  -0.38867  -0.38653  -0.38570  -0.38425
 Alpha  occ. eigenvalues --   -0.38350  -0.37612  -0.37339  -0.36897  -0.36318
 Alpha  occ. eigenvalues --   -0.36267  -0.36172  -0.35776  -0.33871  -0.33099
 Alpha  occ. eigenvalues --   -0.32328  -0.32248  -0.31763  -0.31385  -0.26537
 Alpha  occ. eigenvalues --   -0.23353
 Alpha virt. eigenvalues --   -0.07472  -0.00455   0.02096   0.04017   0.04995
 Alpha virt. eigenvalues --    0.05875   0.06379   0.07178   0.07496   0.09715
 Alpha virt. eigenvalues --    0.10393   0.10825   0.11218   0.11843   0.11909

 Mulliken charges:
               1
     1  Mg   0.969401
     2  C    0.001144
     3  C   -0.074956
     4  C   -0.104602
     5  C   -0.125218
     6  N   -0.294654
     7  C   -0.010097
     8  C   -0.091231
     9  C   -0.123556
    10  C    0.027136
    11  C    0.041068
    12  C    0.045254
    13  C   -0.041567
    14  C    0.220779
    15  O   -0.237955
    16  O   -0.395644
    17  N   -0.486849
    18  C    0.188518
    19  C   -0.182244
    20  C   -0.024081
    21  C    0.196018
    22  C    0.131718
    23  C   -0.013103
    24  O   -0.275014
    25  C    0.040237
    26  N   -0.426400
    27  C    0.055959
    28  C   -0.104134
    29  C   -0.102638
    30  C    0.130897
    31  C    0.064049
    32  C   -0.010602
    33  C   -0.051912
    34  N   -0.379762
    35  C    0.116386
    36  C   -0.217723
    37  C   -0.010914
    38  C    0.098947
    39  C    0.078257
    40  C    0.149044
    41  O   -0.214799
    42  C   -0.082960
    43  C    0.262442
    44  O   -0.259764
    45  O   -0.374227
    46  C    0.134823
    47  C    0.277293
    48  C   -0.134881
    49  C   -0.221344
    50  C    0.038584
    51  C    0.000209
    52  C   -0.026066
    53  C    0.024204
    54  C   -0.189993
    55  C    0.004932
    56  C    0.024398
    57  C   -0.070763
    58  C    0.044514
    59  C   -0.190609
    60  C   -0.012255
    61  C    0.068948
    62  C   -0.078857
    63  C    0.060905
    64  C   -0.213804
    65  C   -0.005328
    66  C   -0.048545
    67  H    0.010731
    68  H   -0.017845
    69  H    0.004753
    70  H    0.035983
    71  H    0.040269
    72  H    0.040261
    73  H    0.042047
    74  H    0.045539
    75  H    0.039389
    76  H    0.052950
    77  H    0.064909
    78  H    0.057351
    79  H    0.042655
    80  H   -0.008294
    81  H    0.077959
    82  H    0.028387
    83  H    0.083458
    84  H    0.056691
    85  H    0.020107
    86  H    0.017540
    87  H    0.035170
    88  H    0.051949
    89  H    0.029289
    90  H    0.036803
    91  H    0.038448
    92  H    0.043172
    93  H    0.035264
    94  H    0.037802
    95  H    0.050480
    96  H    0.054790
    97  H    0.054600
    98  H    0.076418
    99  H    0.057591
   100  H    0.070513
   101  H    0.049571
   102  H    0.053718
   103  H    0.028433
   104  H    0.023311
   105  H    0.055730
   106  H    0.067947
   107  H    0.030658
   108  H    0.022102
   109  H    0.035557
   110  H    0.020878
   111  H    0.020382
   112  H    0.017749
   113  H    0.022737
   114  H    0.022220
   115  H    0.015746
   116  H    0.025559
   117  H    0.030720
   118  H    0.010143
   119  H    0.034557
   120  H    0.009137
   121  H   -0.016517
   122  H    0.009530
   123  H    0.014551
   124  H    0.015572
   125  H    0.021412
   126  H    0.032056
   127  H    0.016324
   128  H    0.016910
   129  H    0.010245
   130  H    0.029918
   131  H    0.028950
   132  H    0.018634
   133  H    0.022641
   134  H    0.027705
   135  H    0.031884
   136  H    0.027093
   137  H    0.024898
   138  H    0.035036
   139  H    0.017567
   140  H    0.024594
 Sum of Mulliken charges =  -0.00000

 Dipole moment (field-independent basis, Debye):
    X=              0.9392    Y=             -2.0360    Z=              2.5214  Tot=              3.3742
 Quadrupole moment (field-independent basis, Debye-Ang):
   XX=           -363.2407   YY=           -421.0175   ZZ=           -417.1062
   XY=             11.5653   XZ=            -29.0781   YZ=            -29.0486

 Normal termination of Gaussian 16 at Wed Apr 27 04:03:43 2022.
