 Gaussian 16, Revision A.03,
 Gaussian 16:  ES64L-G16RevA.03 25-Dec-2016

 --------------------
 #p ZINDO=(nstates=5)
 --------------------

 ------------------------------
 step_1051_chromophore_23 ZINDO
 ------------------------------
 Symbolic Z-matrix:
 Charge =  0 Multiplicity = 1

                         Standard orientation:
 ---------------------------------------------------------------------
 Center     Atomic      Atomic             Coordinates (Angstroms)
 Number     Number       Type             X           Y           Z
 ---------------------------------------------------------------------
      1         12           0       -4.753753    0.004332   -0.335933
      2          6           0       -2.578309    2.709141    0.278465
      3          6           0       -2.924980   -0.510190   -3.341096
      4          6           0       -6.308089   -2.880638   -0.718268
      5          6           0       -5.682982    0.182311    3.071450
      6          7           0       -2.905128    0.973192   -1.328288
      7          6           0       -2.328593    2.126666   -0.959178
      8          6           0       -1.062447    2.429834   -1.826576
      9          6           0       -1.390444    1.544440   -3.065176
     10          6           0       -2.517580    0.644729   -2.577157
     11          6           0       -1.671034    2.414961   -4.273107
     12          6           0        0.288339    2.091664   -1.144619
     13          6           0        1.300605    3.284325   -0.897661
     14          6           0        2.652011    3.409822   -1.674672
     15          8           0        2.724567    3.757986   -2.822837
     16          8           0        3.735126    3.291286   -0.775611
     17          7           0       -4.802621   -1.362988   -1.948118
     18          6           0       -3.986810   -1.414062   -3.090515
     19          6           0       -4.478383   -2.506624   -3.867747
     20          6           0       -5.517869   -3.142649   -3.160219
     21          6           0       -5.595287   -2.496433   -1.886024
     22          6           0       -3.965653   -2.890763   -5.254169
     23          6           0       -6.320106   -4.277923   -3.630307
     24          8           0       -6.070344   -4.812928   -4.736292
     25          6           0       -7.359673   -4.847221   -2.870457
     26          7           0       -5.679122   -1.213441    0.986084
     27          6           0       -6.348534   -2.391089    0.610144
     28          6           0       -7.314261   -2.789930    1.754995
     29          6           0       -6.655865   -2.081706    2.969669
     30          6           0       -5.977385   -0.924291    2.276949
     31          6           0       -8.796778   -2.493948    1.488918
     32          6           0       -5.630364   -2.995293    3.655291
     33          6           0       -6.094973   -3.466795    5.096982
     34          7           0       -4.400043    1.295310    1.345637
     35          6           0       -4.843985    1.227840    2.620819
     36          6           0       -4.436070    2.386212    3.328483
     37          6           0       -3.501301    3.015259    2.492333
     38          6           0       -3.497561    2.257838    1.283301
     39          6           0       -4.848618    2.734483    4.756271
     40          6           0       -2.580660    4.156376    2.274706
     41          8           0       -2.261774    5.082170    3.034205
     42          6           0       -1.809405    3.882860    0.909080
     43          6           0       -1.916967    5.137496    0.155665
     44          8           0       -2.889319    5.396324   -0.555930
     45          8           0       -0.837516    5.984401    0.391546
     46          6           0       -0.887104    7.283101   -0.340437
     47          6           0        5.114175    3.395845   -1.286054
     48          6           0        5.913700    2.550745   -0.366436
     49          6           0        6.529770    1.305150   -0.586476
     50          6           0        6.540631    0.391014   -1.840315
     51          6           0        7.448871    0.730970    0.468305
     52          6           0        8.837337    1.442957    0.524130
     53          6           0       10.009282    0.473218    0.750353
     54          6           0       10.418020   -0.271432   -0.539410
     55          6           0       11.786020    0.223847   -1.041048
     56          6           0       10.511817   -1.791498   -0.346333
     57          6           0        9.290529   -2.517130   -1.027485
     58          6           0        9.044331   -3.913110   -0.425799
     59          6           0        8.057040   -3.843179    0.723576
     60          6           0        8.531499   -4.858019    1.867066
     61          6           0        6.647970   -4.073400    0.293620
     62          6           0        5.702612   -2.918185    0.722265
     63          6           0        4.510627   -3.360163    1.602224
     64          6           0        4.608101   -2.746272    3.045102
     65          6           0        5.018765   -3.699458    4.215922
     66          6           0        3.229630   -2.154899    3.553386
     67          1           0       -2.290424   -0.608593   -4.223568
     68          1           0       -6.892930   -3.800745   -0.782255
     69          1           0       -6.062361    0.242898    4.093933
     70          1           0       -1.110366    3.487536   -2.087587
     71          1           0       -0.586430    0.830649   -3.247307
     72          1           0       -2.750332    2.336576   -4.401073
     73          1           0       -1.116064    2.114409   -5.161250
     74          1           0       -1.409502    3.466342   -4.148460
     75          1           0        0.821639    1.437316   -1.834357
     76          1           0        0.070234    1.525457   -0.239228
     77          1           0        1.550774    3.346935    0.161136
     78          1           0        0.754134    4.185363   -1.176426
     79          1           0       -3.363350   -3.799058   -5.266608
     80          1           0       -3.097550   -2.253369   -5.417430
     81          1           0       -4.785962   -2.882782   -5.971092
     82          1           0       -7.851278   -4.017194   -2.362291
     83          1           0       -6.962488   -5.511171   -2.103269
     84          1           0       -8.176227   -5.135214   -3.532916
     85          1           0       -7.290652   -3.867627    1.914867
     86          1           0       -7.348563   -1.680257    3.710025
     87          1           0       -9.038933   -1.518371    1.909162
     88          1           0       -9.410544   -3.305932    1.878911
     89          1           0       -8.824839   -2.373457    0.406288
     90          1           0       -4.717968   -2.432539    3.852854
     91          1           0       -5.433870   -3.849521    3.007440
     92          1           0       -5.202701   -3.673476    5.688091
     93          1           0       -6.631460   -4.398928    4.922721
     94          1           0       -6.718290   -2.733172    5.609434
     95          1           0       -5.912429    2.966891    4.698679
     96          1           0       -4.367430    3.622329    5.165018
     97          1           0       -4.567679    1.871931    5.360405
     98          1           0       -0.762053    3.607258    1.028287
     99          1           0       -0.397717    8.065767    0.239613
    100          1           0       -1.881402    7.662606   -0.578541
    101          1           0       -0.303608    7.164093   -1.253607
    102          1           0        5.462035    4.426353   -1.361579
    103          1           0        5.117220    2.951082   -2.281840
    104          1           0        6.083095    2.995697    0.614540
    105          1           0        6.328739   -0.587414   -1.408004
    106          1           0        7.462394    0.527484   -2.406158
    107          1           0        5.694208    0.665645   -2.468435
    108          1           0        7.574363   -0.351599    0.451199
    109          1           0        6.964120    1.021615    1.399309
    110          1           0        8.843127    2.147120    1.356348
    111          1           0        8.984384    2.052397   -0.367567
    112          1           0        9.655384   -0.207877    1.523415
    113          1           0       10.833167    1.070441    1.141812
    114          1           0        9.786539   -0.000695   -1.385224
    115          1           0       12.050433    1.168109   -0.565325
    116          1           0       11.773775    0.461915   -2.104075
    117          1           0       12.523835   -0.550520   -0.826751
    118          1           0       10.365137   -1.989117    0.716050
    119          1           0       11.364322   -2.343826   -0.741605
    120          1           0        9.482614   -2.559194   -2.099237
    121          1           0        8.449337   -1.823460   -1.044266
    122          1           0       10.029555   -4.255834   -0.108683
    123          1           0        8.693893   -4.585770   -1.208810
    124          1           0        8.318641   -2.902573    1.208450
    125          1           0        8.956921   -4.270552    2.681148
    126          1           0        9.266970   -5.629876    1.640673
    127          1           0        7.662364   -5.373835    2.275416
    128          1           0        6.273527   -5.065399    0.546744
    129          1           0        6.578300   -4.112569   -0.792809
    130          1           0        5.245686   -2.479641   -0.164608
    131          1           0        6.269687   -2.095250    1.156816
    132          1           0        4.550892   -4.447799    1.662588
    133          1           0        3.595595   -2.940319    1.182850
    134          1           0        5.301291   -1.905917    3.007453
    135          1           0        5.833662   -3.200641    4.740702
    136          1           0        5.218322   -4.721185    3.893764
    137          1           0        4.260394   -3.828432    4.988291
    138          1           0        2.461984   -2.927107    3.599652
    139          1           0        2.804883   -1.310564    3.011445
    140          1           0        3.313640   -1.665049    4.523664
 ---------------------------------------------------------------------

 SCF Done:  E(RZINDO/S) =  -474.260361426     A.U. after   19 cycles

 Excitation energies and oscillator strengths:

 Excited State   1:      Singlet-A      1.2358 eV 1003.27 nm  f=0.5975  <S**2>=0.000
     175 ->178        -0.19010
     176 ->177         0.66192
 This state for optimization and/or second-order correction.
 Total Energy, E(CIS/TDA) =  -474.214946583
 Copying the excited state density for this state as the 1-particle RhoCI density.

 Excited State   2:      Singlet-A      1.9030 eV  651.53 nm  f=0.0225  <S**2>=0.000
     175 ->177         0.52465
     176 ->178         0.44739

 Excited State   3:      Singlet-A      2.8191 eV  439.81 nm  f=0.0172  <S**2>=0.000
     169 ->177         0.18740
     169 ->178        -0.12451
     169 ->179        -0.23332
     169 ->180         0.21641
     169 ->186        -0.16799
     170 ->177         0.18879
     170 ->178        -0.12322
     170 ->179        -0.23515
     170 ->180         0.21738
     170 ->186        -0.16312
     171 ->177         0.17531
     171 ->179        -0.10884

 Excited State   4:      Singlet-A      2.9232 eV  424.15 nm  f=0.4367  <S**2>=0.000
     168 ->177         0.11700
     168 ->179         0.15127
     168 ->180         0.11653
     173 ->177         0.11927
     175 ->177         0.27673
     176 ->178        -0.33819
     176 ->179         0.40643
     176 ->180         0.10859

 Excited State   5:      Singlet-A      2.9702 eV  417.42 nm  f=0.5285  <S**2>=0.000
     168 ->177         0.16066
     168 ->179         0.20059
     168 ->180         0.16262
     171 ->177         0.11030
     175 ->177        -0.27576
     176 ->178         0.36495
     176 ->179         0.32525

 The electronic state is 1-A.
 Alpha  occ. eigenvalues --   -1.85862  -1.82211  -1.80930  -1.73306  -1.71006
 Alpha  occ. eigenvalues --   -1.69759  -1.67707  -1.60626  -1.60551  -1.56753
 Alpha  occ. eigenvalues --   -1.54393  -1.51387  -1.48515  -1.47972  -1.46524
 Alpha  occ. eigenvalues --   -1.44263  -1.42909  -1.40416  -1.38498  -1.38448
 Alpha  occ. eigenvalues --   -1.35658  -1.33640  -1.32802  -1.31139  -1.28917
 Alpha  occ. eigenvalues --   -1.28788  -1.27860  -1.23203  -1.21782  -1.18126
 Alpha  occ. eigenvalues --   -1.16996  -1.15488  -1.15094  -1.13576  -1.13268
 Alpha  occ. eigenvalues --   -1.13010  -1.10594  -1.10348  -1.05718  -1.03623
 Alpha  occ. eigenvalues --   -1.02191  -1.01008  -0.98716  -0.98358  -0.96503
 Alpha  occ. eigenvalues --   -0.96100  -0.95169  -0.94215  -0.93819  -0.92642
 Alpha  occ. eigenvalues --   -0.92131  -0.90477  -0.88675  -0.88185  -0.87292
 Alpha  occ. eigenvalues --   -0.85949  -0.84141  -0.82964  -0.82176  -0.80134
 Alpha  occ. eigenvalues --   -0.80047  -0.78806  -0.77147  -0.76626  -0.76298
 Alpha  occ. eigenvalues --   -0.75628  -0.75398  -0.75162  -0.74152  -0.73626
 Alpha  occ. eigenvalues --   -0.72788  -0.72585  -0.71702  -0.71181  -0.70920
 Alpha  occ. eigenvalues --   -0.70128  -0.69749  -0.69643  -0.68992  -0.68413
 Alpha  occ. eigenvalues --   -0.68226  -0.67922  -0.67601  -0.66676  -0.66061
 Alpha  occ. eigenvalues --   -0.65561  -0.65229  -0.64466  -0.64433  -0.64105
 Alpha  occ. eigenvalues --   -0.63563  -0.63451  -0.63269  -0.63091  -0.62506
 Alpha  occ. eigenvalues --   -0.61919  -0.61695  -0.60860  -0.60573  -0.60189
 Alpha  occ. eigenvalues --   -0.60004  -0.58886  -0.58806  -0.58607  -0.58365
 Alpha  occ. eigenvalues --   -0.58118  -0.57674  -0.57394  -0.56661  -0.55983
 Alpha  occ. eigenvalues --   -0.55865  -0.55621  -0.55277  -0.55024  -0.54735
 Alpha  occ. eigenvalues --   -0.54463  -0.54142  -0.53541  -0.53444  -0.53236
 Alpha  occ. eigenvalues --   -0.52936  -0.52632  -0.52181  -0.52156  -0.51928
 Alpha  occ. eigenvalues --   -0.51647  -0.51005  -0.50669  -0.50214  -0.49929
 Alpha  occ. eigenvalues --   -0.49773  -0.49645  -0.49167  -0.48847  -0.48449
 Alpha  occ. eigenvalues --   -0.48431  -0.48263  -0.47969  -0.47738  -0.47510
 Alpha  occ. eigenvalues --   -0.47308  -0.47198  -0.47086  -0.46689  -0.46521
 Alpha  occ. eigenvalues --   -0.46262  -0.45589  -0.45517  -0.45433  -0.45291
 Alpha  occ. eigenvalues --   -0.45021  -0.44698  -0.44559  -0.44116  -0.44000
 Alpha  occ. eigenvalues --   -0.43699  -0.43551  -0.43336  -0.42513  -0.42265
 Alpha  occ. eigenvalues --   -0.42048  -0.42006  -0.41556  -0.39474  -0.38955
 Alpha  occ. eigenvalues --   -0.38363  -0.37507  -0.35464  -0.35120  -0.34905
 Alpha  occ. eigenvalues --   -0.32979  -0.32813  -0.32390  -0.31566  -0.27065
 Alpha  occ. eigenvalues --   -0.21951
 Alpha virt. eigenvalues --   -0.08752  -0.02710  -0.00940   0.00897   0.01140
 Alpha virt. eigenvalues --    0.01677   0.02571   0.02775   0.03691   0.04384
 Alpha virt. eigenvalues --    0.05627   0.07188   0.07494   0.07724   0.07974

 Mulliken charges:
               1
     1  Mg   0.428489
     2  C   -0.026423
     3  C   -0.060350
     4  C   -0.097659
     5  C   -0.092338
     6  N   -0.253438
     7  C    0.097189
     8  C   -0.001358
     9  C    0.010292
    10  C    0.136545
    11  C   -0.047015
    12  C   -0.020609
    13  C   -0.002714
    14  C    0.463144
    15  O   -0.493691
    16  O   -0.283047
    17  N   -0.348773
    18  C    0.106618
    19  C    0.058093
    20  C   -0.043276
    21  C    0.150347
    22  C   -0.045913
    23  C    0.335602
    24  O   -0.558378
    25  C   -0.025831
    26  N   -0.286580
    27  C    0.133855
    28  C    0.010124
    29  C   -0.000449
    30  C    0.133432
    31  C   -0.051171
    32  C   -0.030763
    33  C   -0.063290
    34  N   -0.308298
    35  C    0.100622
    36  C    0.017430
    37  C   -0.058065
    38  C    0.102297
    39  C   -0.042481
    40  C    0.335401
    41  O   -0.515978
    42  C    0.055636
    43  C    0.491205
    44  O   -0.532286
    45  O   -0.267611
    46  C    0.074723
    47  C    0.114753
    48  C   -0.095790
    49  C   -0.009379
    50  C   -0.045682
    51  C   -0.027543
    52  C   -0.031808
    53  C   -0.030250
    54  C   -0.009344
    55  C   -0.063531
    56  C   -0.039169
    57  C   -0.051835
    58  C   -0.028258
    59  C   -0.003737
    60  C   -0.071578
    61  C   -0.021203
    62  C   -0.041409
    63  C   -0.033125
    64  C   -0.016326
    65  C   -0.057763
    66  C   -0.062276
    67  H    0.033542
    68  H    0.021173
    69  H    0.032488
    70  H    0.037810
    71  H    0.029732
    72  H    0.024541
    73  H    0.021512
    74  H    0.027148
    75  H    0.023387
    76  H    0.030708
    77  H    0.033875
    78  H    0.043212
    79  H    0.039468
    80  H    0.013874
    81  H    0.057543
    82  H    0.016136
    83  H    0.058911
    84  H    0.045390
    85  H    0.017866
    86  H    0.027586
    87  H    0.025071
    88  H    0.030128
    89  H    0.024997
    90  H    0.021647
    91  H    0.027556
    92  H    0.019514
    93  H    0.018031
    94  H    0.027559
    95  H    0.032453
    96  H    0.030880
    97  H    0.030908
    98  H    0.057961
    99  H    0.034188
   100  H    0.055132
   101  H    0.034409
   102  H    0.052354
   103  H    0.041058
   104  H    0.028998
   105  H    0.034727
   106  H    0.042644
   107  H    0.018039
   108  H    0.030240
   109  H    0.017006
   110  H    0.012998
   111  H    0.020190
   112  H    0.019244
   113  H    0.020011
   114  H    0.025515
   115  H    0.014279
   116  H    0.014720
   117  H    0.021361
   118  H    0.018994
   119  H    0.030299
   120  H    0.005232
   121  H    0.016876
   122  H    0.016358
   123  H    0.015750
   124  H    0.027254
   125  H    0.011800
   126  H    0.024216
   127  H    0.011742
   128  H    0.025682
   129  H    0.010086
   130  H    0.009610
   131  H    0.025507
   132  H    0.029483
   133  H    0.024219
   134  H    0.023052
   135  H    0.019032
   136  H    0.021189
   137  H    0.017026
   138  H    0.019331
   139  H    0.007018
   140  H    0.012515
 Sum of Mulliken charges =  -0.00000

 Dipole moment (field-independent basis, Debye):
    X=              1.0526    Y=             -4.5200    Z=              2.9429  Tot=              5.4954
 N-N= 4.518741149451D+03 E-N= 0.000000000000D+00  KE=-9.711310048699D+03
 Leave Link  601 at Wed Apr 27 04:17:21 2022, MaxMem=  6710886400 cpu:               0.7 elap:               0.0
 (Enter /sw/apps/gaussian-16.0/g16/l9999.exe)
 1\1\GINC-BP1-COMPUTE165\SP\RZINDO CIS\STO-3G\C55H74Mg1N4O6\OF15641\27-
 Apr-2022\0\\#p ZINDO=(nstates=5)\\step_1051_chromophore_23 ZINDO\\0,1\
 Mg,0,-10.983,41.282,41.744\C,0,-9.463,38.309,40.614\C,0,-8.43,43.011,3
 9.974\C,0,-12.64,44.095,42.22\C,0,-13.829,39.339,42.538\N,0,-9.215,40.
 673,40.386\C,0,-8.736,39.43,40.229\C,0,-7.574,39.399,39.182\C,0,-7.151
 ,40.897,39.234\C,0,-8.306,41.573,39.96\C,0,-5.772,41.032,39.847\C,0,-7
 .984,38.904,37.771\C,0,-7.282,37.594,37.224\C,0,-6.27,37.622,36.032\O,

 Normal termination of Gaussian 16 at Wed Apr 27 04:17:22 2022.
