 Gaussian 16, Revision A.03,
 Gaussian 16:  ES64L-G16RevA.03 25-Dec-2016

 ------------------------------
 #p blyp/Def2SVP td=(nstates=5)
 ------------------------------

 --------------------------------------------------
 step_1201_chromophore_8 TDDFT with blyp functional
 --------------------------------------------------
 Symbolic Z-matrix:
 Charge =  0 Multiplicity = 1

                         Standard orientation:
 ---------------------------------------------------------------------
 Center     Atomic      Atomic             Coordinates (Angstroms)
 Number     Number       Type             X           Y           Z
 ---------------------------------------------------------------------
      1         12           0       -4.402011    1.001058   -0.223984
      2          6           0       -3.482223   -2.376654   -0.951108
      3          6           0       -4.349770    0.145079    3.088716
      4          6           0       -4.668110    4.239331    0.532078
      5          6           0       -3.777425    1.758306   -3.514712
      6          7           0       -3.972003   -0.971984    0.928346
      7          6           0       -3.680302   -2.219640    0.420898
      8          6           0       -3.462149   -3.238143    1.537237
      9          6           0       -4.076335   -2.424908    2.798497
     10          6           0       -4.154704   -0.950428    2.281925
     11          6           0       -5.483040   -2.880557    3.111821
     12          6           0       -1.977609   -3.574924    1.777723
     13          6           0       -1.616094   -5.021295    1.567146
     14          6           0       -0.224233   -5.370067    0.893426
     15          8           0       -0.073952   -5.944771   -0.147141
     16          8           0        0.774759   -4.876621    1.678859
     17          7           0       -4.420631    2.102476    1.621713
     18          6           0       -4.468666    1.530809    2.830887
     19          6           0       -4.531006    2.620213    3.854524
     20          6           0       -4.602547    3.860993    3.162325
     21          6           0       -4.642277    3.457652    1.734945
     22          6           0       -4.735583    2.366157    5.300012
     23          6           0       -4.760366    5.264154    3.830979
     24          8           0       -4.680018    5.460267    5.034571
     25          6           0       -5.046852    6.485653    2.944667
     26          7           0       -4.173500    2.713199   -1.315178
     27          6           0       -4.533246    3.912785   -0.835031
     28          6           0       -4.797354    4.948220   -1.912906
     29          6           0       -4.122246    4.227743   -3.143222
     30          6           0       -4.079972    2.794165   -2.641452
     31          6           0       -6.163304    5.545416   -1.980150
     32          6           0       -2.694147    4.796896   -3.533130
     33          6           0       -2.721143    5.964378   -4.524360
     34          7           0       -3.887414   -0.069528   -1.970796
     35          6           0       -3.636610    0.425056   -3.196522
     36          6           0       -3.310839   -0.680091   -4.036363
     37          6           0       -3.264852   -1.844658   -3.249393
     38          6           0       -3.583951   -1.354586   -1.914864
     39          6           0       -2.798358   -0.751743   -5.451943
     40          6           0       -2.967111   -3.202324   -3.171794
     41          8           0       -2.567055   -3.955315   -4.031984
     42          6           0       -3.366217   -3.669977   -1.729896
     43          6           0       -4.733252   -4.321454   -1.766674
     44          8           0       -5.651008   -3.984065   -2.513914
     45          8           0       -4.791137   -5.290044   -0.743211
     46          6           0       -6.046756   -6.078232   -0.830560
     47          6           0        2.211790   -5.120604    1.271116
     48          6           0        2.840806   -3.773851    1.046491
     49          6           0        4.012758   -3.455736    0.532578
     50          6           0        5.092131   -4.486017    0.240708
     51          6           0        4.458716   -2.013132    0.322219
     52          6           0        5.570377   -1.675314    1.269093
     53          6           0        5.470269   -0.211399    1.698366
     54          6           0        6.731002    0.048335    2.559048
     55          6           0        6.356728    0.106891    4.078518
     56          6           0        7.358838    1.450112    2.189382
     57          6           0        8.163871    1.307855    0.868947
     58          6           0        7.885521    2.353218   -0.154867
     59          6           0        9.090176    3.252507   -0.513030
     60          6           0        8.574991    4.538735   -1.132567
     61          6           0       10.013791    2.638914   -1.700723
     62          6           0       11.414782    2.292504   -1.241343
     63          6           0       11.701617    0.772359   -1.194974
     64          6           0       13.120460    0.510796   -0.651468
     65          6           0       13.200192   -0.868377   -0.019153
     66          6           0       14.265992    0.643545   -1.757121
     67          1           0       -4.204829   -0.156395    4.127639
     68          1           0       -5.051272    5.229775    0.787494
     69          1           0       -3.680066    2.004585   -4.573670
     70          1           0       -4.116067   -4.109339    1.490357
     71          1           0       -3.542869   -2.432079    3.749848
     72          1           0       -6.234139   -2.145414    2.823041
     73          1           0       -5.464660   -2.987379    4.196896
     74          1           0       -5.798238   -3.817420    2.652520
     75          1           0       -1.592039   -3.369172    2.775389
     76          1           0       -1.367029   -2.963287    1.113474
     77          1           0       -2.485845   -5.356760    1.002840
     78          1           0       -1.536863   -5.478453    2.553975
     79          1           0       -4.884582    1.294263    5.425931
     80          1           0       -5.554884    2.914106    5.764695
     81          1           0       -3.758869    2.654795    5.688707
     82          1           0       -5.988358    6.347768    2.412630
     83          1           0       -4.277168    6.736924    2.215632
     84          1           0       -5.142482    7.358157    3.589938
     85          1           0       -4.158312    5.830460   -1.873009
     86          1           0       -4.796894    4.287845   -3.996801
     87          1           0       -6.863043    4.967701   -1.377065
     88          1           0       -6.589154    5.385783   -2.971443
     89          1           0       -6.101777    6.618217   -1.795990
     90          1           0       -2.015611    4.048135   -3.943342
     91          1           0       -2.182464    5.053488   -2.605433
     92          1           0       -3.152356    5.589835   -5.453146
     93          1           0       -1.840414    6.549621   -4.789364
     94          1           0       -3.499732    6.677801   -4.255620
     95          1           0       -1.802604   -1.194908   -5.435118
     96          1           0       -2.755009    0.221990   -5.939088
     97          1           0       -3.497076   -1.341790   -6.045414
     98          1           0       -2.678335   -4.330449   -1.200382
     99          1           0       -6.110379   -6.713022   -1.714971
    100          1           0       -6.885840   -5.383636   -0.855686
    101          1           0       -6.085666   -6.706955    0.058428
    102          1           0        2.365144   -5.707310    0.365413
    103          1           0        2.672589   -5.664361    2.096057
    104          1           0        2.154700   -2.947166    1.227160
    105          1           0        4.818923   -5.526842    0.066864
    106          1           0        5.638258   -4.647546    1.169580
    107          1           0        5.819415   -4.085225   -0.466283
    108          1           0        3.605941   -1.345980    0.453277
    109          1           0        4.888177   -2.019723   -0.679279
    110          1           0        6.561303   -1.836192    0.844432
    111          1           0        5.507863   -2.342779    2.129048
    112          1           0        4.659569   -0.080857    2.414884
    113          1           0        5.370003    0.478330    0.859509
    114          1           0        7.388636   -0.820277    2.561187
    115          1           0        7.132202    0.678217    4.589139
    116          1           0        6.366243   -0.880633    4.539504
    117          1           0        5.405300    0.591423    4.295330
    118          1           0        8.100154    1.615832    2.971368
    119          1           0        6.514300    2.138543    2.178157
    120          1           0        8.056472    0.281424    0.519018
    121          1           0        9.225915    1.319756    1.113373
    122          1           0        6.978425    2.862728    0.169405
    123          1           0        7.525065    1.741306   -0.982245
    124          1           0        9.556864    3.482837    0.444927
    125          1           0        8.601790    5.410664   -0.478353
    126          1           0        7.529980    4.490512   -1.438642
    127          1           0        9.053714    4.883099   -2.048875
    128          1           0       10.098546    3.256627   -2.594516
    129          1           0        9.364244    1.795596   -1.933366
    130          1           0       11.646265    2.746091   -0.277325
    131          1           0       11.977648    2.720336   -2.070569
    132          1           0       11.529419    0.301998   -2.163452
    133          1           0       10.990870    0.288269   -0.526634
    134          1           0       13.373168    1.198158    0.155866
    135          1           0       12.215624   -1.334709   -0.000489
    136          1           0       13.397336   -0.768221    1.048520
    137          1           0       14.016180   -1.474181   -0.413894
    138          1           0       15.050013    1.291699   -1.365754
    139          1           0       13.799542    1.014108   -2.669501
    140          1           0       14.788428   -0.265778   -2.054632
 ---------------------------------------------------------------------

 SCF Done:  E(RB-LYP) =  -3007.35472723     A.U. after   20 cycles

 Excitation energies and oscillator strengths:

 Excited State   1:      Singlet-A      1.7939 eV  691.16 nm  f=0.0205  <S**2>=0.000
     244 -> 247       -0.48381
     245 -> 247        0.50530
 This state for optimization and/or second-order correction.
 Total Energy, E(TD-HF/TD-DFT) =  -3007.28880387
 Copying the excited state density for this state as the 1-particle RhoCI density.

 Excited State   2:      Singlet-A      1.8774 eV  660.41 nm  f=0.2953  <S**2>=0.000
     245 -> 248       -0.19704
     246 -> 247        0.68152
     246 <- 247       -0.14069

 Excited State   3:      Singlet-A      2.0998 eV  590.46 nm  f=0.0613  <S**2>=0.000
     244 -> 247        0.49110
     245 -> 247        0.42640
     246 -> 248        0.24445

 Excited State   4:      Singlet-A      2.1412 eV  579.04 nm  f=0.0009  <S**2>=0.000
     243 -> 247        0.70438

 Excited State   5:      Singlet-A      2.3431 eV  529.15 nm  f=0.0000  <S**2>=0.000
     242 -> 247        0.70709

 The electronic state is 1-A.
 Alpha  occ. eigenvalues --  -46.28171 -18.82835 -18.81941 -18.77702 -18.76461
 Alpha  occ. eigenvalues --  -18.76293 -18.74711 -14.03541 -14.03156 -14.01411
 Alpha  occ. eigenvalues --  -14.00777 -10.04482 -10.03756 -10.00788  -9.98450
 Alpha  occ. eigenvalues --   -9.98254  -9.97889  -9.96815  -9.96704  -9.96382
 Alpha  occ. eigenvalues --   -9.96340  -9.96151  -9.95827  -9.94961  -9.94413
 Alpha  occ. eigenvalues --   -9.94269  -9.94098  -9.93902  -9.93887  -9.93658
 Alpha  occ. eigenvalues --   -9.93633  -9.93465  -9.93441  -9.93186  -9.92975
 Alpha  occ. eigenvalues --   -9.92829  -9.92823  -9.92778  -9.92773  -9.92582
 Alpha  occ. eigenvalues --   -9.92406  -9.92360  -9.92282  -9.92226  -9.92137
 Alpha  occ. eigenvalues --   -9.92111  -9.92089  -9.91861  -9.91779  -9.91655
 Alpha  occ. eigenvalues --   -9.91641  -9.91608  -9.91360  -9.91200  -9.91192
 Alpha  occ. eigenvalues --   -9.91121  -9.91003  -9.90865  -9.90863  -9.90802
 Alpha  occ. eigenvalues --   -9.90552  -9.90545  -9.90505  -9.90151  -9.90028
 Alpha  occ. eigenvalues --   -9.89991  -2.92709  -1.73126  -1.72585  -1.72430
 Alpha  occ. eigenvalues --   -0.97391  -0.96948  -0.91962  -0.91115  -0.89962
 Alpha  occ. eigenvalues --   -0.89949  -0.88164  -0.86933  -0.85811  -0.84899
 Alpha  occ. eigenvalues --   -0.75925  -0.74288  -0.73142  -0.72838  -0.72703
 Alpha  occ. eigenvalues --   -0.72116  -0.72019  -0.71267  -0.70950  -0.70056
 Alpha  occ. eigenvalues --   -0.69740  -0.69295  -0.68483  -0.68230  -0.67364
 Alpha  occ. eigenvalues --   -0.66838  -0.65864  -0.65273  -0.64888  -0.64617
 Alpha  occ. eigenvalues --   -0.64212  -0.62718  -0.62034  -0.61798  -0.60656
 Alpha  occ. eigenvalues --   -0.60509  -0.59972  -0.59747  -0.59151  -0.58799
 Alpha  occ. eigenvalues --   -0.58210  -0.57612  -0.56765  -0.55169  -0.54708
 Alpha  occ. eigenvalues --   -0.54277  -0.53209  -0.52699  -0.52149  -0.52018
 Alpha  occ. eigenvalues --   -0.51548  -0.51108  -0.51033  -0.50624  -0.49932
 Alpha  occ. eigenvalues --   -0.49768  -0.49252  -0.49038  -0.48740  -0.47131
 Alpha  occ. eigenvalues --   -0.46381  -0.46142  -0.45750  -0.45659  -0.44409
 Alpha  occ. eigenvalues --   -0.44261  -0.43251  -0.42875  -0.42777  -0.42538
 Alpha  occ. eigenvalues --   -0.42396  -0.41801  -0.41698  -0.41618  -0.41554
 Alpha  occ. eigenvalues --   -0.41286  -0.40618  -0.40564  -0.40236  -0.39986
 Alpha  occ. eigenvalues --   -0.39780  -0.39485  -0.39240  -0.39168  -0.39040
 Alpha  occ. eigenvalues --   -0.38993  -0.38788  -0.38503  -0.38445  -0.38288
 Alpha  occ. eigenvalues --   -0.37960  -0.37946  -0.37807  -0.37668  -0.37354
 Alpha  occ. eigenvalues --   -0.37201  -0.36900  -0.36725  -0.36633  -0.36558
 Alpha  occ. eigenvalues --   -0.36334  -0.36120  -0.36040  -0.35663  -0.35535
 Alpha  occ. eigenvalues --   -0.35299  -0.35190  -0.34997  -0.34966  -0.34834
 Alpha  occ. eigenvalues --   -0.34516  -0.34472  -0.34293  -0.34194  -0.34078
 Alpha  occ. eigenvalues --   -0.33578  -0.33505  -0.33468  -0.33357  -0.33125
 Alpha  occ. eigenvalues --   -0.32911  -0.32829  -0.32585  -0.32342  -0.32216
 Alpha  occ. eigenvalues --   -0.32066  -0.31807  -0.31728  -0.31524  -0.31323
 Alpha  occ. eigenvalues --   -0.31197  -0.31099  -0.30896  -0.30876  -0.30537
 Alpha  occ. eigenvalues --   -0.30357  -0.30349  -0.30285  -0.30266  -0.29986
 Alpha  occ. eigenvalues --   -0.29745  -0.29564  -0.29242  -0.29228  -0.29114
 Alpha  occ. eigenvalues --   -0.29022  -0.28732  -0.28353  -0.27886  -0.27650
 Alpha  occ. eigenvalues --   -0.27589  -0.27371  -0.27165  -0.26784  -0.26563
 Alpha  occ. eigenvalues --   -0.26133  -0.26048  -0.25765  -0.25563  -0.25446
 Alpha  occ. eigenvalues --   -0.25156  -0.24670  -0.24022  -0.24017  -0.23287
 Alpha  occ. eigenvalues --   -0.23228  -0.23220  -0.21956  -0.21272  -0.20723
 Alpha  occ. eigenvalues --   -0.20289  -0.20069  -0.19262  -0.18278  -0.17143
 Alpha  occ. eigenvalues --   -0.15997
 Alpha virt. eigenvalues --   -0.11459  -0.07032  -0.06055  -0.04590  -0.03534
 Alpha virt. eigenvalues --   -0.03226  -0.01638  -0.01249  -0.00532   0.00039
 Alpha virt. eigenvalues --    0.01307   0.01593   0.02241   0.02521   0.02636

 Mulliken charges:
               1
     1  Mg   0.684418
     2  C   -0.057069
     3  C   -0.047088
     4  C   -0.045302
     5  C   -0.110700
     6  N   -0.196544
     7  C   -0.090531
     8  C    0.061637
     9  C   -0.068016
    10  C   -0.006120
    11  C    0.128741
    12  C    0.140048
    13  C    0.091725
    14  C    0.069003
    15  O   -0.151306
    16  O   -0.291915
    17  N   -0.262251
    18  C    0.144153
    19  C   -0.169756
    20  C    0.034218
    21  C    0.055731
    22  C    0.195361
    23  C   -0.056196
    24  O   -0.152838
    25  C    0.107141
    26  N   -0.217374
    27  C    0.056253
    28  C   -0.009688
    29  C    0.007941
    30  C    0.045188
    31  C    0.177107
    32  C    0.110702
    33  C    0.080467
    34  N   -0.207473
    35  C    0.151719
    36  C   -0.186341
    37  C    0.136982
    38  C    0.076245
    39  C    0.174506
    40  C   -0.076582
    41  O   -0.118224
    42  C    0.083114
    43  C    0.151227
    44  O   -0.179705
    45  O   -0.294990
    46  C    0.224368
    47  C    0.323509
    48  C   -0.141257
    49  C   -0.147504
    50  C    0.142883
    51  C    0.221382
    52  C    0.006200
    53  C    0.140098
    54  C   -0.122247
    55  C    0.090408
    56  C    0.111561
    57  C    0.058905
    58  C    0.113083
    59  C   -0.057024
    60  C    0.102971
    61  C    0.117284
    62  C    0.094690
    63  C    0.074758
    64  C   -0.084653
    65  C    0.125796
    66  C    0.087600
    67  H   -0.056173
    68  H   -0.082149
    69  H   -0.063426
    70  H   -0.017466
    71  H   -0.026450
    72  H   -0.004605
    73  H   -0.010384
    74  H   -0.008920
    75  H   -0.019797
    76  H   -0.013061
    77  H    0.002907
    78  H   -0.007747
    79  H   -0.025164
    80  H    0.017314
    81  H    0.011398
    82  H    0.018449
    83  H    0.017120
    84  H   -0.013293
    85  H   -0.030463
    86  H   -0.044856
    87  H   -0.013887
    88  H   -0.026833
    89  H    0.002875
    90  H   -0.021123
    91  H   -0.024146
    92  H   -0.021500
    93  H    0.004261
    94  H   -0.029038
    95  H    0.020240
    96  H   -0.034267
    97  H    0.007241
    98  H   -0.017506
    99  H    0.022061
   100  H    0.014916
   101  H    0.011661
   102  H    0.023288
   103  H    0.001405
   104  H   -0.039073
   105  H   -0.014453
   106  H   -0.011328
   107  H   -0.012527
   108  H   -0.029337
   109  H   -0.029965
   110  H   -0.023882
   111  H   -0.023863
   112  H   -0.034129
   113  H   -0.024197
   114  H   -0.033977
   115  H   -0.029270
   116  H   -0.021800
   117  H   -0.016307
   118  H   -0.037768
   119  H   -0.015478
   120  H   -0.037363
   121  H   -0.035922
   122  H   -0.038094
   123  H   -0.041560
   124  H   -0.029080
   125  H   -0.028871
   126  H   -0.030608
   127  H   -0.028719
   128  H   -0.022443
   129  H   -0.041662
   130  H   -0.023062
   131  H   -0.035138
   132  H   -0.031848
   133  H   -0.034151
   134  H   -0.035426
   135  H   -0.028372
   136  H   -0.033279
   137  H   -0.015406
   138  H   -0.011371
   139  H   -0.015626
   140  H   -0.017958
 Sum of Mulliken charges =  -0.00000

 Dipole moment (field-independent basis, Debye):
    X=             -0.0608    Y=              2.3606    Z=              1.3880  Tot=              2.7391
 Quadrupole moment (field-independent basis, Debye-Ang):
   XX=           -372.8145   YY=           -407.1675   ZZ=           -426.5260
   XY=             -5.6775   XZ=              2.9822   YZ=            -56.7053

 Normal termination of Gaussian 16 at Wed Apr 27 15:50:32 2022.
