 Gaussian 16, Revision A.03,
 Gaussian 16:  ES64L-G16RevA.03 25-Dec-2016

 -----------------------------------
 #p cam-b3lyp/Def2SVP td=(nstates=5)
 -----------------------------------

 -------------------------------------------------------
 step_1201_chromophore_8 TDDFT with cam-b3lyp functional
 -------------------------------------------------------
 Symbolic Z-matrix:
 Charge =  0 Multiplicity = 1

                         Standard orientation:
 ---------------------------------------------------------------------
 Center     Atomic      Atomic             Coordinates (Angstroms)
 Number     Number       Type             X           Y           Z
 ---------------------------------------------------------------------
      1         12           0       -4.402011    1.001058   -0.223984
      2          6           0       -3.482223   -2.376654   -0.951108
      3          6           0       -4.349770    0.145079    3.088716
      4          6           0       -4.668110    4.239331    0.532078
      5          6           0       -3.777425    1.758306   -3.514712
      6          7           0       -3.972003   -0.971984    0.928346
      7          6           0       -3.680302   -2.219640    0.420898
      8          6           0       -3.462149   -3.238143    1.537237
      9          6           0       -4.076335   -2.424908    2.798497
     10          6           0       -4.154704   -0.950428    2.281925
     11          6           0       -5.483040   -2.880557    3.111821
     12          6           0       -1.977609   -3.574924    1.777723
     13          6           0       -1.616094   -5.021295    1.567146
     14          6           0       -0.224233   -5.370067    0.893426
     15          8           0       -0.073952   -5.944771   -0.147141
     16          8           0        0.774759   -4.876621    1.678859
     17          7           0       -4.420631    2.102476    1.621713
     18          6           0       -4.468666    1.530809    2.830887
     19          6           0       -4.531006    2.620213    3.854524
     20          6           0       -4.602547    3.860993    3.162325
     21          6           0       -4.642277    3.457652    1.734945
     22          6           0       -4.735583    2.366157    5.300012
     23          6           0       -4.760366    5.264154    3.830979
     24          8           0       -4.680018    5.460267    5.034571
     25          6           0       -5.046852    6.485653    2.944667
     26          7           0       -4.173500    2.713199   -1.315178
     27          6           0       -4.533246    3.912785   -0.835031
     28          6           0       -4.797354    4.948220   -1.912906
     29          6           0       -4.122246    4.227743   -3.143222
     30          6           0       -4.079972    2.794165   -2.641452
     31          6           0       -6.163304    5.545416   -1.980150
     32          6           0       -2.694147    4.796896   -3.533130
     33          6           0       -2.721143    5.964378   -4.524360
     34          7           0       -3.887414   -0.069528   -1.970796
     35          6           0       -3.636610    0.425056   -3.196522
     36          6           0       -3.310839   -0.680091   -4.036363
     37          6           0       -3.264852   -1.844658   -3.249393
     38          6           0       -3.583951   -1.354586   -1.914864
     39          6           0       -2.798358   -0.751743   -5.451943
     40          6           0       -2.967111   -3.202324   -3.171794
     41          8           0       -2.567055   -3.955315   -4.031984
     42          6           0       -3.366217   -3.669977   -1.729896
     43          6           0       -4.733252   -4.321454   -1.766674
     44          8           0       -5.651008   -3.984065   -2.513914
     45          8           0       -4.791137   -5.290044   -0.743211
     46          6           0       -6.046756   -6.078232   -0.830560
     47          6           0        2.211790   -5.120604    1.271116
     48          6           0        2.840806   -3.773851    1.046491
     49          6           0        4.012758   -3.455736    0.532578
     50          6           0        5.092131   -4.486017    0.240708
     51          6           0        4.458716   -2.013132    0.322219
     52          6           0        5.570377   -1.675314    1.269093
     53          6           0        5.470269   -0.211399    1.698366
     54          6           0        6.731002    0.048335    2.559048
     55          6           0        6.356728    0.106891    4.078518
     56          6           0        7.358838    1.450112    2.189382
     57          6           0        8.163871    1.307855    0.868947
     58          6           0        7.885521    2.353218   -0.154867
     59          6           0        9.090176    3.252507   -0.513030
     60          6           0        8.574991    4.538735   -1.132567
     61          6           0       10.013791    2.638914   -1.700723
     62          6           0       11.414782    2.292504   -1.241343
     63          6           0       11.701617    0.772359   -1.194974
     64          6           0       13.120460    0.510796   -0.651468
     65          6           0       13.200192   -0.868377   -0.019153
     66          6           0       14.265992    0.643545   -1.757121
     67          1           0       -4.204829   -0.156395    4.127639
     68          1           0       -5.051272    5.229775    0.787494
     69          1           0       -3.680066    2.004585   -4.573670
     70          1           0       -4.116067   -4.109339    1.490357
     71          1           0       -3.542869   -2.432079    3.749848
     72          1           0       -6.234139   -2.145414    2.823041
     73          1           0       -5.464660   -2.987379    4.196896
     74          1           0       -5.798238   -3.817420    2.652520
     75          1           0       -1.592039   -3.369172    2.775389
     76          1           0       -1.367029   -2.963287    1.113474
     77          1           0       -2.485845   -5.356760    1.002840
     78          1           0       -1.536863   -5.478453    2.553975
     79          1           0       -4.884582    1.294263    5.425931
     80          1           0       -5.554884    2.914106    5.764695
     81          1           0       -3.758869    2.654795    5.688707
     82          1           0       -5.988358    6.347768    2.412630
     83          1           0       -4.277168    6.736924    2.215632
     84          1           0       -5.142482    7.358157    3.589938
     85          1           0       -4.158312    5.830460   -1.873009
     86          1           0       -4.796894    4.287845   -3.996801
     87          1           0       -6.863043    4.967701   -1.377065
     88          1           0       -6.589154    5.385783   -2.971443
     89          1           0       -6.101777    6.618217   -1.795990
     90          1           0       -2.015611    4.048135   -3.943342
     91          1           0       -2.182464    5.053488   -2.605433
     92          1           0       -3.152356    5.589835   -5.453146
     93          1           0       -1.840414    6.549621   -4.789364
     94          1           0       -3.499732    6.677801   -4.255620
     95          1           0       -1.802604   -1.194908   -5.435118
     96          1           0       -2.755009    0.221990   -5.939088
     97          1           0       -3.497076   -1.341790   -6.045414
     98          1           0       -2.678335   -4.330449   -1.200382
     99          1           0       -6.110379   -6.713022   -1.714971
    100          1           0       -6.885840   -5.383636   -0.855686
    101          1           0       -6.085666   -6.706955    0.058428
    102          1           0        2.365144   -5.707310    0.365413
    103          1           0        2.672589   -5.664361    2.096057
    104          1           0        2.154700   -2.947166    1.227160
    105          1           0        4.818923   -5.526842    0.066864
    106          1           0        5.638258   -4.647546    1.169580
    107          1           0        5.819415   -4.085225   -0.466283
    108          1           0        3.605941   -1.345980    0.453277
    109          1           0        4.888177   -2.019723   -0.679279
    110          1           0        6.561303   -1.836192    0.844432
    111          1           0        5.507863   -2.342779    2.129048
    112          1           0        4.659569   -0.080857    2.414884
    113          1           0        5.370003    0.478330    0.859509
    114          1           0        7.388636   -0.820277    2.561187
    115          1           0        7.132202    0.678217    4.589139
    116          1           0        6.366243   -0.880633    4.539504
    117          1           0        5.405300    0.591423    4.295330
    118          1           0        8.100154    1.615832    2.971368
    119          1           0        6.514300    2.138543    2.178157
    120          1           0        8.056472    0.281424    0.519018
    121          1           0        9.225915    1.319756    1.113373
    122          1           0        6.978425    2.862728    0.169405
    123          1           0        7.525065    1.741306   -0.982245
    124          1           0        9.556864    3.482837    0.444927
    125          1           0        8.601790    5.410664   -0.478353
    126          1           0        7.529980    4.490512   -1.438642
    127          1           0        9.053714    4.883099   -2.048875
    128          1           0       10.098546    3.256627   -2.594516
    129          1           0        9.364244    1.795596   -1.933366
    130          1           0       11.646265    2.746091   -0.277325
    131          1           0       11.977648    2.720336   -2.070569
    132          1           0       11.529419    0.301998   -2.163452
    133          1           0       10.990870    0.288269   -0.526634
    134          1           0       13.373168    1.198158    0.155866
    135          1           0       12.215624   -1.334709   -0.000489
    136          1           0       13.397336   -0.768221    1.048520
    137          1           0       14.016180   -1.474181   -0.413894
    138          1           0       15.050013    1.291699   -1.365754
    139          1           0       13.799542    1.014108   -2.669501
    140          1           0       14.788428   -0.265778   -2.054632
 ---------------------------------------------------------------------

 SCF Done:  E(RCAM-B3LYP) =  -3007.15464363     A.U. after   17 cycles

 Excitation energies and oscillator strengths:

 Excited State   1:      Singlet-A      1.7769 eV  697.74 nm  f=0.3772  <S**2>=0.000
     245 -> 248        0.18841
     246 -> 247        0.68294
     245 <- 248        0.10713
 This state for optimization and/or second-order correction.
 Total Energy, E(TD-HF/TD-DFT) =  -3007.08934250
 Copying the excited state density for this state as the 1-particle RhoCI density.

 Excited State   2:      Singlet-A      2.2538 eV  550.12 nm  f=0.0920  <S**2>=0.000
     245 -> 247        0.63285
     246 -> 248       -0.30390

 Excited State   3:      Singlet-A      3.3759 eV  367.26 nm  f=0.0283  <S**2>=0.000
     241 -> 247       -0.14511
     242 -> 247        0.42709
     242 -> 249        0.19039
     242 -> 251        0.16351
     244 -> 247       -0.37293
     246 -> 248       -0.21029

 Excited State   4:      Singlet-A      3.5032 eV  353.92 nm  f=0.1269  <S**2>=0.000
     241 -> 247       -0.39416
     244 -> 247        0.46488
     245 -> 247       -0.13454
     246 -> 248       -0.27255

 Excited State   5:      Singlet-A      3.5505 eV  349.20 nm  f=0.1244  <S**2>=0.000
     241 -> 247        0.21859
     242 -> 247        0.41114
     242 -> 249        0.10063
     244 -> 247        0.32378
     245 -> 247        0.11975
     246 -> 248        0.34028

 The electronic state is 1-A.
 Alpha  occ. eigenvalues --  -46.89842 -19.25781 -19.24781 -19.20741 -19.19623
 Alpha  occ. eigenvalues --  -19.19387 -19.17718 -14.42457 -14.41997 -14.40019
 Alpha  occ. eigenvalues --  -14.39118 -10.39952 -10.38968 -10.36126 -10.33551
 Alpha  occ. eigenvalues --  -10.32354 -10.31907 -10.31354 -10.31172 -10.31015
 Alpha  occ. eigenvalues --  -10.30858 -10.30433 -10.30313 -10.29005 -10.28670
 Alpha  occ. eigenvalues --  -10.28635 -10.28331 -10.28058 -10.27939 -10.27804
 Alpha  occ. eigenvalues --  -10.27742 -10.27730 -10.27590 -10.27310 -10.27187
 Alpha  occ. eigenvalues --  -10.27057 -10.26920 -10.26735 -10.26476 -10.26460
 Alpha  occ. eigenvalues --  -10.26394 -10.26360 -10.26259 -10.25994 -10.25875
 Alpha  occ. eigenvalues --  -10.25833 -10.25758 -10.25701 -10.25465 -10.25368
 Alpha  occ. eigenvalues --  -10.25287 -10.25245 -10.24960 -10.24871 -10.24803
 Alpha  occ. eigenvalues --  -10.24759 -10.24749 -10.24671 -10.24462 -10.24389
 Alpha  occ. eigenvalues --  -10.24162 -10.24131 -10.24102 -10.23955 -10.23697
 Alpha  occ. eigenvalues --  -10.23530  -3.18276  -1.93169  -1.92726  -1.92575
 Alpha  occ. eigenvalues --   -1.15830  -1.15411  -1.10475  -1.09371  -1.07816
 Alpha  occ. eigenvalues --   -1.07781  -1.05959  -1.04518  -1.03543  -1.02493
 Alpha  occ. eigenvalues --   -0.93054  -0.91187  -0.89931  -0.89518  -0.89451
 Alpha  occ. eigenvalues --   -0.88852  -0.88705  -0.87866  -0.87508  -0.86726
 Alpha  occ. eigenvalues --   -0.86312  -0.85671  -0.84749  -0.84415  -0.83557
 Alpha  occ. eigenvalues --   -0.82919  -0.81986  -0.81215  -0.80809  -0.80447
 Alpha  occ. eigenvalues --   -0.79960  -0.78270  -0.77688  -0.77444  -0.76038
 Alpha  occ. eigenvalues --   -0.75849  -0.75302  -0.75058  -0.74397  -0.74008
 Alpha  occ. eigenvalues --   -0.73217  -0.72604  -0.71662  -0.69747  -0.69457
 Alpha  occ. eigenvalues --   -0.68856  -0.67694  -0.67306  -0.66451  -0.66115
 Alpha  occ. eigenvalues --   -0.65734  -0.65272  -0.65232  -0.64601  -0.63901
 Alpha  occ. eigenvalues --   -0.63635  -0.63059  -0.62958  -0.62523  -0.60763
 Alpha  occ. eigenvalues --   -0.59932  -0.59630  -0.59250  -0.59106  -0.57990
 Alpha  occ. eigenvalues --   -0.57749  -0.56634  -0.56072  -0.55908  -0.55544
 Alpha  occ. eigenvalues --   -0.55452  -0.54849  -0.54752  -0.54546  -0.54398
 Alpha  occ. eigenvalues --   -0.54110  -0.53478  -0.53343  -0.53040  -0.52618
 Alpha  occ. eigenvalues --   -0.52427  -0.52266  -0.52188  -0.51917  -0.51781
 Alpha  occ. eigenvalues --   -0.51588  -0.51339  -0.51055  -0.50845  -0.50644
 Alpha  occ. eigenvalues --   -0.50313  -0.50264  -0.50100  -0.49985  -0.49656
 Alpha  occ. eigenvalues --   -0.49506  -0.49402  -0.49069  -0.48838  -0.48791
 Alpha  occ. eigenvalues --   -0.48634  -0.48445  -0.48300  -0.48193  -0.47619
 Alpha  occ. eigenvalues --   -0.47511  -0.47305  -0.47164  -0.47027  -0.46922
 Alpha  occ. eigenvalues --   -0.46394  -0.46335  -0.46220  -0.46110  -0.45908
 Alpha  occ. eigenvalues --   -0.45305  -0.45213  -0.45085  -0.44992  -0.44728
 Alpha  occ. eigenvalues --   -0.44559  -0.44484  -0.44397  -0.43989  -0.43838
 Alpha  occ. eigenvalues --   -0.43801  -0.43426  -0.43259  -0.43154  -0.42973
 Alpha  occ. eigenvalues --   -0.42873  -0.42692  -0.42576  -0.42421  -0.41927
 Alpha  occ. eigenvalues --   -0.41735  -0.41647  -0.41572  -0.41444  -0.41303
 Alpha  occ. eigenvalues --   -0.40992  -0.40749  -0.40654  -0.40325  -0.40172
 Alpha  occ. eigenvalues --   -0.40135  -0.39755  -0.39242  -0.38808  -0.38717
 Alpha  occ. eigenvalues --   -0.38538  -0.38410  -0.38008  -0.37596  -0.37429
 Alpha  occ. eigenvalues --   -0.37214  -0.36998  -0.36924  -0.36523  -0.36508
 Alpha  occ. eigenvalues --   -0.36364  -0.35232  -0.35110  -0.34418  -0.34150
 Alpha  occ. eigenvalues --   -0.33563  -0.33413  -0.33093  -0.31587  -0.31546
 Alpha  occ. eigenvalues --   -0.30200  -0.30067  -0.29739  -0.29495  -0.24098
 Alpha  occ. eigenvalues --   -0.21301
 Alpha virt. eigenvalues --   -0.08517  -0.01912   0.00472   0.01517   0.02411
 Alpha virt. eigenvalues --    0.04512   0.05170   0.06608   0.07005   0.07146
 Alpha virt. eigenvalues --    0.07722   0.08484   0.08569   0.09037   0.09096

 Mulliken charges:
               1
     1  Mg   0.815731
     2  C   -0.082491
     3  C   -0.064957
     4  C   -0.055599
     5  C   -0.107751
     6  N   -0.266026
     7  C   -0.049139
     8  C    0.006094
     9  C   -0.113568
    10  C    0.013392
    11  C    0.072325
    12  C    0.089079
    13  C    0.025732
    14  C    0.148972
    15  O   -0.193254
    16  O   -0.357189
    17  N   -0.346142
    18  C    0.151186
    19  C   -0.167386
    20  C   -0.032434
    21  C    0.082781
    22  C    0.134796
    23  C    0.022449
    24  O   -0.191111
    25  C    0.023794
    26  N   -0.291051
    27  C    0.065481
    28  C   -0.060117
    29  C   -0.044377
    30  C    0.056705
    31  C    0.111552
    32  C    0.052187
    33  C    0.019207
    34  N   -0.299633
    35  C    0.148924
    36  C   -0.178488
    37  C    0.062132
    38  C    0.116519
    39  C    0.122162
    40  C    0.013689
    41  O   -0.158811
    42  C    0.007431
    43  C    0.245011
    44  O   -0.217680
    45  O   -0.361137
    46  C    0.182248
    47  C    0.292981
    48  C   -0.157052
    49  C   -0.171657
    50  C    0.075920
    51  C    0.157240
    52  C   -0.044173
    53  C    0.084200
    54  C   -0.179004
    55  C    0.036643
    56  C    0.056682
    57  C    0.010451
    58  C    0.056148
    59  C   -0.116993
    60  C    0.044831
    61  C    0.068407
    62  C    0.036097
    63  C    0.022625
    64  C   -0.145678
    65  C    0.064867
    66  C    0.031367
    67  H   -0.022801
    68  H   -0.049299
    69  H   -0.026936
    70  H    0.018822
    71  H    0.007716
    72  H    0.021954
    73  H    0.013510
    74  H    0.014764
    75  H    0.011634
    76  H    0.018195
    77  H    0.031444
    78  H    0.024144
    79  H    0.000993
    80  H    0.044972
    81  H    0.038789
    82  H    0.043741
    83  H    0.044836
    84  H    0.023231
    85  H    0.005724
    86  H   -0.009126
    87  H    0.013187
    88  H    0.000406
    89  H    0.026562
    90  H    0.009275
    91  H    0.003819
    92  H    0.001644
    93  H    0.029753
    94  H   -0.007385
    95  H    0.045539
    96  H   -0.009279
    97  H    0.034320
    98  H    0.024742
    99  H    0.044881
   100  H    0.039973
   101  H    0.034727
   102  H    0.053510
   103  H    0.029040
   104  H   -0.005377
   105  H    0.012275
   106  H    0.013764
   107  H    0.013521
   108  H    0.002629
   109  H    0.000722
   110  H    0.001693
   111  H    0.003780
   112  H   -0.004900
   113  H    0.003054
   114  H   -0.002381
   115  H   -0.004351
   116  H    0.002978
   117  H    0.006788
   118  H   -0.007733
   119  H    0.011203
   120  H   -0.010760
   121  H   -0.009031
   122  H   -0.008505
   123  H   -0.012051
   124  H    0.001852
   125  H   -0.003115
   126  H   -0.005432
   127  H   -0.004044
   128  H    0.006125
   129  H   -0.012925
   130  H    0.003992
   131  H   -0.007017
   132  H   -0.002977
   133  H   -0.009524
   134  H   -0.002656
   135  H   -0.003000
   136  H   -0.008173
   137  H    0.008917
   138  H    0.012018
   139  H    0.006670
   140  H    0.005809
 Sum of Mulliken charges =  -0.00000

 Dipole moment (field-independent basis, Debye):
    X=             -0.3434    Y=              2.7370    Z=              1.7843  Tot=              3.2852
 Quadrupole moment (field-independent basis, Debye-Ang):
   XX=           -371.0819   YY=           -402.8373   ZZ=           -425.4435
   XY=             -8.1253   XZ=              1.3305   YZ=            -58.4960

 Normal termination of Gaussian 16 at Wed Apr 27 14:53:31 2022.
