 Gaussian 16, Revision A.03,
 Gaussian 16:  ES64L-G16RevA.03 25-Dec-2016

 ---------------------------------
 #p PBE1PBE/Def2SVP td=(nstates=5)
 ---------------------------------

 -----------------------------------------------------
 step_1201_chromophore_8 TDDFT with PBE1PBE functional
 -----------------------------------------------------
 Symbolic Z-matrix:
 Charge =  0 Multiplicity = 1

                         Standard orientation:
 ---------------------------------------------------------------------
 Center     Atomic      Atomic             Coordinates (Angstroms)
 Number     Number       Type             X           Y           Z
 ---------------------------------------------------------------------
      1         12           0       -4.402011    1.001058   -0.223984
      2          6           0       -3.482223   -2.376654   -0.951108
      3          6           0       -4.349770    0.145079    3.088716
      4          6           0       -4.668110    4.239331    0.532078
      5          6           0       -3.777425    1.758306   -3.514712
      6          7           0       -3.972003   -0.971984    0.928346
      7          6           0       -3.680302   -2.219640    0.420898
      8          6           0       -3.462149   -3.238143    1.537237
      9          6           0       -4.076335   -2.424908    2.798497
     10          6           0       -4.154704   -0.950428    2.281925
     11          6           0       -5.483040   -2.880557    3.111821
     12          6           0       -1.977609   -3.574924    1.777723
     13          6           0       -1.616094   -5.021295    1.567146
     14          6           0       -0.224233   -5.370067    0.893426
     15          8           0       -0.073952   -5.944771   -0.147141
     16          8           0        0.774759   -4.876621    1.678859
     17          7           0       -4.420631    2.102476    1.621713
     18          6           0       -4.468666    1.530809    2.830887
     19          6           0       -4.531006    2.620213    3.854524
     20          6           0       -4.602547    3.860993    3.162325
     21          6           0       -4.642277    3.457652    1.734945
     22          6           0       -4.735583    2.366157    5.300012
     23          6           0       -4.760366    5.264154    3.830979
     24          8           0       -4.680018    5.460267    5.034571
     25          6           0       -5.046852    6.485653    2.944667
     26          7           0       -4.173500    2.713199   -1.315178
     27          6           0       -4.533246    3.912785   -0.835031
     28          6           0       -4.797354    4.948220   -1.912906
     29          6           0       -4.122246    4.227743   -3.143222
     30          6           0       -4.079972    2.794165   -2.641452
     31          6           0       -6.163304    5.545416   -1.980150
     32          6           0       -2.694147    4.796896   -3.533130
     33          6           0       -2.721143    5.964378   -4.524360
     34          7           0       -3.887414   -0.069528   -1.970796
     35          6           0       -3.636610    0.425056   -3.196522
     36          6           0       -3.310839   -0.680091   -4.036363
     37          6           0       -3.264852   -1.844658   -3.249393
     38          6           0       -3.583951   -1.354586   -1.914864
     39          6           0       -2.798358   -0.751743   -5.451943
     40          6           0       -2.967111   -3.202324   -3.171794
     41          8           0       -2.567055   -3.955315   -4.031984
     42          6           0       -3.366217   -3.669977   -1.729896
     43          6           0       -4.733252   -4.321454   -1.766674
     44          8           0       -5.651008   -3.984065   -2.513914
     45          8           0       -4.791137   -5.290044   -0.743211
     46          6           0       -6.046756   -6.078232   -0.830560
     47          6           0        2.211790   -5.120604    1.271116
     48          6           0        2.840806   -3.773851    1.046491
     49          6           0        4.012758   -3.455736    0.532578
     50          6           0        5.092131   -4.486017    0.240708
     51          6           0        4.458716   -2.013132    0.322219
     52          6           0        5.570377   -1.675314    1.269093
     53          6           0        5.470269   -0.211399    1.698366
     54          6           0        6.731002    0.048335    2.559048
     55          6           0        6.356728    0.106891    4.078518
     56          6           0        7.358838    1.450112    2.189382
     57          6           0        8.163871    1.307855    0.868947
     58          6           0        7.885521    2.353218   -0.154867
     59          6           0        9.090176    3.252507   -0.513030
     60          6           0        8.574991    4.538735   -1.132567
     61          6           0       10.013791    2.638914   -1.700723
     62          6           0       11.414782    2.292504   -1.241343
     63          6           0       11.701617    0.772359   -1.194974
     64          6           0       13.120460    0.510796   -0.651468
     65          6           0       13.200192   -0.868377   -0.019153
     66          6           0       14.265992    0.643545   -1.757121
     67          1           0       -4.204829   -0.156395    4.127639
     68          1           0       -5.051272    5.229775    0.787494
     69          1           0       -3.680066    2.004585   -4.573670
     70          1           0       -4.116067   -4.109339    1.490357
     71          1           0       -3.542869   -2.432079    3.749848
     72          1           0       -6.234139   -2.145414    2.823041
     73          1           0       -5.464660   -2.987379    4.196896
     74          1           0       -5.798238   -3.817420    2.652520
     75          1           0       -1.592039   -3.369172    2.775389
     76          1           0       -1.367029   -2.963287    1.113474
     77          1           0       -2.485845   -5.356760    1.002840
     78          1           0       -1.536863   -5.478453    2.553975
     79          1           0       -4.884582    1.294263    5.425931
     80          1           0       -5.554884    2.914106    5.764695
     81          1           0       -3.758869    2.654795    5.688707
     82          1           0       -5.988358    6.347768    2.412630
     83          1           0       -4.277168    6.736924    2.215632
     84          1           0       -5.142482    7.358157    3.589938
     85          1           0       -4.158312    5.830460   -1.873009
     86          1           0       -4.796894    4.287845   -3.996801
     87          1           0       -6.863043    4.967701   -1.377065
     88          1           0       -6.589154    5.385783   -2.971443
     89          1           0       -6.101777    6.618217   -1.795990
     90          1           0       -2.015611    4.048135   -3.943342
     91          1           0       -2.182464    5.053488   -2.605433
     92          1           0       -3.152356    5.589835   -5.453146
     93          1           0       -1.840414    6.549621   -4.789364
     94          1           0       -3.499732    6.677801   -4.255620
     95          1           0       -1.802604   -1.194908   -5.435118
     96          1           0       -2.755009    0.221990   -5.939088
     97          1           0       -3.497076   -1.341790   -6.045414
     98          1           0       -2.678335   -4.330449   -1.200382
     99          1           0       -6.110379   -6.713022   -1.714971
    100          1           0       -6.885840   -5.383636   -0.855686
    101          1           0       -6.085666   -6.706955    0.058428
    102          1           0        2.365144   -5.707310    0.365413
    103          1           0        2.672589   -5.664361    2.096057
    104          1           0        2.154700   -2.947166    1.227160
    105          1           0        4.818923   -5.526842    0.066864
    106          1           0        5.638258   -4.647546    1.169580
    107          1           0        5.819415   -4.085225   -0.466283
    108          1           0        3.605941   -1.345980    0.453277
    109          1           0        4.888177   -2.019723   -0.679279
    110          1           0        6.561303   -1.836192    0.844432
    111          1           0        5.507863   -2.342779    2.129048
    112          1           0        4.659569   -0.080857    2.414884
    113          1           0        5.370003    0.478330    0.859509
    114          1           0        7.388636   -0.820277    2.561187
    115          1           0        7.132202    0.678217    4.589139
    116          1           0        6.366243   -0.880633    4.539504
    117          1           0        5.405300    0.591423    4.295330
    118          1           0        8.100154    1.615832    2.971368
    119          1           0        6.514300    2.138543    2.178157
    120          1           0        8.056472    0.281424    0.519018
    121          1           0        9.225915    1.319756    1.113373
    122          1           0        6.978425    2.862728    0.169405
    123          1           0        7.525065    1.741306   -0.982245
    124          1           0        9.556864    3.482837    0.444927
    125          1           0        8.601790    5.410664   -0.478353
    126          1           0        7.529980    4.490512   -1.438642
    127          1           0        9.053714    4.883099   -2.048875
    128          1           0       10.098546    3.256627   -2.594516
    129          1           0        9.364244    1.795596   -1.933366
    130          1           0       11.646265    2.746091   -0.277325
    131          1           0       11.977648    2.720336   -2.070569
    132          1           0       11.529419    0.301998   -2.163452
    133          1           0       10.990870    0.288269   -0.526634
    134          1           0       13.373168    1.198158    0.155866
    135          1           0       12.215624   -1.334709   -0.000489
    136          1           0       13.397336   -0.768221    1.048520
    137          1           0       14.016180   -1.474181   -0.413894
    138          1           0       15.050013    1.291699   -1.365754
    139          1           0       13.799542    1.014108   -2.669501
    140          1           0       14.788428   -0.265778   -2.054632
 ---------------------------------------------------------------------

 SCF Done:  E(RPBE1PBE) =  -3005.34413820     A.U. after   15 cycles

 Excitation energies and oscillator strengths:

 Excited State   1:      Singlet-A      1.9328 eV  641.48 nm  f=0.3641  <S**2>=0.000
     245 -> 248        0.18318
     246 -> 247        0.68876
     246 <- 247       -0.10095
 This state for optimization and/or second-order correction.
 Total Energy, E(TD-HF/TD-DFT) =  -3005.27310958
 Copying the excited state density for this state as the 1-particle RhoCI density.

 Excited State   2:      Singlet-A      2.2541 eV  550.04 nm  f=0.0949  <S**2>=0.000
     245 -> 247        0.64688
     246 -> 248       -0.26861

 Excited State   3:      Singlet-A      2.8917 eV  428.76 nm  f=0.0005  <S**2>=0.000
     242 -> 247        0.10318
     243 -> 247        0.65512
     243 -> 249        0.13815
     246 -> 248       -0.12592

 Excited State   4:      Singlet-A      3.1271 eV  396.48 nm  f=0.0079  <S**2>=0.000
     241 -> 247       -0.13702
     242 -> 247        0.66822
     243 -> 247       -0.12978

 Excited State   5:      Singlet-A      3.2171 eV  385.40 nm  f=0.0041  <S**2>=0.000
     241 -> 247        0.64593
     242 -> 247        0.15176
     246 -> 248        0.21209

 The electronic state is 1-A.
 Alpha  occ. eigenvalues --  -46.93200 -19.26433 -19.25496 -19.20971 -19.19776
 Alpha  occ. eigenvalues --  -19.19657 -19.18017 -14.41910 -14.41531 -14.39583
 Alpha  occ. eigenvalues --  -14.38769 -10.37000 -10.36019 -10.33245 -10.30723
 Alpha  occ. eigenvalues --  -10.29751 -10.29121 -10.29015 -10.28937 -10.28627
 Alpha  occ. eigenvalues --  -10.28532 -10.28207 -10.27900 -10.26751 -10.26408
 Alpha  occ. eigenvalues --  -10.26225 -10.26196 -10.25922 -10.25774 -10.25653
 Alpha  occ. eigenvalues --  -10.25400 -10.25378 -10.25376 -10.25041 -10.24835
 Alpha  occ. eigenvalues --  -10.24677 -10.24549 -10.24253 -10.24071 -10.24010
 Alpha  occ. eigenvalues --  -10.23998 -10.23911 -10.23561 -10.23538 -10.23429
 Alpha  occ. eigenvalues --  -10.23261 -10.23232 -10.23132 -10.23124 -10.23075
 Alpha  occ. eigenvalues --  -10.22820 -10.22697 -10.22501 -10.22466 -10.22374
 Alpha  occ. eigenvalues --  -10.22288 -10.22264 -10.22257 -10.21982 -10.21790
 Alpha  occ. eigenvalues --  -10.21769 -10.21695 -10.21677 -10.21533 -10.21078
 Alpha  occ. eigenvalues --  -10.20924  -3.15217  -1.88050  -1.87586  -1.87437
 Alpha  occ. eigenvalues --   -1.10652  -1.10142  -1.05168  -1.04183  -1.02676
 Alpha  occ. eigenvalues --   -1.02637  -1.00589  -0.99262  -0.98137  -0.97096
 Alpha  occ. eigenvalues --   -0.87441  -0.85303  -0.84035  -0.83794  -0.83680
 Alpha  occ. eigenvalues --   -0.83167  -0.82818  -0.82207  -0.81627  -0.80990
 Alpha  occ. eigenvalues --   -0.80645  -0.79920  -0.78932  -0.78688  -0.77814
 Alpha  occ. eigenvalues --   -0.77113  -0.76198  -0.75387  -0.75042  -0.74745
 Alpha  occ. eigenvalues --   -0.74168  -0.72602  -0.71979  -0.71712  -0.70360
 Alpha  occ. eigenvalues --   -0.70012  -0.69658  -0.69130  -0.68551  -0.68167
 Alpha  occ. eigenvalues --   -0.67550  -0.67045  -0.66105  -0.64070  -0.63767
 Alpha  occ. eigenvalues --   -0.63374  -0.61923  -0.61677  -0.60640  -0.60546
 Alpha  occ. eigenvalues --   -0.60210  -0.59768  -0.59412  -0.59179  -0.58030
 Alpha  occ. eigenvalues --   -0.57958  -0.57427  -0.57139  -0.57075  -0.55289
 Alpha  occ. eigenvalues --   -0.54321  -0.54257  -0.53873  -0.53588  -0.52496
 Alpha  occ. eigenvalues --   -0.52288  -0.51131  -0.50607  -0.50392  -0.50131
 Alpha  occ. eigenvalues --   -0.49874  -0.49357  -0.49190  -0.49046  -0.48770
 Alpha  occ. eigenvalues --   -0.48595  -0.48117  -0.47934  -0.47706  -0.47140
 Alpha  occ. eigenvalues --   -0.47063  -0.46773  -0.46692  -0.46336  -0.46203
 Alpha  occ. eigenvalues --   -0.46115  -0.45861  -0.45647  -0.45389  -0.45169
 Alpha  occ. eigenvalues --   -0.44916  -0.44796  -0.44646  -0.44532  -0.44267
 Alpha  occ. eigenvalues --   -0.44100  -0.43949  -0.43711  -0.43416  -0.43396
 Alpha  occ. eigenvalues --   -0.43211  -0.43071  -0.42988  -0.42786  -0.42343
 Alpha  occ. eigenvalues --   -0.42160  -0.41911  -0.41822  -0.41682  -0.41592
 Alpha  occ. eigenvalues --   -0.41092  -0.41067  -0.40860  -0.40787  -0.40523
 Alpha  occ. eigenvalues --   -0.40048  -0.39945  -0.39758  -0.39672  -0.39303
 Alpha  occ. eigenvalues --   -0.39298  -0.39210  -0.39099  -0.38789  -0.38623
 Alpha  occ. eigenvalues --   -0.38468  -0.38219  -0.38054  -0.37833  -0.37760
 Alpha  occ. eigenvalues --   -0.37716  -0.37542  -0.37326  -0.37236  -0.36746
 Alpha  occ. eigenvalues --   -0.36569  -0.36508  -0.36387  -0.36210  -0.36145
 Alpha  occ. eigenvalues --   -0.35875  -0.35615  -0.35384  -0.35159  -0.35027
 Alpha  occ. eigenvalues --   -0.34889  -0.34547  -0.33994  -0.33659  -0.33583
 Alpha  occ. eigenvalues --   -0.33488  -0.33248  -0.32773  -0.32417  -0.32313
 Alpha  occ. eigenvalues --   -0.32218  -0.31968  -0.31841  -0.31563  -0.31398
 Alpha  occ. eigenvalues --   -0.31223  -0.30120  -0.29973  -0.29377  -0.29346
 Alpha  occ. eigenvalues --   -0.29011  -0.28522  -0.28003  -0.27116  -0.26310
 Alpha  occ. eigenvalues --   -0.25722  -0.25235  -0.24981  -0.24979  -0.21001
 Alpha  occ. eigenvalues --   -0.18946
 Alpha virt. eigenvalues --   -0.11018  -0.05388  -0.03761  -0.02026  -0.01223
 Alpha virt. eigenvalues --   -0.00121   0.01138   0.02140   0.02566   0.03007
 Alpha virt. eigenvalues --    0.04213   0.04366   0.05226   0.05449   0.05667

 Mulliken charges:
               1
     1  Mg   0.955311
     2  C   -0.085108
     3  C   -0.059225
     4  C   -0.049640
     5  C   -0.091025
     6  N   -0.363682
     7  C    0.025375
     8  C   -0.072211
     9  C   -0.192899
    10  C    0.050587
    11  C    0.022727
    12  C    0.050322
    13  C   -0.057232
    14  C    0.219097
    15  O   -0.228814
    16  O   -0.385890
    17  N   -0.454914
    18  C    0.178051
    19  C   -0.196662
    20  C   -0.068960
    21  C    0.108253
    22  C    0.073035
    23  C    0.073057
    24  O   -0.227234
    25  C   -0.052054
    26  N   -0.401197
    27  C    0.087688
    28  C   -0.130019
    29  C   -0.117321
    30  C    0.092809
    31  C    0.053236
    32  C   -0.009674
    33  C   -0.053067
    34  N   -0.433880
    35  C    0.165880
    36  C   -0.191861
    37  C    0.020935
    38  C    0.174527
    39  C    0.067859
    40  C    0.099454
    41  O   -0.205086
    42  C   -0.115200
    43  C    0.338266
    44  O   -0.249878
    45  O   -0.392063
    46  C    0.125489
    47  C    0.250832
    48  C   -0.155582
    49  C   -0.228528
    50  C    0.016971
    51  C    0.089237
    52  C   -0.107480
    53  C    0.032212
    54  C   -0.267225
    55  C   -0.020340
    56  C   -0.002430
    57  C   -0.046966
    58  C    0.002669
    59  C   -0.210457
    60  C   -0.008840
    61  C    0.021073
    62  C   -0.031115
    63  C   -0.039283
    64  C   -0.236668
    65  C    0.006370
    66  C   -0.026533
    67  H    0.008654
    68  H   -0.014428
    69  H    0.004669
    70  H    0.057584
    71  H    0.042163
    72  H    0.050004
    73  H    0.040820
    74  H    0.041174
    75  H    0.043112
    76  H    0.051578
    77  H    0.063578
    78  H    0.057672
    79  H    0.028680
    80  H    0.071375
    81  H    0.067295
    82  H    0.069492
    83  H    0.070425
    84  H    0.051637
    85  H    0.044173
    86  H    0.027972
    87  H    0.041446
    88  H    0.028652
    89  H    0.052482
    90  H    0.042214
    91  H    0.037026
    92  H    0.030310
    93  H    0.056990
    94  H    0.021478
    95  H    0.072362
    96  H    0.019098
    97  H    0.062341
    98  H    0.066772
    99  H    0.067111
   100  H    0.061947
   101  H    0.056086
   102  H    0.078454
   103  H    0.055771
   104  H    0.024818
   105  H    0.038846
   106  H    0.041584
   107  H    0.040198
   108  H    0.034296
   109  H    0.035974
   110  H    0.033849
   111  H    0.038532
   112  H    0.028975
   113  H    0.035989
   114  H    0.034564
   115  H    0.023677
   116  H    0.031083
   117  H    0.033820
   118  H    0.025904
   119  H    0.042149
   120  H    0.022767
   121  H    0.025466
   122  H    0.023691
   123  H    0.020116
   124  H    0.038241
   125  H    0.024970
   126  H    0.021685
   127  H    0.022945
   128  H    0.035881
   129  H    0.019847
   130  H    0.035237
   131  H    0.026924
   132  H    0.029375
   133  H    0.026593
   134  H    0.034507
   135  H    0.023683
   136  H    0.020011
   137  H    0.035613
   138  H    0.039199
   139  H    0.033652
   140  H    0.032097
 Sum of Mulliken charges =  -0.00000

 Dipole moment (field-independent basis, Debye):
    X=             -0.3152    Y=              2.7293    Z=              1.6546  Tot=              3.2072
 Quadrupole moment (field-independent basis, Debye-Ang):
   XX=           -368.4806   YY=           -399.5309   ZZ=           -421.2725
   XY=             -8.3489   XZ=              1.9806   YZ=            -59.9791

 Normal termination of Gaussian 16 at Wed Apr 27 15:12:20 2022.
