 Gaussian 16, Revision A.03,
 Gaussian 16:  ES64L-G16RevA.03 25-Dec-2016

 --------------------------------
 #p wB97XD/Def2SVP td=(nstates=5)
 --------------------------------

 ----------------------------------------------------
 step_1201_chromophore_8 TDDFT with wB97XD functional
 ----------------------------------------------------
 Symbolic Z-matrix:
 Charge =  0 Multiplicity = 1

                         Standard orientation:
 ---------------------------------------------------------------------
 Center     Atomic      Atomic             Coordinates (Angstroms)
 Number     Number       Type             X           Y           Z
 ---------------------------------------------------------------------
      1         12           0       -4.402011    1.001058   -0.223984
      2          6           0       -3.482223   -2.376654   -0.951108
      3          6           0       -4.349770    0.145079    3.088716
      4          6           0       -4.668110    4.239331    0.532078
      5          6           0       -3.777425    1.758306   -3.514712
      6          7           0       -3.972003   -0.971984    0.928346
      7          6           0       -3.680302   -2.219640    0.420898
      8          6           0       -3.462149   -3.238143    1.537237
      9          6           0       -4.076335   -2.424908    2.798497
     10          6           0       -4.154704   -0.950428    2.281925
     11          6           0       -5.483040   -2.880557    3.111821
     12          6           0       -1.977609   -3.574924    1.777723
     13          6           0       -1.616094   -5.021295    1.567146
     14          6           0       -0.224233   -5.370067    0.893426
     15          8           0       -0.073952   -5.944771   -0.147141
     16          8           0        0.774759   -4.876621    1.678859
     17          7           0       -4.420631    2.102476    1.621713
     18          6           0       -4.468666    1.530809    2.830887
     19          6           0       -4.531006    2.620213    3.854524
     20          6           0       -4.602547    3.860993    3.162325
     21          6           0       -4.642277    3.457652    1.734945
     22          6           0       -4.735583    2.366157    5.300012
     23          6           0       -4.760366    5.264154    3.830979
     24          8           0       -4.680018    5.460267    5.034571
     25          6           0       -5.046852    6.485653    2.944667
     26          7           0       -4.173500    2.713199   -1.315178
     27          6           0       -4.533246    3.912785   -0.835031
     28          6           0       -4.797354    4.948220   -1.912906
     29          6           0       -4.122246    4.227743   -3.143222
     30          6           0       -4.079972    2.794165   -2.641452
     31          6           0       -6.163304    5.545416   -1.980150
     32          6           0       -2.694147    4.796896   -3.533130
     33          6           0       -2.721143    5.964378   -4.524360
     34          7           0       -3.887414   -0.069528   -1.970796
     35          6           0       -3.636610    0.425056   -3.196522
     36          6           0       -3.310839   -0.680091   -4.036363
     37          6           0       -3.264852   -1.844658   -3.249393
     38          6           0       -3.583951   -1.354586   -1.914864
     39          6           0       -2.798358   -0.751743   -5.451943
     40          6           0       -2.967111   -3.202324   -3.171794
     41          8           0       -2.567055   -3.955315   -4.031984
     42          6           0       -3.366217   -3.669977   -1.729896
     43          6           0       -4.733252   -4.321454   -1.766674
     44          8           0       -5.651008   -3.984065   -2.513914
     45          8           0       -4.791137   -5.290044   -0.743211
     46          6           0       -6.046756   -6.078232   -0.830560
     47          6           0        2.211790   -5.120604    1.271116
     48          6           0        2.840806   -3.773851    1.046491
     49          6           0        4.012758   -3.455736    0.532578
     50          6           0        5.092131   -4.486017    0.240708
     51          6           0        4.458716   -2.013132    0.322219
     52          6           0        5.570377   -1.675314    1.269093
     53          6           0        5.470269   -0.211399    1.698366
     54          6           0        6.731002    0.048335    2.559048
     55          6           0        6.356728    0.106891    4.078518
     56          6           0        7.358838    1.450112    2.189382
     57          6           0        8.163871    1.307855    0.868947
     58          6           0        7.885521    2.353218   -0.154867
     59          6           0        9.090176    3.252507   -0.513030
     60          6           0        8.574991    4.538735   -1.132567
     61          6           0       10.013791    2.638914   -1.700723
     62          6           0       11.414782    2.292504   -1.241343
     63          6           0       11.701617    0.772359   -1.194974
     64          6           0       13.120460    0.510796   -0.651468
     65          6           0       13.200192   -0.868377   -0.019153
     66          6           0       14.265992    0.643545   -1.757121
     67          1           0       -4.204829   -0.156395    4.127639
     68          1           0       -5.051272    5.229775    0.787494
     69          1           0       -3.680066    2.004585   -4.573670
     70          1           0       -4.116067   -4.109339    1.490357
     71          1           0       -3.542869   -2.432079    3.749848
     72          1           0       -6.234139   -2.145414    2.823041
     73          1           0       -5.464660   -2.987379    4.196896
     74          1           0       -5.798238   -3.817420    2.652520
     75          1           0       -1.592039   -3.369172    2.775389
     76          1           0       -1.367029   -2.963287    1.113474
     77          1           0       -2.485845   -5.356760    1.002840
     78          1           0       -1.536863   -5.478453    2.553975
     79          1           0       -4.884582    1.294263    5.425931
     80          1           0       -5.554884    2.914106    5.764695
     81          1           0       -3.758869    2.654795    5.688707
     82          1           0       -5.988358    6.347768    2.412630
     83          1           0       -4.277168    6.736924    2.215632
     84          1           0       -5.142482    7.358157    3.589938
     85          1           0       -4.158312    5.830460   -1.873009
     86          1           0       -4.796894    4.287845   -3.996801
     87          1           0       -6.863043    4.967701   -1.377065
     88          1           0       -6.589154    5.385783   -2.971443
     89          1           0       -6.101777    6.618217   -1.795990
     90          1           0       -2.015611    4.048135   -3.943342
     91          1           0       -2.182464    5.053488   -2.605433
     92          1           0       -3.152356    5.589835   -5.453146
     93          1           0       -1.840414    6.549621   -4.789364
     94          1           0       -3.499732    6.677801   -4.255620
     95          1           0       -1.802604   -1.194908   -5.435118
     96          1           0       -2.755009    0.221990   -5.939088
     97          1           0       -3.497076   -1.341790   -6.045414
     98          1           0       -2.678335   -4.330449   -1.200382
     99          1           0       -6.110379   -6.713022   -1.714971
    100          1           0       -6.885840   -5.383636   -0.855686
    101          1           0       -6.085666   -6.706955    0.058428
    102          1           0        2.365144   -5.707310    0.365413
    103          1           0        2.672589   -5.664361    2.096057
    104          1           0        2.154700   -2.947166    1.227160
    105          1           0        4.818923   -5.526842    0.066864
    106          1           0        5.638258   -4.647546    1.169580
    107          1           0        5.819415   -4.085225   -0.466283
    108          1           0        3.605941   -1.345980    0.453277
    109          1           0        4.888177   -2.019723   -0.679279
    110          1           0        6.561303   -1.836192    0.844432
    111          1           0        5.507863   -2.342779    2.129048
    112          1           0        4.659569   -0.080857    2.414884
    113          1           0        5.370003    0.478330    0.859509
    114          1           0        7.388636   -0.820277    2.561187
    115          1           0        7.132202    0.678217    4.589139
    116          1           0        6.366243   -0.880633    4.539504
    117          1           0        5.405300    0.591423    4.295330
    118          1           0        8.100154    1.615832    2.971368
    119          1           0        6.514300    2.138543    2.178157
    120          1           0        8.056472    0.281424    0.519018
    121          1           0        9.225915    1.319756    1.113373
    122          1           0        6.978425    2.862728    0.169405
    123          1           0        7.525065    1.741306   -0.982245
    124          1           0        9.556864    3.482837    0.444927
    125          1           0        8.601790    5.410664   -0.478353
    126          1           0        7.529980    4.490512   -1.438642
    127          1           0        9.053714    4.883099   -2.048875
    128          1           0       10.098546    3.256627   -2.594516
    129          1           0        9.364244    1.795596   -1.933366
    130          1           0       11.646265    2.746091   -0.277325
    131          1           0       11.977648    2.720336   -2.070569
    132          1           0       11.529419    0.301998   -2.163452
    133          1           0       10.990870    0.288269   -0.526634
    134          1           0       13.373168    1.198158    0.155866
    135          1           0       12.215624   -1.334709   -0.000489
    136          1           0       13.397336   -0.768221    1.048520
    137          1           0       14.016180   -1.474181   -0.413894
    138          1           0       15.050013    1.291699   -1.365754
    139          1           0       13.799542    1.014108   -2.669501
    140          1           0       14.788428   -0.265778   -2.054632
 ---------------------------------------------------------------------

 SCF Done:  E(RwB97XD) =  -3007.85149086     A.U. after   20 cycles

 Excitation energies and oscillator strengths:

 Excited State   1:      Singlet-A      1.7210 eV  720.41 nm  f=0.3752  <S**2>=0.000
     245 -> 248        0.19417
     246 -> 247        0.68075
     245 <- 248        0.11639
 This state for optimization and/or second-order correction.
 Total Energy, E(TD-HF/TD-DFT) =  -3007.78824448
 Copying the excited state density for this state as the 1-particle RhoCI density.

 Excited State   2:      Singlet-A      2.1994 eV  563.73 nm  f=0.0888  <S**2>=0.000
     245 -> 247        0.63072
     246 -> 248       -0.30701

 Excited State   3:      Singlet-A      3.4050 eV  364.13 nm  f=0.0399  <S**2>=0.000
     242 -> 247       -0.39460
     242 -> 249       -0.21427
     242 -> 250       -0.17367
     244 -> 247        0.40541
     244 -> 249        0.10733
     246 -> 248        0.23115

 Excited State   4:      Singlet-A      3.5399 eV  350.25 nm  f=0.2027  <S**2>=0.000
     241 -> 247        0.42928
     244 -> 247       -0.37103
     245 -> 247        0.16337
     246 -> 248        0.34475

 Excited State   5:      Singlet-A      3.5815 eV  346.18 nm  f=0.1134  <S**2>=0.000
     241 -> 247        0.16480
     242 -> 247        0.40006
     242 -> 249        0.16912
     242 -> 250        0.13422
     244 -> 247        0.36228
     245 -> 247        0.10581
     246 -> 248        0.30547

 The electronic state is 1-A.
 Alpha  occ. eigenvalues --  -46.96183 -19.30995 -19.30027 -19.25660 -19.24647
 Alpha  occ. eigenvalues --  -19.24308 -19.22756 -14.47033 -14.46588 -14.44606
 Alpha  occ. eigenvalues --  -14.43680 -10.43795 -10.42778 -10.40123 -10.37534
 Alpha  occ. eigenvalues --  -10.36246 -10.35639 -10.35392 -10.35189 -10.35097
 Alpha  occ. eigenvalues --  -10.34899 -10.34410 -10.34364 -10.32970 -10.32792
 Alpha  occ. eigenvalues --  -10.32657 -10.32432 -10.32114 -10.32008 -10.31914
 Alpha  occ. eigenvalues --  -10.31864 -10.31765 -10.31622 -10.31415 -10.31132
 Alpha  occ. eigenvalues --  -10.31120 -10.30979 -10.30659 -10.30476 -10.30349
 Alpha  occ. eigenvalues --  -10.30332 -10.30309 -10.30144 -10.29820 -10.29812
 Alpha  occ. eigenvalues --  -10.29704 -10.29622 -10.29617 -10.29406 -10.29355
 Alpha  occ. eigenvalues --  -10.29195 -10.29103 -10.28875 -10.28809 -10.28724
 Alpha  occ. eigenvalues --  -10.28660 -10.28656 -10.28599 -10.28364 -10.28204
 Alpha  occ. eigenvalues --  -10.28059 -10.28042 -10.27984 -10.27936 -10.27492
 Alpha  occ. eigenvalues --  -10.27341  -3.22074  -1.95653  -1.95188  -1.95039
 Alpha  occ. eigenvalues --   -1.18005  -1.17548  -1.12704  -1.11591  -1.10002
 Alpha  occ. eigenvalues --   -1.09986  -1.07959  -1.06543  -1.05581  -1.04503
 Alpha  occ. eigenvalues --   -0.95024  -0.92964  -0.91691  -0.91365  -0.91300
 Alpha  occ. eigenvalues --   -0.90784  -0.90475  -0.89800  -0.89276  -0.88693
 Alpha  occ. eigenvalues --   -0.88259  -0.87553  -0.86583  -0.86283  -0.85464
 Alpha  occ. eigenvalues --   -0.84759  -0.83903  -0.83082  -0.82710  -0.82370
 Alpha  occ. eigenvalues --   -0.81813  -0.80184  -0.79630  -0.79368  -0.77968
 Alpha  occ. eigenvalues --   -0.77679  -0.77254  -0.76830  -0.76211  -0.75826
 Alpha  occ. eigenvalues --   -0.75133  -0.74575  -0.73640  -0.71630  -0.71379
 Alpha  occ. eigenvalues --   -0.70854  -0.69548  -0.69309  -0.68287  -0.68033
 Alpha  occ. eigenvalues --   -0.67697  -0.67271  -0.67060  -0.66603  -0.65694
 Alpha  occ. eigenvalues --   -0.65516  -0.64979  -0.64778  -0.64505  -0.62719
 Alpha  occ. eigenvalues --   -0.61828  -0.61632  -0.61259  -0.61040  -0.59927
 Alpha  occ. eigenvalues --   -0.59751  -0.58596  -0.58018  -0.57823  -0.57489
 Alpha  occ. eigenvalues --   -0.57335  -0.56765  -0.56617  -0.56459  -0.56226
 Alpha  occ. eigenvalues --   -0.55999  -0.55413  -0.55276  -0.54985  -0.54498
 Alpha  occ. eigenvalues --   -0.54367  -0.54185  -0.54076  -0.53862  -0.53695
 Alpha  occ. eigenvalues --   -0.53526  -0.53215  -0.52962  -0.52728  -0.52524
 Alpha  occ. eigenvalues --   -0.52242  -0.52133  -0.52013  -0.51858  -0.51601
 Alpha  occ. eigenvalues --   -0.51404  -0.51337  -0.50985  -0.50728  -0.50696
 Alpha  occ. eigenvalues --   -0.50509  -0.50381  -0.50208  -0.50076  -0.49548
 Alpha  occ. eigenvalues --   -0.49417  -0.49188  -0.49111  -0.48984  -0.48843
 Alpha  occ. eigenvalues --   -0.48310  -0.48247  -0.48086  -0.48030  -0.47774
 Alpha  occ. eigenvalues --   -0.47215  -0.47112  -0.46942  -0.46854  -0.46549
 Alpha  occ. eigenvalues --   -0.46461  -0.46399  -0.46262  -0.45943  -0.45784
 Alpha  occ. eigenvalues --   -0.45652  -0.45367  -0.45224  -0.45007  -0.44924
 Alpha  occ. eigenvalues --   -0.44818  -0.44634  -0.44601  -0.44285  -0.43813
 Alpha  occ. eigenvalues --   -0.43630  -0.43519  -0.43465  -0.43284  -0.43216
 Alpha  occ. eigenvalues --   -0.42909  -0.42629  -0.42488  -0.42216  -0.42051
 Alpha  occ. eigenvalues --   -0.41970  -0.41596  -0.41062  -0.40665  -0.40648
 Alpha  occ. eigenvalues --   -0.40461  -0.40253  -0.39839  -0.39495  -0.39413
 Alpha  occ. eigenvalues --   -0.39156  -0.39021  -0.38858  -0.38428  -0.38417
 Alpha  occ. eigenvalues --   -0.38206  -0.37067  -0.37062  -0.36260  -0.36140
 Alpha  occ. eigenvalues --   -0.35676  -0.35396  -0.35014  -0.33748  -0.33532
 Alpha  occ. eigenvalues --   -0.32392  -0.32073  -0.31736  -0.31655  -0.26010
 Alpha  occ. eigenvalues --   -0.23112
 Alpha virt. eigenvalues --   -0.06856  -0.00019   0.02543   0.04487   0.04705
 Alpha virt. eigenvalues --    0.06716   0.07764   0.09029   0.09288   0.09627
 Alpha virt. eigenvalues --    0.10699   0.11100   0.11972   0.12208   0.12399

 Mulliken charges:
               1
     1  Mg   0.948412
     2  C   -0.091284
     3  C   -0.077869
     4  C   -0.059961
     5  C   -0.111280
     6  N   -0.331410
     7  C   -0.008161
     8  C   -0.039116
     9  C   -0.163418
    10  C    0.038620
    11  C    0.028125
    12  C    0.053026
    13  C   -0.033797
    14  C    0.207632
    15  O   -0.226350
    16  O   -0.385462
    17  N   -0.423832
    18  C    0.169118
    19  C   -0.183695
    20  C   -0.069335
    21  C    0.104704
    22  C    0.084034
    23  C    0.069230
    24  O   -0.221798
    25  C   -0.039794
    26  N   -0.366449
    27  C    0.078845
    28  C   -0.104324
    29  C   -0.091197
    30  C    0.077190
    31  C    0.061008
    32  C    0.003357
    33  C   -0.035884
    34  N   -0.391198
    35  C    0.159509
    36  C   -0.190522
    37  C    0.020475
    38  C    0.152312
    39  C    0.079096
    40  C    0.086715
    41  O   -0.196099
    42  C   -0.064771
    43  C    0.314598
    44  O   -0.246510
    45  O   -0.391763
    46  C    0.140817
    47  C    0.264257
    48  C   -0.171057
    49  C   -0.204800
    50  C    0.026478
    51  C    0.106434
    52  C   -0.084608
    53  C    0.041934
    54  C   -0.234320
    55  C   -0.008350
    56  C    0.015248
    57  C   -0.029599
    58  C    0.018938
    59  C   -0.180721
    60  C    0.001952
    61  C    0.035453
    62  C   -0.012858
    63  C   -0.018780
    64  C   -0.209690
    65  C    0.018578
    66  C   -0.015121
    67  H    0.001589
    68  H   -0.027712
    69  H   -0.000092
    70  H    0.039655
    71  H    0.033464
    72  H    0.043376
    73  H    0.035823
    74  H    0.036404
    75  H    0.036891
    76  H    0.042470
    77  H    0.053842
    78  H    0.051771
    79  H    0.023058
    80  H    0.068634
    81  H    0.062980
    82  H    0.064294
    83  H    0.066154
    84  H    0.050417
    85  H    0.031352
    86  H    0.016598
    87  H    0.035102
    88  H    0.022963
    89  H    0.048538
    90  H    0.034507
    91  H    0.028084
    92  H    0.022703
    93  H    0.053169
    94  H    0.012781
    95  H    0.067863
    96  H    0.013090
    97  H    0.057680
    98  H    0.055760
    99  H    0.063085
   100  H    0.057352
   101  H    0.053121
   102  H    0.073642
   103  H    0.052156
   104  H    0.020884
   105  H    0.034835
   106  H    0.034658
   107  H    0.035298
   108  H    0.027288
   109  H    0.027534
   110  H    0.022747
   111  H    0.025508
   112  H    0.018996
   113  H    0.026620
   114  H    0.021706
   115  H    0.016529
   116  H    0.025653
   117  H    0.027076
   118  H    0.016674
   119  H    0.033005
   120  H    0.010982
   121  H    0.012841
   122  H    0.013216
   123  H    0.011014
   124  H    0.026836
   125  H    0.019841
   126  H    0.015111
   127  H    0.016091
   128  H    0.028899
   129  H    0.007725
   130  H    0.026229
   131  H    0.017876
   132  H    0.021594
   133  H    0.011439
   134  H    0.023972
   135  H    0.017470
   136  H    0.014186
   137  H    0.029611
   138  H    0.033925
   139  H    0.026455
   140  H    0.026204
 Sum of Mulliken charges =  -0.00000

 Dipole moment (field-independent basis, Debye):
    X=             -0.3989    Y=              2.8166    Z=              1.8663  Tot=              3.4023
 Quadrupole moment (field-independent basis, Debye-Ang):
   XX=           -367.2281   YY=           -398.5107   ZZ=           -421.1566
   XY=             -8.7675   XZ=              0.8421   YZ=            -59.3487

 Normal termination of Gaussian 16 at Wed Apr 27 15:38:22 2022.
