 Gaussian 16, Revision A.03,
 Gaussian 16:  ES64L-G16RevA.03 25-Dec-2016

 --------------------
 #p ZINDO=(nstates=5)
 --------------------

 -----------------------------
 step_1201_chromophore_8 ZINDO
 -----------------------------
 Symbolic Z-matrix:
 Charge =  0 Multiplicity = 1

                         Standard orientation:
 ---------------------------------------------------------------------
 Center     Atomic      Atomic             Coordinates (Angstroms)
 Number     Number       Type             X           Y           Z
 ---------------------------------------------------------------------
      1         12           0       -4.402011    1.001058   -0.223984
      2          6           0       -3.482223   -2.376654   -0.951108
      3          6           0       -4.349770    0.145079    3.088716
      4          6           0       -4.668110    4.239331    0.532078
      5          6           0       -3.777425    1.758306   -3.514712
      6          7           0       -3.972003   -0.971984    0.928346
      7          6           0       -3.680302   -2.219640    0.420898
      8          6           0       -3.462149   -3.238143    1.537237
      9          6           0       -4.076335   -2.424908    2.798497
     10          6           0       -4.154704   -0.950428    2.281925
     11          6           0       -5.483040   -2.880557    3.111821
     12          6           0       -1.977609   -3.574924    1.777723
     13          6           0       -1.616094   -5.021295    1.567146
     14          6           0       -0.224233   -5.370067    0.893426
     15          8           0       -0.073952   -5.944771   -0.147141
     16          8           0        0.774759   -4.876621    1.678859
     17          7           0       -4.420631    2.102476    1.621713
     18          6           0       -4.468666    1.530809    2.830887
     19          6           0       -4.531006    2.620213    3.854524
     20          6           0       -4.602547    3.860993    3.162325
     21          6           0       -4.642277    3.457652    1.734945
     22          6           0       -4.735583    2.366157    5.300012
     23          6           0       -4.760366    5.264154    3.830979
     24          8           0       -4.680018    5.460267    5.034571
     25          6           0       -5.046852    6.485653    2.944667
     26          7           0       -4.173500    2.713199   -1.315178
     27          6           0       -4.533246    3.912785   -0.835031
     28          6           0       -4.797354    4.948220   -1.912906
     29          6           0       -4.122246    4.227743   -3.143222
     30          6           0       -4.079972    2.794165   -2.641452
     31          6           0       -6.163304    5.545416   -1.980150
     32          6           0       -2.694147    4.796896   -3.533130
     33          6           0       -2.721143    5.964378   -4.524360
     34          7           0       -3.887414   -0.069528   -1.970796
     35          6           0       -3.636610    0.425056   -3.196522
     36          6           0       -3.310839   -0.680091   -4.036363
     37          6           0       -3.264852   -1.844658   -3.249393
     38          6           0       -3.583951   -1.354586   -1.914864
     39          6           0       -2.798358   -0.751743   -5.451943
     40          6           0       -2.967111   -3.202324   -3.171794
     41          8           0       -2.567055   -3.955315   -4.031984
     42          6           0       -3.366217   -3.669977   -1.729896
     43          6           0       -4.733252   -4.321454   -1.766674
     44          8           0       -5.651008   -3.984065   -2.513914
     45          8           0       -4.791137   -5.290044   -0.743211
     46          6           0       -6.046756   -6.078232   -0.830560
     47          6           0        2.211790   -5.120604    1.271116
     48          6           0        2.840806   -3.773851    1.046491
     49          6           0        4.012758   -3.455736    0.532578
     50          6           0        5.092131   -4.486017    0.240708
     51          6           0        4.458716   -2.013132    0.322219
     52          6           0        5.570377   -1.675314    1.269093
     53          6           0        5.470269   -0.211399    1.698366
     54          6           0        6.731002    0.048335    2.559048
     55          6           0        6.356728    0.106891    4.078518
     56          6           0        7.358838    1.450112    2.189382
     57          6           0        8.163871    1.307855    0.868947
     58          6           0        7.885521    2.353218   -0.154867
     59          6           0        9.090176    3.252507   -0.513030
     60          6           0        8.574991    4.538735   -1.132567
     61          6           0       10.013791    2.638914   -1.700723
     62          6           0       11.414782    2.292504   -1.241343
     63          6           0       11.701617    0.772359   -1.194974
     64          6           0       13.120460    0.510796   -0.651468
     65          6           0       13.200192   -0.868377   -0.019153
     66          6           0       14.265992    0.643545   -1.757121
     67          1           0       -4.204829   -0.156395    4.127639
     68          1           0       -5.051272    5.229775    0.787494
     69          1           0       -3.680066    2.004585   -4.573670
     70          1           0       -4.116067   -4.109339    1.490357
     71          1           0       -3.542869   -2.432079    3.749848
     72          1           0       -6.234139   -2.145414    2.823041
     73          1           0       -5.464660   -2.987379    4.196896
     74          1           0       -5.798238   -3.817420    2.652520
     75          1           0       -1.592039   -3.369172    2.775389
     76          1           0       -1.367029   -2.963287    1.113474
     77          1           0       -2.485845   -5.356760    1.002840
     78          1           0       -1.536863   -5.478453    2.553975
     79          1           0       -4.884582    1.294263    5.425931
     80          1           0       -5.554884    2.914106    5.764695
     81          1           0       -3.758869    2.654795    5.688707
     82          1           0       -5.988358    6.347768    2.412630
     83          1           0       -4.277168    6.736924    2.215632
     84          1           0       -5.142482    7.358157    3.589938
     85          1           0       -4.158312    5.830460   -1.873009
     86          1           0       -4.796894    4.287845   -3.996801
     87          1           0       -6.863043    4.967701   -1.377065
     88          1           0       -6.589154    5.385783   -2.971443
     89          1           0       -6.101777    6.618217   -1.795990
     90          1           0       -2.015611    4.048135   -3.943342
     91          1           0       -2.182464    5.053488   -2.605433
     92          1           0       -3.152356    5.589835   -5.453146
     93          1           0       -1.840414    6.549621   -4.789364
     94          1           0       -3.499732    6.677801   -4.255620
     95          1           0       -1.802604   -1.194908   -5.435118
     96          1           0       -2.755009    0.221990   -5.939088
     97          1           0       -3.497076   -1.341790   -6.045414
     98          1           0       -2.678335   -4.330449   -1.200382
     99          1           0       -6.110379   -6.713022   -1.714971
    100          1           0       -6.885840   -5.383636   -0.855686
    101          1           0       -6.085666   -6.706955    0.058428
    102          1           0        2.365144   -5.707310    0.365413
    103          1           0        2.672589   -5.664361    2.096057
    104          1           0        2.154700   -2.947166    1.227160
    105          1           0        4.818923   -5.526842    0.066864
    106          1           0        5.638258   -4.647546    1.169580
    107          1           0        5.819415   -4.085225   -0.466283
    108          1           0        3.605941   -1.345980    0.453277
    109          1           0        4.888177   -2.019723   -0.679279
    110          1           0        6.561303   -1.836192    0.844432
    111          1           0        5.507863   -2.342779    2.129048
    112          1           0        4.659569   -0.080857    2.414884
    113          1           0        5.370003    0.478330    0.859509
    114          1           0        7.388636   -0.820277    2.561187
    115          1           0        7.132202    0.678217    4.589139
    116          1           0        6.366243   -0.880633    4.539504
    117          1           0        5.405300    0.591423    4.295330
    118          1           0        8.100154    1.615832    2.971368
    119          1           0        6.514300    2.138543    2.178157
    120          1           0        8.056472    0.281424    0.519018
    121          1           0        9.225915    1.319756    1.113373
    122          1           0        6.978425    2.862728    0.169405
    123          1           0        7.525065    1.741306   -0.982245
    124          1           0        9.556864    3.482837    0.444927
    125          1           0        8.601790    5.410664   -0.478353
    126          1           0        7.529980    4.490512   -1.438642
    127          1           0        9.053714    4.883099   -2.048875
    128          1           0       10.098546    3.256627   -2.594516
    129          1           0        9.364244    1.795596   -1.933366
    130          1           0       11.646265    2.746091   -0.277325
    131          1           0       11.977648    2.720336   -2.070569
    132          1           0       11.529419    0.301998   -2.163452
    133          1           0       10.990870    0.288269   -0.526634
    134          1           0       13.373168    1.198158    0.155866
    135          1           0       12.215624   -1.334709   -0.000489
    136          1           0       13.397336   -0.768221    1.048520
    137          1           0       14.016180   -1.474181   -0.413894
    138          1           0       15.050013    1.291699   -1.365754
    139          1           0       13.799542    1.014108   -2.669501
    140          1           0       14.788428   -0.265778   -2.054632
 ---------------------------------------------------------------------

 SCF Done:  E(RZINDO/S) =  -474.523319226     A.U. after   19 cycles

 Excitation energies and oscillator strengths:

 Excited State   1:      Singlet-A      1.2864 eV  963.77 nm  f=0.6042  <S**2>=0.000
     175 ->178        -0.19508
     176 ->177         0.66201
 This state for optimization and/or second-order correction.
 Total Energy, E(CIS/TDA) =  -474.476043258
 Copying the excited state density for this state as the 1-particle RhoCI density.

 Excited State   2:      Singlet-A      1.9234 eV  644.59 nm  f=0.0215  <S**2>=0.000
     175 ->177         0.53008
     176 ->178         0.44358

 Excited State   3:      Singlet-A      2.9574 eV  419.23 nm  f=0.2813  <S**2>=0.000
     170 ->177         0.29369
     170 ->179         0.27038
     170 ->181        -0.27042
     170 ->182        -0.12671
     170 ->185         0.12797
     170 ->187         0.10267
     170 ->188         0.10292
     172 ->177        -0.12179
     175 ->177        -0.20467
     176 ->178         0.26938

 Excited State   4:      Singlet-A      3.0229 eV  410.15 nm  f=0.3007  <S**2>=0.000
     170 ->177        -0.12204
     170 ->179        -0.13140
     170 ->181         0.13073
     171 ->177         0.10267
     175 ->177        -0.20133
     176 ->178         0.25364
     176 ->179         0.10785
     176 ->180         0.52583

 Excited State   5:      Singlet-A      3.0535 eV  406.03 nm  f=0.3475  <S**2>=0.000
     175 ->177         0.22939
     176 ->178        -0.26973
     176 ->179         0.47533
     176 ->180         0.23475
     176 ->181        -0.14639

 The electronic state is 1-A.
 Alpha  occ. eigenvalues --   -1.86633  -1.83116  -1.79750  -1.72428  -1.70663
 Alpha  occ. eigenvalues --   -1.70318  -1.66868  -1.62104  -1.59654  -1.58419
 Alpha  occ. eigenvalues --   -1.56090  -1.52295  -1.48726  -1.48218  -1.46960
 Alpha  occ. eigenvalues --   -1.46103  -1.43858  -1.41621  -1.38976  -1.38716
 Alpha  occ. eigenvalues --   -1.36864  -1.33944  -1.33386  -1.32378  -1.30057
 Alpha  occ. eigenvalues --   -1.29747  -1.27397  -1.23195  -1.20800  -1.17936
 Alpha  occ. eigenvalues --   -1.16163  -1.15509  -1.14486  -1.14101  -1.13587
 Alpha  occ. eigenvalues --   -1.12121  -1.10611  -1.09645  -1.05302  -1.02748
 Alpha  occ. eigenvalues --   -1.02410  -1.00449  -0.98678  -0.97335  -0.96843
 Alpha  occ. eigenvalues --   -0.95563  -0.94910  -0.94291  -0.93643  -0.93601
 Alpha  occ. eigenvalues --   -0.91135  -0.90526  -0.88846  -0.88396  -0.88035
 Alpha  occ. eigenvalues --   -0.86821  -0.84751  -0.83397  -0.82711  -0.81427
 Alpha  occ. eigenvalues --   -0.80268  -0.79518  -0.77155  -0.77096  -0.76511
 Alpha  occ. eigenvalues --   -0.76210  -0.75775  -0.74999  -0.73459  -0.73269
 Alpha  occ. eigenvalues --   -0.73055  -0.72743  -0.72457  -0.71696  -0.71151
 Alpha  occ. eigenvalues --   -0.70636  -0.69724  -0.69323  -0.68607  -0.67686
 Alpha  occ. eigenvalues --   -0.67592  -0.67417  -0.66802  -0.65939  -0.65717
 Alpha  occ. eigenvalues --   -0.64980  -0.64812  -0.64639  -0.64022  -0.63878
 Alpha  occ. eigenvalues --   -0.63078  -0.62933  -0.62768  -0.62610  -0.62123
 Alpha  occ. eigenvalues --   -0.61463  -0.60929  -0.60846  -0.60505  -0.60029
 Alpha  occ. eigenvalues --   -0.59273  -0.58910  -0.58564  -0.58110  -0.57801
 Alpha  occ. eigenvalues --   -0.57548  -0.57263  -0.57022  -0.56904  -0.56589
 Alpha  occ. eigenvalues --   -0.55827  -0.55495  -0.55361  -0.54954  -0.54646
 Alpha  occ. eigenvalues --   -0.54040  -0.53733  -0.53358  -0.52834  -0.52787
 Alpha  occ. eigenvalues --   -0.52385  -0.52224  -0.51781  -0.51527  -0.51502
 Alpha  occ. eigenvalues --   -0.51401  -0.50958  -0.50751  -0.50513  -0.50385
 Alpha  occ. eigenvalues --   -0.50022  -0.49793  -0.49352  -0.49153  -0.48898
 Alpha  occ. eigenvalues --   -0.48600  -0.48542  -0.47926  -0.47778  -0.47585
 Alpha  occ. eigenvalues --   -0.47345  -0.47049  -0.46935  -0.46779  -0.46676
 Alpha  occ. eigenvalues --   -0.46193  -0.46051  -0.46036  -0.45712  -0.45330
 Alpha  occ. eigenvalues --   -0.44966  -0.44949  -0.44496  -0.44411  -0.44051
 Alpha  occ. eigenvalues --   -0.43968  -0.42605  -0.42476  -0.42221  -0.42205
 Alpha  occ. eigenvalues --   -0.41593  -0.41053  -0.41049  -0.39245  -0.38487
 Alpha  occ. eigenvalues --   -0.38357  -0.36911  -0.36308  -0.35102  -0.34202
 Alpha  occ. eigenvalues --   -0.33315  -0.32825  -0.32114  -0.31948  -0.26793
 Alpha  occ. eigenvalues --   -0.21813
 Alpha virt. eigenvalues --   -0.08380  -0.02353  -0.00439   0.00972   0.01488
 Alpha virt. eigenvalues --    0.02456   0.02746   0.02925   0.04590   0.05742
 Alpha virt. eigenvalues --    0.06283   0.06539   0.07204   0.07827   0.08328

 Mulliken charges:
               1
     1  Mg   0.435550
     2  C   -0.037128
     3  C   -0.086859
     4  C   -0.094039
     5  C   -0.054854
     6  N   -0.309239
     7  C    0.120205
     8  C    0.008021
     9  C   -0.008488
    10  C    0.146960
    11  C   -0.048743
    12  C   -0.016487
    13  C   -0.004675
    14  C    0.466126
    15  O   -0.498464
    16  O   -0.281601
    17  N   -0.313706
    18  C    0.126921
    19  C    0.040915
    20  C   -0.057430
    21  C    0.112355
    22  C   -0.035993
    23  C    0.332075
    24  O   -0.506317
    25  C   -0.029891
    26  N   -0.243647
    27  C    0.142384
    28  C   -0.002064
    29  C   -0.001245
    30  C    0.106551
    31  C   -0.043868
    32  C   -0.018495
    33  C   -0.059551
    34  N   -0.303467
    35  C    0.095337
    36  C    0.033622
    37  C   -0.065067
    38  C    0.117248
    39  C   -0.040362
    40  C    0.347767
    41  O   -0.522884
    42  C    0.055766
    43  C    0.483768
    44  O   -0.514199
    45  O   -0.282338
    46  C    0.074202
    47  C    0.107877
    48  C   -0.090051
    49  C   -0.003854
    50  C   -0.051485
    51  C   -0.019968
    52  C   -0.025484
    53  C   -0.037110
    54  C   -0.030353
    55  C   -0.067700
    56  C   -0.039802
    57  C   -0.039396
    58  C   -0.030848
    59  C   -0.010243
    60  C   -0.061193
    61  C   -0.040904
    62  C   -0.037630
    63  C   -0.027299
    64  C   -0.013540
    65  C   -0.062668
    66  C   -0.063848
    67  H    0.019834
    68  H    0.018594
    69  H    0.026268
    70  H    0.044375
    71  H    0.031882
    72  H    0.025056
    73  H    0.014938
    74  H    0.023176
    75  H    0.023700
    76  H    0.026333
    77  H    0.041844
    78  H    0.035619
    79  H    0.019923
    80  H    0.046318
    81  H    0.043319
    82  H    0.034849
    83  H    0.037937
    84  H    0.032580
    85  H    0.023550
    86  H    0.025507
    87  H    0.025842
    88  H    0.015346
    89  H    0.029335
    90  H    0.021174
    91  H    0.017832
    92  H    0.011915
    93  H    0.031190
    94  H    0.009829
    95  H    0.039613
    96  H    0.010510
    97  H    0.038140
    98  H    0.051080
    99  H    0.049437
   100  H    0.045577
   101  H    0.027129
   102  H    0.062707
   103  H    0.041764
   104  H    0.022997
   105  H    0.030008
   106  H    0.019396
   107  H    0.024751
   108  H    0.028060
   109  H    0.026661
   110  H    0.020105
   111  H    0.020814
   112  H    0.022512
   113  H    0.027377
   114  H    0.029763
   115  H    0.009517
   116  H    0.012471
   117  H    0.019469
   118  H    0.018784
   119  H    0.035275
   120  H    0.015498
   121  H    0.009012
   122  H    0.018903
   123  H    0.013038
   124  H    0.033481
   125  H    0.007339
   126  H    0.010784
   127  H    0.014197
   128  H    0.027993
   129  H    0.021209
   130  H    0.029395
   131  H    0.017723
   132  H    0.023654
   133  H    0.015116
   134  H    0.022834
   135  H    0.019802
   136  H    0.006026
   137  H    0.024984
   138  H    0.018492
   139  H    0.018049
   140  H    0.021319
 Sum of Mulliken charges =  -0.00000

 Dipole moment (field-independent basis, Debye):
    X=             -1.0266    Y=              3.8707    Z=              3.9394  Tot=              5.6174
 N-N= 4.418723696067D+03 E-N= 0.000000000000D+00  KE=-9.511827148971D+03
 Leave Link  601 at Wed Apr 27 15:50:38 2022, MaxMem=  6710886400 cpu:               0.7 elap:               0.0
 (Enter /sw/apps/gaussian-16.0/g16/l9999.exe)
 1\1\GINC-BP1-COMPUTE174\SP\RZINDO CIS\STO-3G\C55H74Mg1N4O6\OF15641\27-
 Apr-2022\0\\#p ZINDO=(nstates=5)\\step_1201_chromophore_8 ZINDO\\0,1\M
 g,0,44.329,3.786,47.92\C,0,41.737,6.151,47.233\C,0,41.908,1.368,47.958
 \C,0,46.744,1.485,47.965\C,0,46.61,6.254,47.214\N,0,42.021,3.806,47.64
 \C,0,41.188,4.884,47.432\C,0,39.732,4.445,47.296\C,0,39.83,2.929,47.86
 3\C,0,41.364,2.624,47.833\C,0,39.371,2.851,49.301\C,0,39.224,4.45,45.8
 41\C,0,38.065,5.375,45.58\C,0,38.017,6.171,44.21\O,0,38.042,7.363,44.0

 Normal termination of Gaussian 16 at Wed Apr 27 15:50:38 2022.
