 Gaussian 16, Revision A.03,
 Gaussian 16:  ES64L-G16RevA.03 25-Dec-2016

 ------------------------------
 #p blyp/Def2SVP td=(nstates=5)
 ------------------------------

 ---------------------------------------------------
 step_1351_chromophore_23 TDDFT with blyp functional
 ---------------------------------------------------
 Symbolic Z-matrix:
 Charge =  0 Multiplicity = 1

                         Standard orientation:
 ---------------------------------------------------------------------
 Center     Atomic      Atomic             Coordinates (Angstroms)
 Number     Number       Type             X           Y           Z
 ---------------------------------------------------------------------
      1         12           0       -4.587152    0.733054    0.320225
      2          6           0       -3.437010   -2.675656   -0.313728
      3          6           0       -2.677804    0.561468    3.099297
      4          6           0       -5.051146    3.971103    0.658648
      5          6           0       -6.139982    0.623199   -2.758566
      6          7           0       -3.375585   -1.065568    1.368475
      7          6           0       -2.934715   -2.192431    0.865278
      8          6           0       -1.850510   -2.835441    1.693681
      9          6           0       -1.753399   -1.837141    2.921194
     10          6           0       -2.678182   -0.694852    2.468466
     11          6           0       -2.015189   -2.383671    4.374756
     12          6           0       -0.488701   -2.968002    0.881901
     13          6           0        0.205517   -4.378673    0.859827
     14          6           0        1.322044   -4.526964    1.877308
     15          8           0        1.299024   -4.340491    3.092016
     16          8           0        2.498086   -4.872356    1.180261
     17          7           0       -4.128712    2.059004    1.768058
     18          6           0       -3.313323    1.779523    2.800126
     19          6           0       -3.136873    3.079185    3.593060
     20          6           0       -3.914303    4.102711    2.988143
     21          6           0       -4.398209    3.392836    1.776069
     22          6           0       -2.390527    3.224175    4.884588
     23          6           0       -4.106472    5.511561    3.477491
     24          8           0       -3.731733    5.804749    4.591036
     25          6           0       -4.904616    6.488680    2.597180
     26          7           0       -5.415844    2.101892   -0.880149
     27          6           0       -5.533210    3.410665   -0.561865
     28          6           0       -6.042549    4.235829   -1.763192
     29          6           0       -6.544918    3.146448   -2.753585
     30          6           0       -6.047295    1.869148   -2.077135
     31          6           0       -7.025297    5.450114   -1.534634
     32          6           0       -6.083884    3.174449   -4.205194
     33          6           0       -7.224491    2.990673   -5.246554
     34          7           0       -4.847943   -0.747020   -1.249058
     35          6           0       -5.580008   -0.598728   -2.429865
     36          6           0       -5.465199   -1.857801   -3.040683
     37          6           0       -4.586914   -2.695019   -2.301885
     38          6           0       -4.263230   -1.972253   -1.224480
     39          6           0       -6.078673   -2.126050   -4.346417
     40          6           0       -3.947202   -3.965529   -2.267199
     41          8           0       -4.086953   -4.879527   -3.039750
     42          6           0       -3.158372   -3.970562   -0.964992
     43          6           0       -3.575904   -5.222413   -0.278083
     44          8           0       -4.759222   -5.455216    0.134317
     45          8           0       -2.566914   -6.144702   -0.282055
     46          6           0       -2.645752   -7.279757    0.513407
     47          6           0        3.754486   -4.624377    1.877203
     48          6           0        4.779721   -4.000005    0.894314
     49          6           0        5.111658   -2.704220    0.804410
     50          6           0        4.265559   -1.677696    1.551074
     51          6           0        6.184613   -2.218594   -0.209981
     52          6           0        7.450894   -1.527291    0.386603
     53          6           0        8.665350   -2.471005    0.269419
     54          6           0        9.985717   -1.892405   -0.327589
     55          6           0       11.166416   -2.724579    0.047354
     56          6           0        9.806078   -1.469264   -1.752311
     57          6           0        9.854692    0.113663   -2.032539
     58          6           0        8.638177    0.647073   -2.838516
     59          6           0        7.935471    1.896509   -2.151188
     60          6           0        6.402225    1.760703   -2.147528
     61          6           0        8.431815    3.287832   -2.745481
     62          6           0        9.194897    4.096023   -1.686741
     63          6           0        8.557822    5.514427   -1.431360
     64          6           0        8.417501    5.759335    0.117436
     65          6           0        7.024291    6.141687    0.471936
     66          6           0        9.282875    6.850550    0.805329
     67          1           0       -2.128053    0.598658    4.041690
     68          1           0       -5.210513    5.049977    0.724675
     69          1           0       -6.566411    0.668940   -3.763659
     70          1           0       -2.214301   -3.776668    2.104901
     71          1           0       -0.756707   -1.421922    3.068952
     72          1           0       -1.285163   -2.330863    5.182621
     73          1           0       -2.201554   -3.454987    4.297458
     74          1           0       -2.872050   -1.832757    4.763015
     75          1           0        0.342189   -2.402153    1.301205
     76          1           0       -0.556745   -2.737631   -0.181100
     77          1           0        0.639340   -4.670939   -0.095857
     78          1           0       -0.423639   -5.239063    1.087415
     79          1           0       -1.647443    2.437320    5.016095
     80          1           0       -3.069564    3.121207    5.730041
     81          1           0       -1.844405    4.161792    4.989817
     82          1           0       -5.960606    6.322033    2.386573
     83          1           0       -4.311388    6.595527    1.689102
     84          1           0       -4.943148    7.446589    3.116227
     85          1           0       -5.111294    4.660811   -2.137962
     86          1           0       -7.630239    3.222737   -2.689426
     87          1           0       -7.248908    5.597802   -0.477787
     88          1           0       -7.922363    5.282636   -2.130685
     89          1           0       -6.569515    6.393659   -1.833416
     90          1           0       -5.332840    2.456558   -4.533533
     91          1           0       -5.702603    4.171446   -4.422505
     92          1           0       -7.482048    3.960866   -5.670847
     93          1           0       -8.180985    2.705803   -4.807989
     94          1           0       -6.985825    2.200807   -5.958491
     95          1           0       -5.900377   -3.146177   -4.686687
     96          1           0       -5.827431   -1.353068   -5.072766
     97          1           0       -7.162574   -2.115603   -4.231625
     98          1           0       -2.157084   -4.017651   -1.393418
     99          1           0       -1.621694   -7.607166    0.692974
    100          1           0       -3.130172   -8.145469    0.061545
    101          1           0       -3.171163   -7.031289    1.435578
    102          1           0        4.008930   -5.577621    2.340726
    103          1           0        3.747695   -3.904253    2.695530
    104          1           0        5.291554   -4.750383    0.293180
    105          1           0        3.192092   -1.844122    1.638955
    106          1           0        4.426853   -0.648207    1.232378
    107          1           0        4.559591   -1.669770    2.600732
    108          1           0        5.665749   -1.450680   -0.782650
    109          1           0        6.401070   -2.965810   -0.973511
    110          1           0        7.148307   -1.251992    1.396786
    111          1           0        7.573413   -0.662819   -0.265552
    112          1           0        8.427134   -3.299462   -0.396641
    113          1           0        8.665828   -2.709089    1.332993
    114          1           0       10.100671   -0.996677    0.283571
    115          1           0       10.864330   -3.482308    0.770829
    116          1           0       11.882167   -2.030831    0.487863
    117          1           0       11.639447   -3.080254   -0.868190
    118          1           0        8.945837   -1.950706   -2.216936
    119          1           0       10.658936   -1.812570   -2.339527
    120          1           0       10.689726    0.352784   -2.692121
    121          1           0       10.116010    0.670228   -1.133290
    122          1           0        7.815215   -0.047679   -3.005685
    123          1           0        8.999655    0.915392   -3.830102
    124          1           0        8.248868    1.861182   -1.107206
    125          1           0        5.959122    1.132507   -2.921154
    126          1           0        5.970094    2.747944   -2.311216
    127          1           0        6.185931    1.337380   -1.166723
    128          1           0        7.601055    3.918892   -3.063636
    129          1           0        9.107864    3.075306   -3.572939
    130          1           0       10.206437    4.341208   -2.011569
    131          1           0        9.407363    3.526436   -0.782369
    132          1           0        7.562525    5.648888   -1.855945
    133          1           0        9.220395    6.246697   -1.893879
    134          1           0        8.659125    4.845965    0.662025
    135          1           0        6.827566    5.703352    1.449970
    136          1           0        6.217580    5.844667   -0.198169
    137          1           0        6.948226    7.228815    0.454287
    138          1           0        9.489687    7.646978    0.089287
    139          1           0       10.292448    6.476164    0.976156
    140          1           0        8.963140    7.173080    1.795786
 ---------------------------------------------------------------------

 SCF Done:  E(RB-LYP) =  -3007.32549074     A.U. after   21 cycles

 Excitation energies and oscillator strengths:

 Excited State   1:      Singlet-A      1.8247 eV  679.49 nm  f=0.2780  <S**2>=0.000
     245 -> 248       -0.18514
     246 -> 247        0.68178
     246 <- 247       -0.14122
 This state for optimization and/or second-order correction.
 Total Energy, E(TD-HF/TD-DFT) =  -3007.25843550
 Copying the excited state density for this state as the 1-particle RhoCI density.

 Excited State   2:      Singlet-A      1.9368 eV  640.16 nm  f=0.0127  <S**2>=0.000
     244 -> 247        0.62733
     245 -> 247        0.30920

 Excited State   3:      Singlet-A      2.0548 eV  603.38 nm  f=0.0469  <S**2>=0.000
     243 -> 247        0.18797
     244 -> 247       -0.30530
     245 -> 247        0.54965
     246 -> 248        0.22362
     246 -> 249       -0.11389

 Excited State   4:      Singlet-A      2.2973 eV  539.70 nm  f=0.0001  <S**2>=0.000
     242 -> 247        0.70571

 Excited State   5:      Singlet-A      2.3140 eV  535.80 nm  f=0.0161  <S**2>=0.000
     243 -> 247        0.67096
     245 -> 247       -0.12926

 The electronic state is 1-A.
 Alpha  occ. eigenvalues --  -46.27404 -18.82623 -18.81216 -18.77317 -18.76652
 Alpha  occ. eigenvalues --  -18.76458 -18.75186 -14.03655 -14.03008 -14.02094
 Alpha  occ. eigenvalues --  -13.99717 -10.04426 -10.04011 -10.01040  -9.98707
 Alpha  occ. eigenvalues --   -9.97528  -9.97354  -9.97310  -9.96944  -9.96900
 Alpha  occ. eigenvalues --   -9.96683  -9.96637  -9.95843  -9.94808  -9.94783
 Alpha  occ. eigenvalues --   -9.94683  -9.94523  -9.94366  -9.94262  -9.94009
 Alpha  occ. eigenvalues --   -9.93689  -9.93511  -9.93502  -9.93479  -9.93300
 Alpha  occ. eigenvalues --   -9.93194  -9.93185  -9.93109  -9.92956  -9.92909
 Alpha  occ. eigenvalues --   -9.92886  -9.92783  -9.92626  -9.92487  -9.92341
 Alpha  occ. eigenvalues --   -9.92226  -9.92112  -9.92061  -9.91943  -9.91941
 Alpha  occ. eigenvalues --   -9.91844  -9.91640  -9.91631  -9.91589  -9.91468
 Alpha  occ. eigenvalues --   -9.91334  -9.91332  -9.91194  -9.91132  -9.91090
 Alpha  occ. eigenvalues --   -9.91072  -9.91010  -9.90831  -9.90715  -9.90184
 Alpha  occ. eigenvalues --   -9.89391  -2.92108  -1.72537  -1.72012  -1.71801
 Alpha  occ. eigenvalues --   -0.98494  -0.96532  -0.93133  -0.92065  -0.89404
 Alpha  occ. eigenvalues --   -0.88167  -0.87523  -0.86953  -0.86292  -0.85262
 Alpha  occ. eigenvalues --   -0.76809  -0.73777  -0.73224  -0.72681  -0.72403
 Alpha  occ. eigenvalues --   -0.72103  -0.71918  -0.71081  -0.70960  -0.70288
 Alpha  occ. eigenvalues --   -0.69588  -0.69075  -0.68324  -0.68178  -0.67729
 Alpha  occ. eigenvalues --   -0.66889  -0.66605  -0.65680  -0.65537  -0.64885
 Alpha  occ. eigenvalues --   -0.64239  -0.62652  -0.62334  -0.62070  -0.61345
 Alpha  occ. eigenvalues --   -0.60748  -0.59999  -0.59907  -0.59736  -0.59109
 Alpha  occ. eigenvalues --   -0.58446  -0.57489  -0.57170  -0.55959  -0.55206
 Alpha  occ. eigenvalues --   -0.53894  -0.53683  -0.53581  -0.52147  -0.52084
 Alpha  occ. eigenvalues --   -0.52015  -0.51535  -0.51519  -0.50747  -0.50135
 Alpha  occ. eigenvalues --   -0.49546  -0.49210  -0.48950  -0.48575  -0.46860
 Alpha  occ. eigenvalues --   -0.46360  -0.46346  -0.46224  -0.45753  -0.45463
 Alpha  occ. eigenvalues --   -0.44321  -0.43778  -0.43615  -0.43264  -0.42880
 Alpha  occ. eigenvalues --   -0.42720  -0.42268  -0.41983  -0.41586  -0.41389
 Alpha  occ. eigenvalues --   -0.41098  -0.40751  -0.40615  -0.40445  -0.40386
 Alpha  occ. eigenvalues --   -0.40224  -0.39968  -0.39838  -0.39489  -0.39196
 Alpha  occ. eigenvalues --   -0.39011  -0.38994  -0.38649  -0.38508  -0.38378
 Alpha  occ. eigenvalues --   -0.38103  -0.38019  -0.37871  -0.37635  -0.37139
 Alpha  occ. eigenvalues --   -0.37095  -0.36884  -0.36843  -0.36664  -0.36540
 Alpha  occ. eigenvalues --   -0.36343  -0.36206  -0.36110  -0.35790  -0.35534
 Alpha  occ. eigenvalues --   -0.35325  -0.35198  -0.34924  -0.34841  -0.34613
 Alpha  occ. eigenvalues --   -0.34551  -0.34325  -0.34251  -0.34100  -0.33948
 Alpha  occ. eigenvalues --   -0.33869  -0.33753  -0.33708  -0.33515  -0.33306
 Alpha  occ. eigenvalues --   -0.33036  -0.32796  -0.32680  -0.32600  -0.32446
 Alpha  occ. eigenvalues --   -0.32207  -0.32156  -0.32000  -0.31821  -0.31754
 Alpha  occ. eigenvalues --   -0.31454  -0.31256  -0.31081  -0.31051  -0.30831
 Alpha  occ. eigenvalues --   -0.30534  -0.30503  -0.30181  -0.30025  -0.29958
 Alpha  occ. eigenvalues --   -0.29853  -0.29671  -0.29646  -0.29092  -0.29063
 Alpha  occ. eigenvalues --   -0.28810  -0.28756  -0.28570  -0.28257  -0.28116
 Alpha  occ. eigenvalues --   -0.27712  -0.27338  -0.26966  -0.26769  -0.26432
 Alpha  occ. eigenvalues --   -0.26257  -0.25991  -0.25745  -0.25497  -0.24729
 Alpha  occ. eigenvalues --   -0.24687  -0.24537  -0.24354  -0.24191  -0.23880
 Alpha  occ. eigenvalues --   -0.23113  -0.22347  -0.22092  -0.21566  -0.21283
 Alpha  occ. eigenvalues --   -0.20690  -0.19851  -0.19355  -0.18583  -0.17445
 Alpha  occ. eigenvalues --   -0.15900
 Alpha virt. eigenvalues --   -0.11496  -0.07438  -0.06233  -0.04800  -0.03675
 Alpha virt. eigenvalues --   -0.03446  -0.02522  -0.01639  -0.01344  -0.00547
 Alpha virt. eigenvalues --    0.00805   0.01342   0.01765   0.02128   0.02370

 Mulliken charges:
               1
     1  Mg   0.706220
     2  C    0.029208
     3  C   -0.061055
     4  C   -0.066000
     5  C   -0.071854
     6  N   -0.121678
     7  C   -0.190587
     8  C    0.119980
     9  C   -0.027912
    10  C    0.015230
    11  C    0.108994
    12  C    0.128475
    13  C    0.121866
    14  C    0.036293
    15  O   -0.194925
    16  O   -0.290336
    17  N   -0.292741
    18  C    0.142117
    19  C   -0.159496
    20  C    0.054414
    21  C    0.117064
    22  C    0.176035
    23  C   -0.073155
    24  O   -0.139470
    25  C    0.114204
    26  N   -0.262310
    27  C    0.018555
    28  C    0.014355
    29  C    0.063520
    30  C    0.030961
    31  C    0.129171
    32  C    0.089523
    33  C    0.037471
    34  N   -0.260108
    35  C    0.128968
    36  C   -0.178232
    37  C    0.134153
    38  C    0.090220
    39  C    0.172697
    40  C   -0.161861
    41  O   -0.104838
    42  C    0.141178
    43  C    0.125351
    44  O   -0.224168
    45  O   -0.236602
    46  C    0.219316
    47  C    0.301537
    48  C   -0.102374
    49  C   -0.105510
    50  C    0.117970
    51  C    0.101771
    52  C    0.080109
    53  C    0.072421
    54  C   -0.087783
    55  C    0.161833
    56  C    0.136556
    57  C    0.061317
    58  C    0.097869
    59  C   -0.121382
    60  C    0.097435
    61  C    0.148179
    62  C    0.036758
    63  C    0.114474
    64  C   -0.091449
    65  C    0.094331
    66  C    0.098874
    67  H   -0.061486
    68  H   -0.103573
    69  H   -0.073694
    70  H   -0.013575
    71  H   -0.017306
    72  H   -0.003548
    73  H   -0.010801
    74  H   -0.009269
    75  H   -0.001460
    76  H   -0.004322
    77  H   -0.013262
    78  H   -0.000532
    79  H   -0.026896
    80  H    0.010564
    81  H    0.007664
    82  H    0.028831
    83  H    0.020282
    84  H   -0.018674
    85  H   -0.015507
    86  H   -0.019613
    87  H   -0.000431
    88  H   -0.005208
    89  H   -0.012105
    90  H   -0.001443
    91  H   -0.026933
    92  H   -0.007828
    93  H   -0.015635
    94  H    0.003505
    95  H   -0.004394
    96  H   -0.001773
    97  H   -0.017725
    98  H   -0.007714
    99  H    0.007238
   100  H    0.013259
   101  H    0.006087
   102  H   -0.014414
   103  H   -0.015638
   104  H   -0.042477
   105  H    0.008099
   106  H   -0.014495
   107  H   -0.000471
   108  H   -0.034356
   109  H   -0.027460
   110  H   -0.021821
   111  H   -0.022279
   112  H   -0.025399
   113  H   -0.029312
   114  H   -0.046204
   115  H   -0.014218
   116  H   -0.023355
   117  H   -0.025344
   118  H   -0.028369
   119  H   -0.043336
   120  H   -0.037261
   121  H   -0.022349
   122  H   -0.033479
   123  H   -0.031811
   124  H   -0.023889
   125  H   -0.011195
   126  H   -0.023289
   127  H   -0.004370
   128  H   -0.031022
   129  H   -0.036814
   130  H   -0.041716
   131  H   -0.021900
   132  H   -0.026663
   133  H   -0.031952
   134  H   -0.033528
   135  H   -0.016528
   136  H   -0.030229
   137  H   -0.019654
   138  H   -0.019065
   139  H   -0.039977
   140  H   -0.006334
 Sum of Mulliken charges =  -0.00000

 Dipole moment (field-independent basis, Debye):
    X=              2.7041    Y=              4.8952    Z=             -1.8742  Tot=              5.8981
 Quadrupole moment (field-independent basis, Debye-Ang):
   XX=           -387.4083   YY=           -420.7514   ZZ=           -417.7360
   XY=            -36.7812   XZ=              7.4999   YZ=            -33.0474

 Normal termination of Gaussian 16 at Thu Apr 28 00:40:31 2022.
