 Gaussian 16, Revision A.03,
 Gaussian 16:  ES64L-G16RevA.03 25-Dec-2016

 -----------------------------------
 #p cam-b3lyp/Def2SVP td=(nstates=5)
 -----------------------------------

 --------------------------------------------------------
 step_1351_chromophore_23 TDDFT with cam-b3lyp functional
 --------------------------------------------------------
 Symbolic Z-matrix:
 Charge =  0 Multiplicity = 1

                         Standard orientation:
 ---------------------------------------------------------------------
 Center     Atomic      Atomic             Coordinates (Angstroms)
 Number     Number       Type             X           Y           Z
 ---------------------------------------------------------------------
      1         12           0       -4.587152    0.733054    0.320225
      2          6           0       -3.437010   -2.675656   -0.313728
      3          6           0       -2.677804    0.561468    3.099297
      4          6           0       -5.051146    3.971103    0.658648
      5          6           0       -6.139982    0.623199   -2.758566
      6          7           0       -3.375585   -1.065568    1.368475
      7          6           0       -2.934715   -2.192431    0.865278
      8          6           0       -1.850510   -2.835441    1.693681
      9          6           0       -1.753399   -1.837141    2.921194
     10          6           0       -2.678182   -0.694852    2.468466
     11          6           0       -2.015189   -2.383671    4.374756
     12          6           0       -0.488701   -2.968002    0.881901
     13          6           0        0.205517   -4.378673    0.859827
     14          6           0        1.322044   -4.526964    1.877308
     15          8           0        1.299024   -4.340491    3.092016
     16          8           0        2.498086   -4.872356    1.180261
     17          7           0       -4.128712    2.059004    1.768058
     18          6           0       -3.313323    1.779523    2.800126
     19          6           0       -3.136873    3.079185    3.593060
     20          6           0       -3.914303    4.102711    2.988143
     21          6           0       -4.398209    3.392836    1.776069
     22          6           0       -2.390527    3.224175    4.884588
     23          6           0       -4.106472    5.511561    3.477491
     24          8           0       -3.731733    5.804749    4.591036
     25          6           0       -4.904616    6.488680    2.597180
     26          7           0       -5.415844    2.101892   -0.880149
     27          6           0       -5.533210    3.410665   -0.561865
     28          6           0       -6.042549    4.235829   -1.763192
     29          6           0       -6.544918    3.146448   -2.753585
     30          6           0       -6.047295    1.869148   -2.077135
     31          6           0       -7.025297    5.450114   -1.534634
     32          6           0       -6.083884    3.174449   -4.205194
     33          6           0       -7.224491    2.990673   -5.246554
     34          7           0       -4.847943   -0.747020   -1.249058
     35          6           0       -5.580008   -0.598728   -2.429865
     36          6           0       -5.465199   -1.857801   -3.040683
     37          6           0       -4.586914   -2.695019   -2.301885
     38          6           0       -4.263230   -1.972253   -1.224480
     39          6           0       -6.078673   -2.126050   -4.346417
     40          6           0       -3.947202   -3.965529   -2.267199
     41          8           0       -4.086953   -4.879527   -3.039750
     42          6           0       -3.158372   -3.970562   -0.964992
     43          6           0       -3.575904   -5.222413   -0.278083
     44          8           0       -4.759222   -5.455216    0.134317
     45          8           0       -2.566914   -6.144702   -0.282055
     46          6           0       -2.645752   -7.279757    0.513407
     47          6           0        3.754486   -4.624377    1.877203
     48          6           0        4.779721   -4.000005    0.894314
     49          6           0        5.111658   -2.704220    0.804410
     50          6           0        4.265559   -1.677696    1.551074
     51          6           0        6.184613   -2.218594   -0.209981
     52          6           0        7.450894   -1.527291    0.386603
     53          6           0        8.665350   -2.471005    0.269419
     54          6           0        9.985717   -1.892405   -0.327589
     55          6           0       11.166416   -2.724579    0.047354
     56          6           0        9.806078   -1.469264   -1.752311
     57          6           0        9.854692    0.113663   -2.032539
     58          6           0        8.638177    0.647073   -2.838516
     59          6           0        7.935471    1.896509   -2.151188
     60          6           0        6.402225    1.760703   -2.147528
     61          6           0        8.431815    3.287832   -2.745481
     62          6           0        9.194897    4.096023   -1.686741
     63          6           0        8.557822    5.514427   -1.431360
     64          6           0        8.417501    5.759335    0.117436
     65          6           0        7.024291    6.141687    0.471936
     66          6           0        9.282875    6.850550    0.805329
     67          1           0       -2.128053    0.598658    4.041690
     68          1           0       -5.210513    5.049977    0.724675
     69          1           0       -6.566411    0.668940   -3.763659
     70          1           0       -2.214301   -3.776668    2.104901
     71          1           0       -0.756707   -1.421922    3.068952
     72          1           0       -1.285163   -2.330863    5.182621
     73          1           0       -2.201554   -3.454987    4.297458
     74          1           0       -2.872050   -1.832757    4.763015
     75          1           0        0.342189   -2.402153    1.301205
     76          1           0       -0.556745   -2.737631   -0.181100
     77          1           0        0.639340   -4.670939   -0.095857
     78          1           0       -0.423639   -5.239063    1.087415
     79          1           0       -1.647443    2.437320    5.016095
     80          1           0       -3.069564    3.121207    5.730041
     81          1           0       -1.844405    4.161792    4.989817
     82          1           0       -5.960606    6.322033    2.386573
     83          1           0       -4.311388    6.595527    1.689102
     84          1           0       -4.943148    7.446589    3.116227
     85          1           0       -5.111294    4.660811   -2.137962
     86          1           0       -7.630239    3.222737   -2.689426
     87          1           0       -7.248908    5.597802   -0.477787
     88          1           0       -7.922363    5.282636   -2.130685
     89          1           0       -6.569515    6.393659   -1.833416
     90          1           0       -5.332840    2.456558   -4.533533
     91          1           0       -5.702603    4.171446   -4.422505
     92          1           0       -7.482048    3.960866   -5.670847
     93          1           0       -8.180985    2.705803   -4.807989
     94          1           0       -6.985825    2.200807   -5.958491
     95          1           0       -5.900377   -3.146177   -4.686687
     96          1           0       -5.827431   -1.353068   -5.072766
     97          1           0       -7.162574   -2.115603   -4.231625
     98          1           0       -2.157084   -4.017651   -1.393418
     99          1           0       -1.621694   -7.607166    0.692974
    100          1           0       -3.130172   -8.145469    0.061545
    101          1           0       -3.171163   -7.031289    1.435578
    102          1           0        4.008930   -5.577621    2.340726
    103          1           0        3.747695   -3.904253    2.695530
    104          1           0        5.291554   -4.750383    0.293180
    105          1           0        3.192092   -1.844122    1.638955
    106          1           0        4.426853   -0.648207    1.232378
    107          1           0        4.559591   -1.669770    2.600732
    108          1           0        5.665749   -1.450680   -0.782650
    109          1           0        6.401070   -2.965810   -0.973511
    110          1           0        7.148307   -1.251992    1.396786
    111          1           0        7.573413   -0.662819   -0.265552
    112          1           0        8.427134   -3.299462   -0.396641
    113          1           0        8.665828   -2.709089    1.332993
    114          1           0       10.100671   -0.996677    0.283571
    115          1           0       10.864330   -3.482308    0.770829
    116          1           0       11.882167   -2.030831    0.487863
    117          1           0       11.639447   -3.080254   -0.868190
    118          1           0        8.945837   -1.950706   -2.216936
    119          1           0       10.658936   -1.812570   -2.339527
    120          1           0       10.689726    0.352784   -2.692121
    121          1           0       10.116010    0.670228   -1.133290
    122          1           0        7.815215   -0.047679   -3.005685
    123          1           0        8.999655    0.915392   -3.830102
    124          1           0        8.248868    1.861182   -1.107206
    125          1           0        5.959122    1.132507   -2.921154
    126          1           0        5.970094    2.747944   -2.311216
    127          1           0        6.185931    1.337380   -1.166723
    128          1           0        7.601055    3.918892   -3.063636
    129          1           0        9.107864    3.075306   -3.572939
    130          1           0       10.206437    4.341208   -2.011569
    131          1           0        9.407363    3.526436   -0.782369
    132          1           0        7.562525    5.648888   -1.855945
    133          1           0        9.220395    6.246697   -1.893879
    134          1           0        8.659125    4.845965    0.662025
    135          1           0        6.827566    5.703352    1.449970
    136          1           0        6.217580    5.844667   -0.198169
    137          1           0        6.948226    7.228815    0.454287
    138          1           0        9.489687    7.646978    0.089287
    139          1           0       10.292448    6.476164    0.976156
    140          1           0        8.963140    7.173080    1.795786
 ---------------------------------------------------------------------

 SCF Done:  E(RCAM-B3LYP) =  -3007.12284566     A.U. after   17 cycles

 Excitation energies and oscillator strengths:

 Excited State   1:      Singlet-A      1.7747 eV  698.63 nm  f=0.3564  <S**2>=0.000
     245 -> 248        0.18221
     246 -> 247        0.68283
     245 <- 248        0.10391
 This state for optimization and/or second-order correction.
 Total Energy, E(TD-HF/TD-DFT) =  -3007.05762710
 Copying the excited state density for this state as the 1-particle RhoCI density.

 Excited State   2:      Singlet-A      2.2786 eV  544.12 nm  f=0.0804  <S**2>=0.000
     245 -> 247        0.61926
     246 -> 248       -0.32031

 Excited State   3:      Singlet-A      3.1474 eV  393.93 nm  f=0.0010  <S**2>=0.000
     244 -> 247        0.68106
     246 -> 248        0.12112

 Excited State   4:      Singlet-A      3.5040 eV  353.84 nm  f=0.7727  <S**2>=0.000
     245 -> 247        0.32253
     246 -> 248        0.60401
     245 <- 247       -0.10647

 Excited State   5:      Singlet-A      3.6354 eV  341.05 nm  f=0.0157  <S**2>=0.000
     243 -> 247        0.59435
     243 -> 249       -0.19615
     243 -> 250       -0.24815

 The electronic state is 1-A.
 Alpha  occ. eigenvalues --  -46.88977 -19.25524 -19.24096 -19.20410 -19.20239
 Alpha  occ. eigenvalues --  -19.19462 -19.18077 -14.42507 -14.41916 -14.40859
 Alpha  occ. eigenvalues --  -14.37770 -10.39937 -10.39478 -10.36558 -10.33680
 Alpha  occ. eigenvalues --  -10.32222 -10.31911 -10.31607 -10.31437 -10.31421
 Alpha  occ. eigenvalues --  -10.31378 -10.31101 -10.30011 -10.29939 -10.28872
 Alpha  occ. eigenvalues --  -10.28846 -10.28499 -10.28122 -10.28096 -10.27995
 Alpha  occ. eigenvalues --  -10.27981 -10.27832 -10.27694 -10.27543 -10.27524
 Alpha  occ. eigenvalues --  -10.27347 -10.27159 -10.27144 -10.27133 -10.27079
 Alpha  occ. eigenvalues --  -10.26796 -10.26729 -10.26321 -10.26274 -10.26082
 Alpha  occ. eigenvalues --  -10.26073 -10.25926 -10.25799 -10.25737 -10.25720
 Alpha  occ. eigenvalues --  -10.25589 -10.25543 -10.25320 -10.25240 -10.25178
 Alpha  occ. eigenvalues --  -10.25026 -10.24942 -10.24832 -10.24803 -10.24748
 Alpha  occ. eigenvalues --  -10.24601 -10.24441 -10.24366 -10.24231 -10.23751
 Alpha  occ. eigenvalues --  -10.22938  -3.17590  -1.92492  -1.92069  -1.91872
 Alpha  occ. eigenvalues --   -1.16913  -1.15032  -1.11913  -1.10255  -1.07300
 Alpha  occ. eigenvalues --   -1.06054  -1.05400  -1.04794  -1.04069  -1.02511
 Alpha  occ. eigenvalues --   -0.93826  -0.90614  -0.89894  -0.89456  -0.89148
 Alpha  occ. eigenvalues --   -0.88821  -0.88775  -0.87677  -0.87544  -0.87393
 Alpha  occ. eigenvalues --   -0.85957  -0.85310  -0.84525  -0.84328  -0.83962
 Alpha  occ. eigenvalues --   -0.82997  -0.82751  -0.81791  -0.81439  -0.80765
 Alpha  occ. eigenvalues --   -0.79945  -0.78292  -0.78016  -0.77785  -0.76727
 Alpha  occ. eigenvalues --   -0.76110  -0.75338  -0.75213  -0.75048  -0.74365
 Alpha  occ. eigenvalues --   -0.73516  -0.72410  -0.72073  -0.70812  -0.69770
 Alpha  occ. eigenvalues --   -0.68773  -0.68210  -0.68103  -0.66407  -0.66276
 Alpha  occ. eigenvalues --   -0.66226  -0.65747  -0.65503  -0.64839  -0.64202
 Alpha  occ. eigenvalues --   -0.63267  -0.63151  -0.62729  -0.62437  -0.60674
 Alpha  occ. eigenvalues --   -0.59943  -0.59906  -0.59799  -0.59170  -0.58939
 Alpha  occ. eigenvalues --   -0.57708  -0.57295  -0.56995  -0.56399  -0.55939
 Alpha  occ. eigenvalues --   -0.55872  -0.55354  -0.54833  -0.54687  -0.54184
 Alpha  occ. eigenvalues --   -0.53916  -0.53656  -0.53308  -0.53157  -0.53012
 Alpha  occ. eigenvalues --   -0.52965  -0.52897  -0.52507  -0.52221  -0.52085
 Alpha  occ. eigenvalues --   -0.51455  -0.51390  -0.51221  -0.50924  -0.50885
 Alpha  occ. eigenvalues --   -0.50783  -0.50475  -0.50277  -0.50075  -0.49905
 Alpha  occ. eigenvalues --   -0.49407  -0.49237  -0.49183  -0.48992  -0.48908
 Alpha  occ. eigenvalues --   -0.48732  -0.48449  -0.48285  -0.48056  -0.47797
 Alpha  occ. eigenvalues --   -0.47483  -0.47370  -0.47126  -0.46638  -0.46585
 Alpha  occ. eigenvalues --   -0.46534  -0.46243  -0.46060  -0.45951  -0.45767
 Alpha  occ. eigenvalues --   -0.45525  -0.45505  -0.45405  -0.45191  -0.44881
 Alpha  occ. eigenvalues --   -0.44618  -0.44446  -0.44413  -0.44215  -0.44090
 Alpha  occ. eigenvalues --   -0.43979  -0.43785  -0.43666  -0.43587  -0.43403
 Alpha  occ. eigenvalues --   -0.43111  -0.42869  -0.42537  -0.42415  -0.42088
 Alpha  occ. eigenvalues --   -0.41929  -0.41878  -0.41515  -0.41346  -0.41252
 Alpha  occ. eigenvalues --   -0.41136  -0.41066  -0.40831  -0.40725  -0.40175
 Alpha  occ. eigenvalues --   -0.39933  -0.39775  -0.39676  -0.39324  -0.39029
 Alpha  occ. eigenvalues --   -0.38656  -0.38250  -0.37900  -0.37790  -0.37302
 Alpha  occ. eigenvalues --   -0.37182  -0.36926  -0.36421  -0.36137  -0.35963
 Alpha  occ. eigenvalues --   -0.35828  -0.35292  -0.34869  -0.34467  -0.34219
 Alpha  occ. eigenvalues --   -0.34121  -0.33907  -0.33668  -0.32468  -0.31414
 Alpha  occ. eigenvalues --   -0.31041  -0.30467  -0.30369  -0.28139  -0.24267
 Alpha  occ. eigenvalues --   -0.21251
 Alpha virt. eigenvalues --   -0.08483  -0.02268   0.00077   0.02312   0.03382
 Alpha virt. eigenvalues --    0.03834   0.04187   0.04792   0.04986   0.06314
 Alpha virt. eigenvalues --    0.07487   0.08053   0.08268   0.08580   0.08785

 Mulliken charges:
               1
     1  Mg   0.839735
     2  C    0.001771
     3  C   -0.075204
     4  C   -0.093339
     5  C   -0.076784
     6  N   -0.190053
     7  C   -0.141966
     8  C    0.064927
     9  C   -0.073874
    10  C    0.034519
    11  C    0.051587
    12  C    0.076431
    13  C    0.052083
    14  C    0.124425
    15  O   -0.235705
    16  O   -0.355005
    17  N   -0.385627
    18  C    0.155923
    19  C   -0.161084
    20  C   -0.011039
    21  C    0.151744
    22  C    0.118345
    23  C    0.003958
    24  O   -0.177437
    25  C    0.029780
    26  N   -0.341447
    27  C    0.051040
    28  C   -0.040516
    29  C    0.006899
    30  C    0.053097
    31  C    0.070709
    32  C    0.024258
    33  C   -0.022160
    34  N   -0.348948
    35  C    0.127990
    36  C   -0.172130
    37  C    0.047135
    38  C    0.129463
    39  C    0.113718
    40  C   -0.053583
    41  O   -0.146339
    42  C    0.054130
    43  C    0.212854
    44  O   -0.260661
    45  O   -0.299487
    46  C    0.177429
    47  C    0.265694
    48  C   -0.119626
    49  C   -0.128381
    50  C    0.052519
    51  C    0.050948
    52  C    0.028137
    53  C    0.024523
    54  C   -0.143801
    55  C    0.100104
    56  C    0.074673
    57  C    0.009052
    58  C    0.046931
    59  C   -0.174243
    60  C    0.046033
    61  C    0.094136
    62  C   -0.016053
    63  C    0.061730
    64  C   -0.149442
    65  C    0.032037
    66  C    0.038040
    67  H   -0.026448
    68  H   -0.067663
    69  H   -0.039399
    70  H    0.019241
    71  H    0.017676
    72  H    0.022659
    73  H    0.014295
    74  H    0.015397
    75  H    0.024226
    76  H    0.026942
    77  H    0.026632
    78  H    0.026822
    79  H    0.000368
    80  H    0.040114
    81  H    0.037777
    82  H    0.057209
    83  H    0.046588
    84  H    0.019358
    85  H    0.020104
    86  H    0.014069
    87  H    0.021639
    88  H    0.020140
    89  H    0.013491
    90  H    0.030031
    91  H    0.002322
    92  H    0.016013
    93  H    0.007522
    94  H    0.026094
    95  H    0.024136
    96  H    0.019617
    97  H    0.008011
    98  H    0.035033
    99  H    0.027700
   100  H    0.036585
   101  H    0.029990
   102  H    0.015957
   103  H    0.014617
   104  H   -0.008783
   105  H    0.028829
   106  H    0.011910
   107  H    0.023641
   108  H   -0.005751
   109  H    0.002388
   110  H    0.005609
   111  H   -0.001485
   112  H    0.000930
   113  H   -0.000088
   114  H   -0.013847
   115  H    0.011956
   116  H    0.001631
   117  H   -0.001097
   118  H   -0.001093
   119  H   -0.011559
   120  H   -0.007109
   121  H    0.003013
   122  H   -0.007106
   123  H   -0.003145
   124  H    0.004258
   125  H    0.012091
   126  H    0.000027
   127  H    0.014470
   128  H   -0.003699
   129  H   -0.007408
   130  H   -0.011573
   131  H    0.002735
   132  H    0.000095
   133  H   -0.003125
   134  H   -0.002569
   135  H    0.007922
   136  H   -0.005417
   137  H    0.004817
   138  H    0.004339
   139  H   -0.014055
   140  H    0.018807
 Sum of Mulliken charges =  -0.00000

 Dipole moment (field-independent basis, Debye):
    X=              2.9083    Y=              5.9034    Z=             -1.1007  Tot=              6.6723
 Quadrupole moment (field-independent basis, Debye-Ang):
   XX=           -389.7938   YY=           -416.1330   ZZ=           -416.3341
   XY=            -42.3884   XZ=              5.2492   YZ=            -32.9693

 Normal termination of Gaussian 16 at Wed Apr 27 23:22:08 2022.
