 Gaussian 16, Revision A.03,
 Gaussian 16:  ES64L-G16RevA.03 25-Dec-2016

 ---------------------------------
 #p PBE1PBE/Def2SVP td=(nstates=5)
 ---------------------------------

 ------------------------------------------------------
 step_1351_chromophore_23 TDDFT with PBE1PBE functional
 ------------------------------------------------------
 Symbolic Z-matrix:
 Charge =  0 Multiplicity = 1

                         Standard orientation:
 ---------------------------------------------------------------------
 Center     Atomic      Atomic             Coordinates (Angstroms)
 Number     Number       Type             X           Y           Z
 ---------------------------------------------------------------------
      1         12           0       -4.587152    0.733054    0.320225
      2          6           0       -3.437010   -2.675656   -0.313728
      3          6           0       -2.677804    0.561468    3.099297
      4          6           0       -5.051146    3.971103    0.658648
      5          6           0       -6.139982    0.623199   -2.758566
      6          7           0       -3.375585   -1.065568    1.368475
      7          6           0       -2.934715   -2.192431    0.865278
      8          6           0       -1.850510   -2.835441    1.693681
      9          6           0       -1.753399   -1.837141    2.921194
     10          6           0       -2.678182   -0.694852    2.468466
     11          6           0       -2.015189   -2.383671    4.374756
     12          6           0       -0.488701   -2.968002    0.881901
     13          6           0        0.205517   -4.378673    0.859827
     14          6           0        1.322044   -4.526964    1.877308
     15          8           0        1.299024   -4.340491    3.092016
     16          8           0        2.498086   -4.872356    1.180261
     17          7           0       -4.128712    2.059004    1.768058
     18          6           0       -3.313323    1.779523    2.800126
     19          6           0       -3.136873    3.079185    3.593060
     20          6           0       -3.914303    4.102711    2.988143
     21          6           0       -4.398209    3.392836    1.776069
     22          6           0       -2.390527    3.224175    4.884588
     23          6           0       -4.106472    5.511561    3.477491
     24          8           0       -3.731733    5.804749    4.591036
     25          6           0       -4.904616    6.488680    2.597180
     26          7           0       -5.415844    2.101892   -0.880149
     27          6           0       -5.533210    3.410665   -0.561865
     28          6           0       -6.042549    4.235829   -1.763192
     29          6           0       -6.544918    3.146448   -2.753585
     30          6           0       -6.047295    1.869148   -2.077135
     31          6           0       -7.025297    5.450114   -1.534634
     32          6           0       -6.083884    3.174449   -4.205194
     33          6           0       -7.224491    2.990673   -5.246554
     34          7           0       -4.847943   -0.747020   -1.249058
     35          6           0       -5.580008   -0.598728   -2.429865
     36          6           0       -5.465199   -1.857801   -3.040683
     37          6           0       -4.586914   -2.695019   -2.301885
     38          6           0       -4.263230   -1.972253   -1.224480
     39          6           0       -6.078673   -2.126050   -4.346417
     40          6           0       -3.947202   -3.965529   -2.267199
     41          8           0       -4.086953   -4.879527   -3.039750
     42          6           0       -3.158372   -3.970562   -0.964992
     43          6           0       -3.575904   -5.222413   -0.278083
     44          8           0       -4.759222   -5.455216    0.134317
     45          8           0       -2.566914   -6.144702   -0.282055
     46          6           0       -2.645752   -7.279757    0.513407
     47          6           0        3.754486   -4.624377    1.877203
     48          6           0        4.779721   -4.000005    0.894314
     49          6           0        5.111658   -2.704220    0.804410
     50          6           0        4.265559   -1.677696    1.551074
     51          6           0        6.184613   -2.218594   -0.209981
     52          6           0        7.450894   -1.527291    0.386603
     53          6           0        8.665350   -2.471005    0.269419
     54          6           0        9.985717   -1.892405   -0.327589
     55          6           0       11.166416   -2.724579    0.047354
     56          6           0        9.806078   -1.469264   -1.752311
     57          6           0        9.854692    0.113663   -2.032539
     58          6           0        8.638177    0.647073   -2.838516
     59          6           0        7.935471    1.896509   -2.151188
     60          6           0        6.402225    1.760703   -2.147528
     61          6           0        8.431815    3.287832   -2.745481
     62          6           0        9.194897    4.096023   -1.686741
     63          6           0        8.557822    5.514427   -1.431360
     64          6           0        8.417501    5.759335    0.117436
     65          6           0        7.024291    6.141687    0.471936
     66          6           0        9.282875    6.850550    0.805329
     67          1           0       -2.128053    0.598658    4.041690
     68          1           0       -5.210513    5.049977    0.724675
     69          1           0       -6.566411    0.668940   -3.763659
     70          1           0       -2.214301   -3.776668    2.104901
     71          1           0       -0.756707   -1.421922    3.068952
     72          1           0       -1.285163   -2.330863    5.182621
     73          1           0       -2.201554   -3.454987    4.297458
     74          1           0       -2.872050   -1.832757    4.763015
     75          1           0        0.342189   -2.402153    1.301205
     76          1           0       -0.556745   -2.737631   -0.181100
     77          1           0        0.639340   -4.670939   -0.095857
     78          1           0       -0.423639   -5.239063    1.087415
     79          1           0       -1.647443    2.437320    5.016095
     80          1           0       -3.069564    3.121207    5.730041
     81          1           0       -1.844405    4.161792    4.989817
     82          1           0       -5.960606    6.322033    2.386573
     83          1           0       -4.311388    6.595527    1.689102
     84          1           0       -4.943148    7.446589    3.116227
     85          1           0       -5.111294    4.660811   -2.137962
     86          1           0       -7.630239    3.222737   -2.689426
     87          1           0       -7.248908    5.597802   -0.477787
     88          1           0       -7.922363    5.282636   -2.130685
     89          1           0       -6.569515    6.393659   -1.833416
     90          1           0       -5.332840    2.456558   -4.533533
     91          1           0       -5.702603    4.171446   -4.422505
     92          1           0       -7.482048    3.960866   -5.670847
     93          1           0       -8.180985    2.705803   -4.807989
     94          1           0       -6.985825    2.200807   -5.958491
     95          1           0       -5.900377   -3.146177   -4.686687
     96          1           0       -5.827431   -1.353068   -5.072766
     97          1           0       -7.162574   -2.115603   -4.231625
     98          1           0       -2.157084   -4.017651   -1.393418
     99          1           0       -1.621694   -7.607166    0.692974
    100          1           0       -3.130172   -8.145469    0.061545
    101          1           0       -3.171163   -7.031289    1.435578
    102          1           0        4.008930   -5.577621    2.340726
    103          1           0        3.747695   -3.904253    2.695530
    104          1           0        5.291554   -4.750383    0.293180
    105          1           0        3.192092   -1.844122    1.638955
    106          1           0        4.426853   -0.648207    1.232378
    107          1           0        4.559591   -1.669770    2.600732
    108          1           0        5.665749   -1.450680   -0.782650
    109          1           0        6.401070   -2.965810   -0.973511
    110          1           0        7.148307   -1.251992    1.396786
    111          1           0        7.573413   -0.662819   -0.265552
    112          1           0        8.427134   -3.299462   -0.396641
    113          1           0        8.665828   -2.709089    1.332993
    114          1           0       10.100671   -0.996677    0.283571
    115          1           0       10.864330   -3.482308    0.770829
    116          1           0       11.882167   -2.030831    0.487863
    117          1           0       11.639447   -3.080254   -0.868190
    118          1           0        8.945837   -1.950706   -2.216936
    119          1           0       10.658936   -1.812570   -2.339527
    120          1           0       10.689726    0.352784   -2.692121
    121          1           0       10.116010    0.670228   -1.133290
    122          1           0        7.815215   -0.047679   -3.005685
    123          1           0        8.999655    0.915392   -3.830102
    124          1           0        8.248868    1.861182   -1.107206
    125          1           0        5.959122    1.132507   -2.921154
    126          1           0        5.970094    2.747944   -2.311216
    127          1           0        6.185931    1.337380   -1.166723
    128          1           0        7.601055    3.918892   -3.063636
    129          1           0        9.107864    3.075306   -3.572939
    130          1           0       10.206437    4.341208   -2.011569
    131          1           0        9.407363    3.526436   -0.782369
    132          1           0        7.562525    5.648888   -1.855945
    133          1           0        9.220395    6.246697   -1.893879
    134          1           0        8.659125    4.845965    0.662025
    135          1           0        6.827566    5.703352    1.449970
    136          1           0        6.217580    5.844667   -0.198169
    137          1           0        6.948226    7.228815    0.454287
    138          1           0        9.489687    7.646978    0.089287
    139          1           0       10.292448    6.476164    0.976156
    140          1           0        8.963140    7.173080    1.795786
 ---------------------------------------------------------------------

 SCF Done:  E(RPBE1PBE) =  -3005.31148289     A.U. after   15 cycles

 Excitation energies and oscillator strengths:

 Excited State   1:      Singlet-A      1.8953 eV  654.16 nm  f=0.3445  <S**2>=0.000
     245 -> 248       -0.17547
     246 -> 247        0.68881
     246 <- 247       -0.10029
 This state for optimization and/or second-order correction.
 Total Energy, E(TD-HF/TD-DFT) =  -3005.24183138
 Copying the excited state density for this state as the 1-particle RhoCI density.

 Excited State   2:      Singlet-A      2.2747 eV  545.05 nm  f=0.0801  <S**2>=0.000
     244 -> 247        0.10691
     245 -> 247        0.63250
     246 -> 248        0.28297

 Excited State   3:      Singlet-A      2.7933 eV  443.86 nm  f=0.0076  <S**2>=0.000
     244 -> 247        0.68931
     246 -> 248       -0.10748

 Excited State   4:      Singlet-A      3.0376 eV  408.17 nm  f=0.0041  <S**2>=0.000
     243 -> 247        0.68052
     243 -> 249        0.10837
     243 -> 250        0.11390

 Excited State   5:      Singlet-A      3.2334 eV  383.45 nm  f=0.3167  <S**2>=0.000
     240 -> 247        0.12040
     245 -> 247       -0.23656
     246 -> 248        0.58224
     246 -> 249        0.25186

 The electronic state is 1-A.
 Alpha  occ. eigenvalues --  -46.92362 -19.26193 -19.24803 -19.20658 -19.20241
 Alpha  occ. eigenvalues --  -19.19789 -19.18482 -14.42059 -14.41308 -14.40321
 Alpha  occ. eigenvalues --  -14.37630 -10.37025 -10.36506 -10.33507 -10.30975
 Alpha  occ. eigenvalues --  -10.29734 -10.29257 -10.29079 -10.28960 -10.28909
 Alpha  occ. eigenvalues --  -10.28817 -10.28604 -10.27807 -10.27277 -10.26656
 Alpha  occ. eigenvalues --  -10.26655 -10.26166 -10.26032 -10.25990 -10.25862
 Alpha  occ. eigenvalues --  -10.25521 -10.25435 -10.25381 -10.25041 -10.25037
 Alpha  occ. eigenvalues --  -10.25033 -10.24897 -10.24795 -10.24764 -10.24549
 Alpha  occ. eigenvalues --  -10.24461 -10.24323 -10.24307 -10.23713 -10.23666
 Alpha  occ. eigenvalues --  -10.23461 -10.23336 -10.23329 -10.23292 -10.23282
 Alpha  occ. eigenvalues --  -10.23143 -10.23121 -10.22970 -10.22816 -10.22750
 Alpha  occ. eigenvalues --  -10.22617 -10.22616 -10.22416 -10.22384 -10.22308
 Alpha  occ. eigenvalues --  -10.22017 -10.21998 -10.21825 -10.21605 -10.21101
 Alpha  occ. eigenvalues --  -10.20904  -3.14553  -1.87397  -1.86953  -1.86758
 Alpha  occ. eigenvalues --   -1.11762  -1.09807  -1.06465  -1.05171  -1.02154
 Alpha  occ. eigenvalues --   -1.00880  -0.99955  -0.99338  -0.98638  -0.97409
 Alpha  occ. eigenvalues --   -0.88347  -0.84718  -0.84223  -0.83590  -0.83285
 Alpha  occ. eigenvalues --   -0.82998  -0.82967  -0.81999  -0.81654  -0.81438
 Alpha  occ. eigenvalues --   -0.80313  -0.79694  -0.78819  -0.78640  -0.78158
 Alpha  occ. eigenvalues --   -0.77138  -0.76928  -0.76027  -0.75802  -0.74909
 Alpha  occ. eigenvalues --   -0.74197  -0.72587  -0.72281  -0.72003  -0.71118
 Alpha  occ. eigenvalues --   -0.70274  -0.69692  -0.69345  -0.69145  -0.68533
 Alpha  occ. eigenvalues --   -0.67816  -0.66859  -0.66580  -0.65089  -0.64174
 Alpha  occ. eigenvalues --   -0.63056  -0.62650  -0.62444  -0.60708  -0.60663
 Alpha  occ. eigenvalues --   -0.60600  -0.60070  -0.59963  -0.59418  -0.58304
 Alpha  occ. eigenvalues --   -0.57866  -0.57329  -0.57216  -0.56646  -0.55136
 Alpha  occ. eigenvalues --   -0.54506  -0.54379  -0.54172  -0.53762  -0.53488
 Alpha  occ. eigenvalues --   -0.52364  -0.51754  -0.51463  -0.50782  -0.50527
 Alpha  occ. eigenvalues --   -0.50389  -0.49910  -0.49375  -0.49266  -0.48633
 Alpha  occ. eigenvalues --   -0.48366  -0.48126  -0.47930  -0.47742  -0.47550
 Alpha  occ. eigenvalues --   -0.47389  -0.47274  -0.47011  -0.46839  -0.46575
 Alpha  occ. eigenvalues --   -0.46242  -0.45918  -0.45767  -0.45453  -0.45390
 Alpha  occ. eigenvalues --   -0.45342  -0.45067  -0.44768  -0.44525  -0.44398
 Alpha  occ. eigenvalues --   -0.43970  -0.43874  -0.43843  -0.43656  -0.43478
 Alpha  occ. eigenvalues --   -0.43356  -0.43114  -0.42921  -0.42687  -0.42483
 Alpha  occ. eigenvalues --   -0.42075  -0.41911  -0.41724  -0.41324  -0.41254
 Alpha  occ. eigenvalues --   -0.41171  -0.40936  -0.40723  -0.40626  -0.40601
 Alpha  occ. eigenvalues --   -0.40249  -0.40197  -0.40147  -0.39902  -0.39562
 Alpha  occ. eigenvalues --   -0.39397  -0.39260  -0.39177  -0.38933  -0.38799
 Alpha  occ. eigenvalues --   -0.38682  -0.38544  -0.38379  -0.38299  -0.38158
 Alpha  occ. eigenvalues --   -0.37853  -0.37680  -0.37321  -0.37285  -0.36987
 Alpha  occ. eigenvalues --   -0.36847  -0.36661  -0.36364  -0.36217  -0.36043
 Alpha  occ. eigenvalues --   -0.36027  -0.35768  -0.35696  -0.35493  -0.35137
 Alpha  occ. eigenvalues --   -0.34899  -0.34747  -0.34451  -0.34200  -0.33867
 Alpha  occ. eigenvalues --   -0.33392  -0.33085  -0.32884  -0.32584  -0.32292
 Alpha  occ. eigenvalues --   -0.31992  -0.31966  -0.31274  -0.31003  -0.30930
 Alpha  occ. eigenvalues --   -0.30767  -0.30120  -0.29741  -0.29601  -0.29417
 Alpha  occ. eigenvalues --   -0.29210  -0.28992  -0.28571  -0.27111  -0.26815
 Alpha  occ. eigenvalues --   -0.26591  -0.25760  -0.25392  -0.24029  -0.21166
 Alpha  occ. eigenvalues --   -0.18841
 Alpha virt. eigenvalues --   -0.11025  -0.05749  -0.04056  -0.02176  -0.00671
 Alpha virt. eigenvalues --   -0.00420   0.00485   0.00831   0.01224   0.02158
 Alpha virt. eigenvalues --    0.03618   0.04384   0.04692   0.05002   0.05308

 Mulliken charges:
               1
     1  Mg   0.989281
     2  C   -0.008374
     3  C   -0.061579
     4  C   -0.091766
     5  C   -0.078707
     6  N   -0.296276
     7  C   -0.057484
     8  C   -0.009908
     9  C   -0.135991
    10  C    0.064802
    11  C   -0.004973
    12  C    0.020035
    13  C   -0.023901
    14  C    0.191376
    15  O   -0.269191
    16  O   -0.383469
    17  N   -0.507692
    18  C    0.177987
    19  C   -0.192820
    20  C   -0.042392
    21  C    0.170135
    22  C    0.060756
    23  C    0.049947
    24  O   -0.214307
    25  C   -0.046036
    26  N   -0.452796
    27  C    0.088829
    28  C   -0.110234
    29  C   -0.075451
    30  C    0.096953
    31  C    0.009790
    32  C   -0.042080
    33  C   -0.090455
    34  N   -0.476131
    35  C    0.165000
    36  C   -0.200230
    37  C   -0.008387
    38  C    0.185680
    39  C    0.062720
    40  C    0.053356
    41  O   -0.194320
    42  C   -0.060658
    43  C    0.300862
    44  O   -0.293772
    45  O   -0.334099
    46  C    0.124283
    47  C    0.219306
    48  C   -0.125664
    49  C   -0.169963
    50  C   -0.016681
    51  C   -0.009753
    52  C   -0.047060
    53  C   -0.029541
    54  C   -0.230419
    55  C    0.039221
    56  C    0.019694
    57  C   -0.053064
    58  C   -0.005659
    59  C   -0.256697
    60  C   -0.014879
    61  C    0.038982
    62  C   -0.076153
    63  C    0.009976
    64  C   -0.239840
    65  C   -0.031091
    66  C   -0.026185
    67  H    0.005108
    68  H   -0.030375
    69  H   -0.002868
    70  H    0.057400
    71  H    0.053987
    72  H    0.048444
    73  H    0.040861
    74  H    0.043125
    75  H    0.060135
    76  H    0.059031
    77  H    0.058208
    78  H    0.064164
    79  H    0.026648
    80  H    0.066939
    81  H    0.063710
    82  H    0.082258
    83  H    0.072396
    84  H    0.047561
    85  H    0.058473
    86  H    0.052455
    87  H    0.048818
    88  H    0.046367
    89  H    0.040868
    90  H    0.061974
    91  H    0.037826
    92  H    0.044381
    93  H    0.034445
    94  H    0.052160
    95  H    0.053334
    96  H    0.047634
    97  H    0.038629
    98  H    0.073721
    99  H    0.048808
   100  H    0.058780
   101  H    0.051293
   102  H    0.043247
   103  H    0.041147
   104  H    0.021335
   105  H    0.060348
   106  H    0.039636
   107  H    0.051328
   108  H    0.029822
   109  H    0.032108
   110  H    0.039071
   111  H    0.043121
   112  H    0.033812
   113  H    0.032712
   114  H    0.026440
   115  H    0.038967
   116  H    0.029604
   117  H    0.026400
   118  H    0.030262
   119  H    0.022263
   120  H    0.025979
   121  H    0.032689
   122  H    0.023863
   123  H    0.028874
   124  H    0.040980
   125  H    0.038449
   126  H    0.028222
   127  H    0.042300
   128  H    0.027781
   129  H    0.025390
   130  H    0.022083
   131  H    0.031541
   132  H    0.030587
   133  H    0.029007
   134  H    0.035518
   135  H    0.036360
   136  H    0.022327
   137  H    0.033145
   138  H    0.032516
   139  H    0.015386
   140  H    0.045835
 Sum of Mulliken charges =  -0.00000

 Dipole moment (field-independent basis, Debye):
    X=              2.8078    Y=              5.6147    Z=             -1.6227  Tot=              6.4840
 Quadrupole moment (field-independent basis, Debye-Ang):
   XX=           -384.6810   YY=           -413.5163   ZZ=           -412.4496
   XY=            -41.3350   XZ=              8.4224   YZ=            -33.9467

 Normal termination of Gaussian 16 at Wed Apr 27 23:48:44 2022.
