 Gaussian 16, Revision A.03,
 Gaussian 16:  ES64L-G16RevA.03 25-Dec-2016

 --------------------------------
 #p wB97XD/Def2SVP td=(nstates=5)
 --------------------------------

 -----------------------------------------------------
 step_1351_chromophore_23 TDDFT with wB97XD functional
 -----------------------------------------------------
 Symbolic Z-matrix:
 Charge =  0 Multiplicity = 1

                         Standard orientation:
 ---------------------------------------------------------------------
 Center     Atomic      Atomic             Coordinates (Angstroms)
 Number     Number       Type             X           Y           Z
 ---------------------------------------------------------------------
      1         12           0       -4.587152    0.733054    0.320225
      2          6           0       -3.437010   -2.675656   -0.313728
      3          6           0       -2.677804    0.561468    3.099297
      4          6           0       -5.051146    3.971103    0.658648
      5          6           0       -6.139982    0.623199   -2.758566
      6          7           0       -3.375585   -1.065568    1.368475
      7          6           0       -2.934715   -2.192431    0.865278
      8          6           0       -1.850510   -2.835441    1.693681
      9          6           0       -1.753399   -1.837141    2.921194
     10          6           0       -2.678182   -0.694852    2.468466
     11          6           0       -2.015189   -2.383671    4.374756
     12          6           0       -0.488701   -2.968002    0.881901
     13          6           0        0.205517   -4.378673    0.859827
     14          6           0        1.322044   -4.526964    1.877308
     15          8           0        1.299024   -4.340491    3.092016
     16          8           0        2.498086   -4.872356    1.180261
     17          7           0       -4.128712    2.059004    1.768058
     18          6           0       -3.313323    1.779523    2.800126
     19          6           0       -3.136873    3.079185    3.593060
     20          6           0       -3.914303    4.102711    2.988143
     21          6           0       -4.398209    3.392836    1.776069
     22          6           0       -2.390527    3.224175    4.884588
     23          6           0       -4.106472    5.511561    3.477491
     24          8           0       -3.731733    5.804749    4.591036
     25          6           0       -4.904616    6.488680    2.597180
     26          7           0       -5.415844    2.101892   -0.880149
     27          6           0       -5.533210    3.410665   -0.561865
     28          6           0       -6.042549    4.235829   -1.763192
     29          6           0       -6.544918    3.146448   -2.753585
     30          6           0       -6.047295    1.869148   -2.077135
     31          6           0       -7.025297    5.450114   -1.534634
     32          6           0       -6.083884    3.174449   -4.205194
     33          6           0       -7.224491    2.990673   -5.246554
     34          7           0       -4.847943   -0.747020   -1.249058
     35          6           0       -5.580008   -0.598728   -2.429865
     36          6           0       -5.465199   -1.857801   -3.040683
     37          6           0       -4.586914   -2.695019   -2.301885
     38          6           0       -4.263230   -1.972253   -1.224480
     39          6           0       -6.078673   -2.126050   -4.346417
     40          6           0       -3.947202   -3.965529   -2.267199
     41          8           0       -4.086953   -4.879527   -3.039750
     42          6           0       -3.158372   -3.970562   -0.964992
     43          6           0       -3.575904   -5.222413   -0.278083
     44          8           0       -4.759222   -5.455216    0.134317
     45          8           0       -2.566914   -6.144702   -0.282055
     46          6           0       -2.645752   -7.279757    0.513407
     47          6           0        3.754486   -4.624377    1.877203
     48          6           0        4.779721   -4.000005    0.894314
     49          6           0        5.111658   -2.704220    0.804410
     50          6           0        4.265559   -1.677696    1.551074
     51          6           0        6.184613   -2.218594   -0.209981
     52          6           0        7.450894   -1.527291    0.386603
     53          6           0        8.665350   -2.471005    0.269419
     54          6           0        9.985717   -1.892405   -0.327589
     55          6           0       11.166416   -2.724579    0.047354
     56          6           0        9.806078   -1.469264   -1.752311
     57          6           0        9.854692    0.113663   -2.032539
     58          6           0        8.638177    0.647073   -2.838516
     59          6           0        7.935471    1.896509   -2.151188
     60          6           0        6.402225    1.760703   -2.147528
     61          6           0        8.431815    3.287832   -2.745481
     62          6           0        9.194897    4.096023   -1.686741
     63          6           0        8.557822    5.514427   -1.431360
     64          6           0        8.417501    5.759335    0.117436
     65          6           0        7.024291    6.141687    0.471936
     66          6           0        9.282875    6.850550    0.805329
     67          1           0       -2.128053    0.598658    4.041690
     68          1           0       -5.210513    5.049977    0.724675
     69          1           0       -6.566411    0.668940   -3.763659
     70          1           0       -2.214301   -3.776668    2.104901
     71          1           0       -0.756707   -1.421922    3.068952
     72          1           0       -1.285163   -2.330863    5.182621
     73          1           0       -2.201554   -3.454987    4.297458
     74          1           0       -2.872050   -1.832757    4.763015
     75          1           0        0.342189   -2.402153    1.301205
     76          1           0       -0.556745   -2.737631   -0.181100
     77          1           0        0.639340   -4.670939   -0.095857
     78          1           0       -0.423639   -5.239063    1.087415
     79          1           0       -1.647443    2.437320    5.016095
     80          1           0       -3.069564    3.121207    5.730041
     81          1           0       -1.844405    4.161792    4.989817
     82          1           0       -5.960606    6.322033    2.386573
     83          1           0       -4.311388    6.595527    1.689102
     84          1           0       -4.943148    7.446589    3.116227
     85          1           0       -5.111294    4.660811   -2.137962
     86          1           0       -7.630239    3.222737   -2.689426
     87          1           0       -7.248908    5.597802   -0.477787
     88          1           0       -7.922363    5.282636   -2.130685
     89          1           0       -6.569515    6.393659   -1.833416
     90          1           0       -5.332840    2.456558   -4.533533
     91          1           0       -5.702603    4.171446   -4.422505
     92          1           0       -7.482048    3.960866   -5.670847
     93          1           0       -8.180985    2.705803   -4.807989
     94          1           0       -6.985825    2.200807   -5.958491
     95          1           0       -5.900377   -3.146177   -4.686687
     96          1           0       -5.827431   -1.353068   -5.072766
     97          1           0       -7.162574   -2.115603   -4.231625
     98          1           0       -2.157084   -4.017651   -1.393418
     99          1           0       -1.621694   -7.607166    0.692974
    100          1           0       -3.130172   -8.145469    0.061545
    101          1           0       -3.171163   -7.031289    1.435578
    102          1           0        4.008930   -5.577621    2.340726
    103          1           0        3.747695   -3.904253    2.695530
    104          1           0        5.291554   -4.750383    0.293180
    105          1           0        3.192092   -1.844122    1.638955
    106          1           0        4.426853   -0.648207    1.232378
    107          1           0        4.559591   -1.669770    2.600732
    108          1           0        5.665749   -1.450680   -0.782650
    109          1           0        6.401070   -2.965810   -0.973511
    110          1           0        7.148307   -1.251992    1.396786
    111          1           0        7.573413   -0.662819   -0.265552
    112          1           0        8.427134   -3.299462   -0.396641
    113          1           0        8.665828   -2.709089    1.332993
    114          1           0       10.100671   -0.996677    0.283571
    115          1           0       10.864330   -3.482308    0.770829
    116          1           0       11.882167   -2.030831    0.487863
    117          1           0       11.639447   -3.080254   -0.868190
    118          1           0        8.945837   -1.950706   -2.216936
    119          1           0       10.658936   -1.812570   -2.339527
    120          1           0       10.689726    0.352784   -2.692121
    121          1           0       10.116010    0.670228   -1.133290
    122          1           0        7.815215   -0.047679   -3.005685
    123          1           0        8.999655    0.915392   -3.830102
    124          1           0        8.248868    1.861182   -1.107206
    125          1           0        5.959122    1.132507   -2.921154
    126          1           0        5.970094    2.747944   -2.311216
    127          1           0        6.185931    1.337380   -1.166723
    128          1           0        7.601055    3.918892   -3.063636
    129          1           0        9.107864    3.075306   -3.572939
    130          1           0       10.206437    4.341208   -2.011569
    131          1           0        9.407363    3.526436   -0.782369
    132          1           0        7.562525    5.648888   -1.855945
    133          1           0        9.220395    6.246697   -1.893879
    134          1           0        8.659125    4.845965    0.662025
    135          1           0        6.827566    5.703352    1.449970
    136          1           0        6.217580    5.844667   -0.198169
    137          1           0        6.948226    7.228815    0.454287
    138          1           0        9.489687    7.646978    0.089287
    139          1           0       10.292448    6.476164    0.976156
    140          1           0        8.963140    7.173080    1.795786
 ---------------------------------------------------------------------

 SCF Done:  E(RwB97XD) =  -3007.82172884     A.U. after   19 cycles

 Excitation energies and oscillator strengths:

 Excited State   1:      Singlet-A      1.7325 eV  715.63 nm  f=0.3559  <S**2>=0.000
     245 -> 248       -0.18591
     246 -> 247        0.68086
     245 <- 248       -0.11227
 This state for optimization and/or second-order correction.
 Total Energy, E(TD-HF/TD-DFT) =  -3007.75805966
 Copying the excited state density for this state as the 1-particle RhoCI density.

 Excited State   2:      Singlet-A      2.2283 eV  556.42 nm  f=0.0783  <S**2>=0.000
     245 -> 247        0.61720
     246 -> 248        0.32184

 Excited State   3:      Singlet-A      3.1865 eV  389.09 nm  f=0.0005  <S**2>=0.000
     244 -> 247        0.67086
     244 -> 249        0.10070
     246 -> 248       -0.14076

 Excited State   4:      Singlet-A      3.5370 eV  350.53 nm  f=0.8188  <S**2>=0.000
     240 -> 247       -0.11177
     244 -> 247        0.10700
     245 -> 247       -0.32431
     246 -> 248        0.59662
     245 <- 247        0.11153

 Excited State   5:      Singlet-A      3.6755 eV  337.32 nm  f=0.0148  <S**2>=0.000
     243 -> 247        0.57683
     243 -> 249        0.21302
     243 -> 250        0.26756

 The electronic state is 1-A.
 Alpha  occ. eigenvalues --  -46.95306 -19.30724 -19.29358 -19.25365 -19.25303
 Alpha  occ. eigenvalues --  -19.24435 -19.23058 -14.47109 -14.46505 -14.45492
 Alpha  occ. eigenvalues --  -14.42343 -10.43807 -10.43313 -10.40576 -10.37625
 Alpha  occ. eigenvalues --  -10.36324 -10.36057 -10.35751 -10.35506 -10.35332
 Alpha  occ. eigenvalues --  -10.35083 -10.35080 -10.34200 -10.33958 -10.32935
 Alpha  occ. eigenvalues --  -10.32913 -10.32500 -10.32196 -10.32157 -10.32130
 Alpha  occ. eigenvalues --  -10.31923 -10.31854 -10.31712 -10.31646 -10.31446
 Alpha  occ. eigenvalues --  -10.31240 -10.31237 -10.31181 -10.31068 -10.31054
 Alpha  occ. eigenvalues --  -10.30797 -10.30663 -10.30285 -10.30171 -10.30058
 Alpha  occ. eigenvalues --  -10.30032 -10.29800 -10.29713 -10.29657 -10.29628
 Alpha  occ. eigenvalues --  -10.29525 -10.29474 -10.29252 -10.29171 -10.29100
 Alpha  occ. eigenvalues --  -10.28964 -10.28895 -10.28772 -10.28730 -10.28653
 Alpha  occ. eigenvalues --  -10.28419 -10.28258 -10.28175 -10.28033 -10.27546
 Alpha  occ. eigenvalues --  -10.26882  -3.21363  -1.94957  -1.94508  -1.94311
 Alpha  occ. eigenvalues --   -1.19103  -1.17209  -1.14180  -1.12427  -1.09520
 Alpha  occ. eigenvalues --   -1.08225  -1.07430  -1.06842  -1.06122  -1.04508
 Alpha  occ. eigenvalues --   -0.95795  -0.92385  -0.91756  -0.91256  -0.90944
 Alpha  occ. eigenvalues --   -0.90754  -0.90625  -0.89608  -0.89435  -0.89310
 Alpha  occ. eigenvalues --   -0.87866  -0.87190  -0.86414  -0.86220  -0.85825
 Alpha  occ. eigenvalues --   -0.84801  -0.84676  -0.83732  -0.83421  -0.82573
 Alpha  occ. eigenvalues --   -0.81837  -0.80268  -0.79949  -0.79688  -0.78653
 Alpha  occ. eigenvalues --   -0.77949  -0.77316  -0.77022  -0.76839  -0.76198
 Alpha  occ. eigenvalues --   -0.75430  -0.74384  -0.74042  -0.72732  -0.71683
 Alpha  occ. eigenvalues --   -0.70827  -0.70120  -0.70071  -0.68289  -0.68204
 Alpha  occ. eigenvalues --   -0.68144  -0.67601  -0.67497  -0.66842  -0.65990
 Alpha  occ. eigenvalues --   -0.65224  -0.64965  -0.64713  -0.64269  -0.62717
 Alpha  occ. eigenvalues --   -0.61911  -0.61876  -0.61701  -0.61137  -0.60891
 Alpha  occ. eigenvalues --   -0.59715  -0.59309  -0.58921  -0.58270  -0.57883
 Alpha  occ. eigenvalues --   -0.57751  -0.57292  -0.56765  -0.56615  -0.56076
 Alpha  occ. eigenvalues --   -0.55792  -0.55535  -0.55273  -0.55105  -0.54960
 Alpha  occ. eigenvalues --   -0.54849  -0.54798  -0.54392  -0.54180  -0.53950
 Alpha  occ. eigenvalues --   -0.53369  -0.53273  -0.53206  -0.52870  -0.52788
 Alpha  occ. eigenvalues --   -0.52673  -0.52424  -0.52141  -0.52048  -0.51820
 Alpha  occ. eigenvalues --   -0.51301  -0.51127  -0.51095  -0.50926  -0.50786
 Alpha  occ. eigenvalues --   -0.50642  -0.50368  -0.50197  -0.49946  -0.49719
 Alpha  occ. eigenvalues --   -0.49459  -0.49349  -0.49068  -0.48569  -0.48469
 Alpha  occ. eigenvalues --   -0.48413  -0.48157  -0.47957  -0.47866  -0.47696
 Alpha  occ. eigenvalues --   -0.47447  -0.47360  -0.47339  -0.47063  -0.46748
 Alpha  occ. eigenvalues --   -0.46518  -0.46409  -0.46316  -0.46106  -0.46047
 Alpha  occ. eigenvalues --   -0.45857  -0.45710  -0.45643  -0.45497  -0.45317
 Alpha  occ. eigenvalues --   -0.45061  -0.44783  -0.44427  -0.44326  -0.44022
 Alpha  occ. eigenvalues --   -0.43852  -0.43765  -0.43433  -0.43215  -0.43129
 Alpha  occ. eigenvalues --   -0.43019  -0.42915  -0.42768  -0.42575  -0.42094
 Alpha  occ. eigenvalues --   -0.41840  -0.41653  -0.41535  -0.41277  -0.40885
 Alpha  occ. eigenvalues --   -0.40469  -0.40108  -0.39883  -0.39637  -0.39217
 Alpha  occ. eigenvalues --   -0.39052  -0.39016  -0.38275  -0.37995  -0.37950
 Alpha  occ. eigenvalues --   -0.37815  -0.37129  -0.36738  -0.36391  -0.36299
 Alpha  occ. eigenvalues --   -0.36060  -0.35861  -0.35655  -0.34465  -0.33673
 Alpha  occ. eigenvalues --   -0.33280  -0.32497  -0.32290  -0.30252  -0.26211
 Alpha  occ. eigenvalues --   -0.23074
 Alpha virt. eigenvalues --   -0.06817  -0.00355   0.02095   0.04432   0.06048
 Alpha virt. eigenvalues --    0.06385   0.06549   0.07227   0.07718   0.08647
 Alpha virt. eigenvalues --    0.10203   0.11254   0.11352   0.11803   0.11964

 Mulliken charges:
               1
     1  Mg   0.979631
     2  C   -0.011292
     3  C   -0.081726
     4  C   -0.103067
     5  C   -0.085361
     6  N   -0.257705
     7  C   -0.094462
     8  C    0.016496
     9  C   -0.117155
    10  C    0.055233
    11  C    0.005966
    12  C    0.035135
    13  C   -0.005282
    14  C    0.180289
    15  O   -0.265723
    16  O   -0.383129
    17  N   -0.474678
    18  C    0.173529
    19  C   -0.180262
    20  C   -0.044111
    21  C    0.172939
    22  C    0.071266
    23  C    0.047532
    24  O   -0.208183
    25  C   -0.032091
    26  N   -0.421100
    27  C    0.080001
    28  C   -0.090749
    29  C   -0.044722
    30  C    0.081166
    31  C    0.022870
    32  C   -0.024626
    33  C   -0.077149
    34  N   -0.437310
    35  C    0.145661
    36  C   -0.190881
    37  C   -0.001983
    38  C    0.164991
    39  C    0.068700
    40  C    0.031894
    41  O   -0.184962
    42  C   -0.018211
    43  C    0.276137
    44  O   -0.288076
    45  O   -0.330628
    46  C    0.137149
    47  C    0.237062
    48  C   -0.137447
    49  C   -0.158212
    50  C   -0.002175
    51  C    0.010321
    52  C   -0.015942
    53  C   -0.013804
    54  C   -0.197960
    55  C    0.050226
    56  C    0.032492
    57  C   -0.035732
    58  C    0.010349
    59  C   -0.226719
    60  C    0.001243
    61  C    0.054439
    62  C   -0.058098
    63  C    0.022652
    64  C   -0.211197
    65  C   -0.016618
    66  C   -0.012531
    67  H   -0.002174
    68  H   -0.047126
    69  H   -0.014697
    70  H    0.044120
    71  H    0.044234
    72  H    0.044703
    73  H    0.035986
    74  H    0.035705
    75  H    0.048717
    76  H    0.051269
    77  H    0.054718
    78  H    0.050790
    79  H    0.022652
    80  H    0.064513
    81  H    0.061348
    82  H    0.078440
    83  H    0.066908
    84  H    0.046650
    85  H    0.047791
    86  H    0.038217
    87  H    0.041739
    88  H    0.041603
    89  H    0.036003
    90  H    0.053652
    91  H    0.028382
    92  H    0.038799
    93  H    0.027501
    94  H    0.047644
    95  H    0.049331
    96  H    0.040845
    97  H    0.031290
    98  H    0.064644
    99  H    0.045163
   100  H    0.055398
   101  H    0.047167
   102  H    0.040521
   103  H    0.033107
   104  H    0.018700
   105  H    0.052252
   106  H    0.034958
   107  H    0.044764
   108  H    0.019566
   109  H    0.024360
   110  H    0.030961
   111  H    0.016070
   112  H    0.022050
   113  H    0.024821
   114  H    0.011370
   115  H    0.034028
   116  H    0.024305
   117  H    0.019918
   118  H    0.020059
   119  H    0.013819
   120  H    0.018995
   121  H    0.022420
   122  H    0.012611
   123  H    0.020874
   124  H    0.024125
   125  H    0.032653
   126  H    0.021300
   127  H    0.034830
   128  H    0.017046
   129  H    0.017153
   130  H    0.014726
   131  H    0.020222
   132  H    0.019802
   133  H    0.021881
   134  H    0.023176
   135  H    0.030454
   136  H    0.015983
   137  H    0.025379
   138  H    0.025206
   139  H    0.008983
   140  H    0.040312
 Sum of Mulliken charges =  -0.00000

 Dipole moment (field-independent basis, Debye):
    X=              2.9736    Y=              6.0942    Z=             -0.9931  Tot=              6.8533
 Quadrupole moment (field-independent basis, Debye-Ang):
   XX=           -386.4133   YY=           -411.6493   ZZ=           -412.1366
   XY=            -43.6455   XZ=              5.5214   YZ=            -32.9502

 Normal termination of Gaussian 16 at Thu Apr 28 00:21:27 2022.
