 Gaussian 16, Revision A.03,
 Gaussian 16:  ES64L-G16RevA.03 25-Dec-2016

 --------------------
 #p ZINDO=(nstates=5)
 --------------------

 ------------------------------
 step_1351_chromophore_23 ZINDO
 ------------------------------
 Symbolic Z-matrix:
 Charge =  0 Multiplicity = 1

                         Standard orientation:
 ---------------------------------------------------------------------
 Center     Atomic      Atomic             Coordinates (Angstroms)
 Number     Number       Type             X           Y           Z
 ---------------------------------------------------------------------
      1         12           0       -4.587152    0.733054    0.320225
      2          6           0       -3.437010   -2.675656   -0.313728
      3          6           0       -2.677804    0.561468    3.099297
      4          6           0       -5.051146    3.971103    0.658648
      5          6           0       -6.139982    0.623199   -2.758566
      6          7           0       -3.375585   -1.065568    1.368475
      7          6           0       -2.934715   -2.192431    0.865278
      8          6           0       -1.850510   -2.835441    1.693681
      9          6           0       -1.753399   -1.837141    2.921194
     10          6           0       -2.678182   -0.694852    2.468466
     11          6           0       -2.015189   -2.383671    4.374756
     12          6           0       -0.488701   -2.968002    0.881901
     13          6           0        0.205517   -4.378673    0.859827
     14          6           0        1.322044   -4.526964    1.877308
     15          8           0        1.299024   -4.340491    3.092016
     16          8           0        2.498086   -4.872356    1.180261
     17          7           0       -4.128712    2.059004    1.768058
     18          6           0       -3.313323    1.779523    2.800126
     19          6           0       -3.136873    3.079185    3.593060
     20          6           0       -3.914303    4.102711    2.988143
     21          6           0       -4.398209    3.392836    1.776069
     22          6           0       -2.390527    3.224175    4.884588
     23          6           0       -4.106472    5.511561    3.477491
     24          8           0       -3.731733    5.804749    4.591036
     25          6           0       -4.904616    6.488680    2.597180
     26          7           0       -5.415844    2.101892   -0.880149
     27          6           0       -5.533210    3.410665   -0.561865
     28          6           0       -6.042549    4.235829   -1.763192
     29          6           0       -6.544918    3.146448   -2.753585
     30          6           0       -6.047295    1.869148   -2.077135
     31          6           0       -7.025297    5.450114   -1.534634
     32          6           0       -6.083884    3.174449   -4.205194
     33          6           0       -7.224491    2.990673   -5.246554
     34          7           0       -4.847943   -0.747020   -1.249058
     35          6           0       -5.580008   -0.598728   -2.429865
     36          6           0       -5.465199   -1.857801   -3.040683
     37          6           0       -4.586914   -2.695019   -2.301885
     38          6           0       -4.263230   -1.972253   -1.224480
     39          6           0       -6.078673   -2.126050   -4.346417
     40          6           0       -3.947202   -3.965529   -2.267199
     41          8           0       -4.086953   -4.879527   -3.039750
     42          6           0       -3.158372   -3.970562   -0.964992
     43          6           0       -3.575904   -5.222413   -0.278083
     44          8           0       -4.759222   -5.455216    0.134317
     45          8           0       -2.566914   -6.144702   -0.282055
     46          6           0       -2.645752   -7.279757    0.513407
     47          6           0        3.754486   -4.624377    1.877203
     48          6           0        4.779721   -4.000005    0.894314
     49          6           0        5.111658   -2.704220    0.804410
     50          6           0        4.265559   -1.677696    1.551074
     51          6           0        6.184613   -2.218594   -0.209981
     52          6           0        7.450894   -1.527291    0.386603
     53          6           0        8.665350   -2.471005    0.269419
     54          6           0        9.985717   -1.892405   -0.327589
     55          6           0       11.166416   -2.724579    0.047354
     56          6           0        9.806078   -1.469264   -1.752311
     57          6           0        9.854692    0.113663   -2.032539
     58          6           0        8.638177    0.647073   -2.838516
     59          6           0        7.935471    1.896509   -2.151188
     60          6           0        6.402225    1.760703   -2.147528
     61          6           0        8.431815    3.287832   -2.745481
     62          6           0        9.194897    4.096023   -1.686741
     63          6           0        8.557822    5.514427   -1.431360
     64          6           0        8.417501    5.759335    0.117436
     65          6           0        7.024291    6.141687    0.471936
     66          6           0        9.282875    6.850550    0.805329
     67          1           0       -2.128053    0.598658    4.041690
     68          1           0       -5.210513    5.049977    0.724675
     69          1           0       -6.566411    0.668940   -3.763659
     70          1           0       -2.214301   -3.776668    2.104901
     71          1           0       -0.756707   -1.421922    3.068952
     72          1           0       -1.285163   -2.330863    5.182621
     73          1           0       -2.201554   -3.454987    4.297458
     74          1           0       -2.872050   -1.832757    4.763015
     75          1           0        0.342189   -2.402153    1.301205
     76          1           0       -0.556745   -2.737631   -0.181100
     77          1           0        0.639340   -4.670939   -0.095857
     78          1           0       -0.423639   -5.239063    1.087415
     79          1           0       -1.647443    2.437320    5.016095
     80          1           0       -3.069564    3.121207    5.730041
     81          1           0       -1.844405    4.161792    4.989817
     82          1           0       -5.960606    6.322033    2.386573
     83          1           0       -4.311388    6.595527    1.689102
     84          1           0       -4.943148    7.446589    3.116227
     85          1           0       -5.111294    4.660811   -2.137962
     86          1           0       -7.630239    3.222737   -2.689426
     87          1           0       -7.248908    5.597802   -0.477787
     88          1           0       -7.922363    5.282636   -2.130685
     89          1           0       -6.569515    6.393659   -1.833416
     90          1           0       -5.332840    2.456558   -4.533533
     91          1           0       -5.702603    4.171446   -4.422505
     92          1           0       -7.482048    3.960866   -5.670847
     93          1           0       -8.180985    2.705803   -4.807989
     94          1           0       -6.985825    2.200807   -5.958491
     95          1           0       -5.900377   -3.146177   -4.686687
     96          1           0       -5.827431   -1.353068   -5.072766
     97          1           0       -7.162574   -2.115603   -4.231625
     98          1           0       -2.157084   -4.017651   -1.393418
     99          1           0       -1.621694   -7.607166    0.692974
    100          1           0       -3.130172   -8.145469    0.061545
    101          1           0       -3.171163   -7.031289    1.435578
    102          1           0        4.008930   -5.577621    2.340726
    103          1           0        3.747695   -3.904253    2.695530
    104          1           0        5.291554   -4.750383    0.293180
    105          1           0        3.192092   -1.844122    1.638955
    106          1           0        4.426853   -0.648207    1.232378
    107          1           0        4.559591   -1.669770    2.600732
    108          1           0        5.665749   -1.450680   -0.782650
    109          1           0        6.401070   -2.965810   -0.973511
    110          1           0        7.148307   -1.251992    1.396786
    111          1           0        7.573413   -0.662819   -0.265552
    112          1           0        8.427134   -3.299462   -0.396641
    113          1           0        8.665828   -2.709089    1.332993
    114          1           0       10.100671   -0.996677    0.283571
    115          1           0       10.864330   -3.482308    0.770829
    116          1           0       11.882167   -2.030831    0.487863
    117          1           0       11.639447   -3.080254   -0.868190
    118          1           0        8.945837   -1.950706   -2.216936
    119          1           0       10.658936   -1.812570   -2.339527
    120          1           0       10.689726    0.352784   -2.692121
    121          1           0       10.116010    0.670228   -1.133290
    122          1           0        7.815215   -0.047679   -3.005685
    123          1           0        8.999655    0.915392   -3.830102
    124          1           0        8.248868    1.861182   -1.107206
    125          1           0        5.959122    1.132507   -2.921154
    126          1           0        5.970094    2.747944   -2.311216
    127          1           0        6.185931    1.337380   -1.166723
    128          1           0        7.601055    3.918892   -3.063636
    129          1           0        9.107864    3.075306   -3.572939
    130          1           0       10.206437    4.341208   -2.011569
    131          1           0        9.407363    3.526436   -0.782369
    132          1           0        7.562525    5.648888   -1.855945
    133          1           0        9.220395    6.246697   -1.893879
    134          1           0        8.659125    4.845965    0.662025
    135          1           0        6.827566    5.703352    1.449970
    136          1           0        6.217580    5.844667   -0.198169
    137          1           0        6.948226    7.228815    0.454287
    138          1           0        9.489687    7.646978    0.089287
    139          1           0       10.292448    6.476164    0.976156
    140          1           0        8.963140    7.173080    1.795786
 ---------------------------------------------------------------------

 SCF Done:  E(RZINDO/S) =  -474.466941254     A.U. after   19 cycles

 Excitation energies and oscillator strengths:

 Excited State   1:      Singlet-A      1.3574 eV  913.42 nm  f=0.5400  <S**2>=0.000
     175 ->178        -0.16899
     176 ->177         0.66808
 This state for optimization and/or second-order correction.
 Total Energy, E(CIS/TDA) =  -474.417058911
 Copying the excited state density for this state as the 1-particle RhoCI density.

 Excited State   2:      Singlet-A      1.9391 eV  639.39 nm  f=0.0133  <S**2>=0.000
     175 ->177         0.51052
     176 ->178         0.45500

 Excited State   3:      Singlet-A      2.9948 eV  414.00 nm  f=0.9020  <S**2>=0.000
     171 ->177         0.14373
     171 ->179         0.11749
     171 ->180         0.16606
     175 ->177        -0.37577
     176 ->178         0.45675
     176 ->179         0.13247

 Excited State   4:      Singlet-A      3.0101 eV  411.89 nm  f=0.1985  <S**2>=0.000
     171 ->177         0.25701
     171 ->179         0.22193
     171 ->180         0.33322
     171 ->184        -0.15308
     171 ->185        -0.17084
     171 ->189         0.16939
     171 ->206        -0.10517
     175 ->177         0.16976
     176 ->178        -0.21242
     176 ->179        -0.15997

 Excited State   5:      Singlet-A      3.0411 eV  407.69 nm  f=0.0095  <S**2>=0.000
     167 ->177         0.26448
     167 ->178        -0.18915
     167 ->179        -0.44729
     167 ->180         0.19585
     167 ->183        -0.11202
     167 ->184        -0.10121
     167 ->185         0.18580
     168 ->177        -0.10867
     168 ->179         0.15854

 The electronic state is 1-A.
 Alpha  occ. eigenvalues --   -1.85712  -1.82448  -1.80929  -1.73858  -1.72681
 Alpha  occ. eigenvalues --   -1.71107  -1.65244  -1.62155  -1.60958  -1.60873
 Alpha  occ. eigenvalues --   -1.54133  -1.51810  -1.49277  -1.48786  -1.47401
 Alpha  occ. eigenvalues --   -1.42802  -1.42591  -1.39843  -1.39208  -1.37965
 Alpha  occ. eigenvalues --   -1.36262  -1.34919  -1.33159  -1.32675  -1.29389
 Alpha  occ. eigenvalues --   -1.28742  -1.27793  -1.23844  -1.20781  -1.18535
 Alpha  occ. eigenvalues --   -1.17692  -1.15256  -1.14622  -1.14253  -1.13826
 Alpha  occ. eigenvalues --   -1.12792  -1.11343  -1.10784  -1.05420  -1.03868
 Alpha  occ. eigenvalues --   -1.03629  -1.00694  -0.98872  -0.97773  -0.96621
 Alpha  occ. eigenvalues --   -0.96158  -0.95282  -0.94916  -0.93285  -0.92844
 Alpha  occ. eigenvalues --   -0.91975  -0.90113  -0.89566  -0.89180  -0.86845
 Alpha  occ. eigenvalues --   -0.86701  -0.84748  -0.83389  -0.82837  -0.80950
 Alpha  occ. eigenvalues --   -0.80317  -0.79656  -0.77855  -0.77610  -0.76835
 Alpha  occ. eigenvalues --   -0.76555  -0.76473  -0.75023  -0.74488  -0.73990
 Alpha  occ. eigenvalues --   -0.73730  -0.73067  -0.72464  -0.72075  -0.71688
 Alpha  occ. eigenvalues --   -0.70461  -0.69739  -0.69438  -0.68677  -0.68559
 Alpha  occ. eigenvalues --   -0.67763  -0.66708  -0.66551  -0.65974  -0.65955
 Alpha  occ. eigenvalues --   -0.65345  -0.64987  -0.64898  -0.63943  -0.63692
 Alpha  occ. eigenvalues --   -0.63437  -0.62979  -0.62905  -0.62418  -0.61923
 Alpha  occ. eigenvalues --   -0.61511  -0.61427  -0.60610  -0.60224  -0.59762
 Alpha  occ. eigenvalues --   -0.59367  -0.59265  -0.58878  -0.58788  -0.58510
 Alpha  occ. eigenvalues --   -0.58108  -0.57709  -0.57450  -0.57199  -0.56945
 Alpha  occ. eigenvalues --   -0.56464  -0.56016  -0.55551  -0.55268  -0.54756
 Alpha  occ. eigenvalues --   -0.54358  -0.54228  -0.53537  -0.53436  -0.52874
 Alpha  occ. eigenvalues --   -0.52677  -0.52489  -0.52367  -0.51553  -0.51443
 Alpha  occ. eigenvalues --   -0.51191  -0.50857  -0.50604  -0.50377  -0.50028
 Alpha  occ. eigenvalues --   -0.49853  -0.49680  -0.49240  -0.49207  -0.48764
 Alpha  occ. eigenvalues --   -0.48572  -0.48495  -0.48166  -0.47825  -0.47684
 Alpha  occ. eigenvalues --   -0.47366  -0.47183  -0.46751  -0.46661  -0.46441
 Alpha  occ. eigenvalues --   -0.46263  -0.46205  -0.45919  -0.45421  -0.45313
 Alpha  occ. eigenvalues --   -0.45122  -0.44988  -0.44277  -0.44259  -0.43905
 Alpha  occ. eigenvalues --   -0.43284  -0.43122  -0.42855  -0.42425  -0.42183
 Alpha  occ. eigenvalues --   -0.41937  -0.41713  -0.40346  -0.39507  -0.39245
 Alpha  occ. eigenvalues --   -0.38175  -0.37205  -0.36476  -0.35536  -0.34474
 Alpha  occ. eigenvalues --   -0.33572  -0.33229  -0.32696  -0.31074  -0.26956
 Alpha  occ. eigenvalues --   -0.22007
 Alpha virt. eigenvalues --   -0.08223  -0.02632  -0.00952   0.00895   0.01425
 Alpha virt. eigenvalues --    0.02378   0.02551   0.02827   0.04435   0.04495
 Alpha virt. eigenvalues --    0.05825   0.06270   0.06512   0.07243   0.07787

 Mulliken charges:
               1
     1  Mg   0.431619
     2  C   -0.041017
     3  C   -0.084975
     4  C   -0.112181
     5  C   -0.050999
     6  N   -0.280729
     7  C    0.119190
     8  C    0.011834
     9  C    0.000687
    10  C    0.163603
    11  C   -0.054237
    12  C   -0.021327
    13  C   -0.001208
    14  C    0.466931
    15  O   -0.522030
    16  O   -0.278966
    17  N   -0.307510
    18  C    0.141052
    19  C    0.056112
    20  C   -0.051680
    21  C    0.148731
    22  C   -0.032753
    23  C    0.342395
    24  O   -0.499397
    25  C   -0.033267
    26  N   -0.256337
    27  C    0.158645
    28  C    0.003001
    29  C    0.009547
    30  C    0.077598
    31  C   -0.053990
    32  C   -0.025909
    33  C   -0.064568
    34  N   -0.356635
    35  C    0.064049
    36  C    0.024672
    37  C   -0.060731
    38  C    0.108637
    39  C   -0.046283
    40  C    0.342531
    41  O   -0.529245
    42  C    0.062006
    43  C    0.493166
    44  O   -0.538247
    45  O   -0.261999
    46  C    0.084703
    47  C    0.097576
    48  C   -0.087848
    49  C    0.002700
    50  C   -0.042232
    51  C   -0.027761
    52  C   -0.036871
    53  C   -0.043127
    54  C   -0.004561
    55  C   -0.053532
    56  C   -0.028531
    57  C   -0.041192
    58  C   -0.038197
    59  C   -0.024073
    60  C   -0.059202
    61  C   -0.036384
    62  C   -0.041780
    63  C   -0.034332
    64  C   -0.012352
    65  C   -0.052450
    66  C   -0.057411
    67  H    0.025738
    68  H    0.019129
    69  H    0.024366
    70  H    0.045371
    71  H    0.029812
    72  H    0.032108
    73  H    0.023131
    74  H    0.018793
    75  H    0.034355
    76  H    0.030373
    77  H    0.037528
    78  H    0.044917
    79  H    0.014948
    80  H    0.043639
    81  H    0.042606
    82  H    0.048585
    83  H    0.037351
    84  H    0.027487
    85  H    0.031675
    86  H    0.034410
    87  H    0.023202
    88  H    0.028219
    89  H    0.019369
    90  H    0.033819
    91  H    0.008674
    92  H    0.018880
    93  H    0.013387
    94  H    0.026282
    95  H    0.028753
    96  H    0.026438
    97  H    0.020802
    98  H    0.051338
    99  H    0.024677
   100  H    0.044920
   101  H    0.042445
   102  H    0.041639
   103  H    0.045716
   104  H    0.025197
   105  H    0.031317
   106  H    0.015786
   107  H    0.022796
   108  H    0.010046
   109  H    0.026808
   110  H    0.030526
   111  H    0.020715
   112  H    0.023292
   113  H    0.023707
   114  H    0.008104
   115  H    0.027649
   116  H    0.014856
   117  H    0.022129
   118  H    0.025273
   119  H    0.010019
   120  H    0.011663
   121  H    0.028348
   122  H    0.021400
   123  H    0.018511
   124  H    0.020934
   125  H    0.020901
   126  H    0.017162
   127  H    0.018890
   128  H    0.026452
   129  H    0.021070
   130  H    0.008608
   131  H    0.027008
   132  H    0.026751
   133  H    0.019935
   134  H    0.017535
   135  H    0.014999
   136  H    0.008939
   137  H    0.015482
   138  H    0.020791
   139  H   -0.000433
   140  H    0.029029
 Sum of Mulliken charges =  -0.00000

 Dipole moment (field-independent basis, Debye):
    X=              4.8520    Y=              8.7049    Z=             -0.3171  Tot=              9.9709
 N-N= 4.417626507540D+03 E-N= 0.000000000000D+00  KE=-9.509032989674D+03
 Leave Link  601 at Thu Apr 28 00:40:40 2022, MaxMem=  6710886400 cpu:               1.0 elap:               0.1
 (Enter /sw/apps/gaussian-16.0/g16/l9999.exe)
 1\1\GINC-BP1-COMPUTE137\SP\RZINDO CIS\STO-3G\C55H74Mg1N4O6\OF15641\28-
 Apr-2022\0\\#p ZINDO=(nstates=5)\\step_1351_chromophore_23 ZINDO\\0,1\
 Mg,0,-8.025,40.937,42.569\C,0,-6.872,37.567,41.758\C,0,-5.392,41.978,4
 0.73\C,0,-9.312,43.96,42.71\C,0,-10.763,39.477,44.077\N,0,-6.169,39.77
 9,41.561\C,0,-6.041,38.518,41.228\C,0,-4.94,38.271,40.227\C,0,-4.339,3
 9.727,40.049\C,0,-5.341,40.578,40.847\C,0,-2.821,39.975,40.387\C,0,-5.
 502,37.653,38.873\C,0,-4.801,36.357,38.324\C,0,-3.77,36.63,37.244\O,0,

 Normal termination of Gaussian 16 at Thu Apr 28 00:40:40 2022.
