 Gaussian 16, Revision A.03,
 Gaussian 16:  ES64L-G16RevA.03 25-Dec-2016

 ------------------------------
 #p blyp/Def2SVP td=(nstates=5)
 ------------------------------

 ---------------------------------------------------
 step_1701_chromophore_18 TDDFT with blyp functional
 ---------------------------------------------------
 Symbolic Z-matrix:
 Charge =  0 Multiplicity = 1

                         Standard orientation:
 ---------------------------------------------------------------------
 Center     Atomic      Atomic             Coordinates (Angstroms)
 Number     Number       Type             X           Y           Z
 ---------------------------------------------------------------------
      1         12           0        5.699725    0.994846    0.211498
      2          6           0        4.782140   -2.359566    0.144723
      3          6           0        2.399315    1.926717   -0.052473
      4          6           0        6.744074    4.245111   -0.074746
      5          6           0        9.082473   -0.056638    0.188489
      6          7           0        3.792231   -0.184374   -0.186652
      7          6           0        3.617024   -1.568858   -0.006704
      8          6           0        2.126137   -1.915529    0.157701
      9          6           0        1.348008   -0.467401   -0.048551
     10          6           0        2.578528    0.519151   -0.038679
     11          6           0        0.713649   -0.339695   -1.392367
     12          6           0        1.797277   -2.587363    1.551779
     13          6           0        0.367252   -3.207606    1.655823
     14          6           0       -0.450221   -3.505260    0.409642
     15          8           0       -0.156700   -4.411308   -0.382593
     16          8           0       -1.620268   -2.739217    0.372426
     17          7           0        4.716352    2.843218   -0.039334
     18          6           0        3.325777    2.990090   -0.093992
     19          6           0        3.120987    4.373351   -0.302869
     20          6           0        4.325795    5.083022   -0.414415
     21          6           0        5.355232    4.042023   -0.116021
     22          6           0        1.677199    4.756965   -0.333430
     23          6           0        4.652825    6.495772   -0.775588
     24          8           0        5.755890    6.909061   -1.073169
     25          6           0        3.362308    7.463221   -0.937670
     26          7           0        7.647891    1.946023    0.225515
     27          6           0        7.767415    3.307263    0.089749
     28          6           0        9.297129    3.699507    0.230704
     29          6           0        9.962940    2.319329    0.456492
     30          6           0        8.820316    1.325271    0.271613
     31          6           0        9.934568    4.513363   -0.930903
     32          6           0       10.795740    2.207372    1.798723
     33          6           0       12.223629    1.907510    1.461199
     34          7           0        6.724038   -0.789761    0.149032
     35          6           0        8.097232   -1.047585    0.076991
     36          6           0        8.305855   -2.512406    0.020843
     37          6           0        7.025446   -3.079888    0.174718
     38          6           0        6.098762   -1.973778    0.136909
     39          6           0        9.586660   -3.163487   -0.274283
     40          6           0        6.305917   -4.250659    0.343224
     41          8           0        6.606185   -5.426335    0.378039
     42          6           0        4.823601   -3.872794    0.175752
     43          6           0        4.322863   -4.451572   -1.009869
     44          8           0        4.709535   -4.205630   -2.158780
     45          8           0        3.315913   -5.298315   -0.619353
     46          6           0        2.668184   -6.073579   -1.670779
     47          6           0       -2.634041   -3.258123   -0.538311
     48          6           0       -3.922409   -2.500241   -0.460711
     49          6           0       -5.061740   -2.975798   -0.916940
     50          6           0       -5.189392   -4.274798   -1.840839
     51          6           0       -6.325999   -2.197066   -0.830171
     52          6           0       -7.255514   -2.563675    0.293993
     53          6           0       -7.267533   -1.457890    1.320389
     54          6           0       -8.608522   -0.945012    1.890411
     55          6           0       -8.616392   -0.802092    3.464241
     56          6           0       -9.173900    0.277839    1.141414
     57          6           0      -10.488902   -0.033947    0.326862
     58          6           0      -11.807857    0.206397    1.035725
     59          6           0      -12.803597    1.206891    0.335761
     60          6           0      -12.713492    2.727404    0.740148
     61          6           0      -14.234128    0.654316    0.131506
     62          6           0      -14.961258    1.168450   -1.140354
     63          6           0      -16.490559    1.126367   -0.999767
     64          6           0      -17.095113    2.569255   -0.821822
     65          6           0      -16.855850    3.169616    0.556178
     66          6           0      -18.540235    2.737575   -1.427720
     67          1           0        1.322048    2.103049   -0.036423
     68          1           0        7.107939    5.268544   -0.182987
     69          1           0       10.139190   -0.330081    0.206922
     70          1           0        1.830389   -2.631653   -0.609372
     71          1           0        0.717808   -0.147377    0.781778
     72          1           0        0.682037   -1.345977   -1.808937
     73          1           0        1.145915    0.304035   -2.158770
     74          1           0       -0.311623   -0.010755   -1.219409
     75          1           0        1.817911   -1.702996    2.189593
     76          1           0        2.540708   -3.260769    1.979868
     77          1           0       -0.226465   -2.550866    2.292454
     78          1           0        0.376170   -4.128831    2.238688
     79          1           0        1.172626    4.675685   -1.296354
     80          1           0        1.620631    5.779228    0.041116
     81          1           0        1.039993    4.195882    0.350048
     82          1           0        3.792192    8.426319   -1.213405
     83          1           0        2.910249    7.576978    0.048384
     84          1           0        2.711158    6.997852   -1.677892
     85          1           0        9.465379    4.225484    1.171008
     86          1           0       10.607159    2.034302   -0.375760
     87          1           0       10.665154    3.913694   -1.473921
     88          1           0       10.432954    5.354949   -0.450151
     89          1           0        9.180726    4.757637   -1.678972
     90          1           0       10.414660    1.412056    2.439529
     91          1           0       10.906433    3.114703    2.392913
     92          1           0       12.849263    2.678812    1.911804
     93          1           0       12.453807    1.993780    0.399756
     94          1           0       12.650370    1.025383    1.937137
     95          1           0        9.282610   -4.126222   -0.685155
     96          1           0       10.172406   -3.251594    0.640724
     97          1           0       10.097390   -2.546171   -1.012865
     98          1           0        4.406011   -4.270172    1.100939
     99          1           0        3.228885   -6.312594   -2.573469
    100          1           0        1.755725   -5.648525   -2.088496
    101          1           0        2.288992   -6.994460   -1.227553
    102          1           0       -2.723548   -4.343366   -0.475412
    103          1           0       -2.305765   -3.100265   -1.565681
    104          1           0       -3.921162   -1.522663    0.021791
    105          1           0       -5.824517   -4.250783   -2.726316
    106          1           0       -5.729998   -5.086840   -1.356359
    107          1           0       -4.211495   -4.614478   -2.181753
    108          1           0       -6.869465   -2.333176   -1.765080
    109          1           0       -6.098132   -1.130907   -0.825647
    110          1           0       -6.936937   -3.464692    0.818093
    111          1           0       -8.182441   -2.709650   -0.261097
    112          1           0       -6.754736   -0.516724    1.121475
    113          1           0       -6.660009   -1.833706    2.143511
    114          1           0       -9.186477   -1.829948    1.625191
    115          1           0       -7.925908   -1.333617    4.118136
    116          1           0       -9.591691   -1.245896    3.664094
    117          1           0       -8.614534    0.248006    3.755141
    118          1           0       -8.378023    0.716210    0.539423
    119          1           0       -9.395487    0.965737    1.957437
    120          1           0      -10.599926   -1.056383   -0.031754
    121          1           0      -10.462350    0.498054   -0.624431
    122          1           0      -11.637398    0.627045    2.027380
    123          1           0      -12.274080   -0.755321    1.253146
    124          1           0      -12.443774    1.262971   -0.691450
    125          1           0      -12.156958    3.281636   -0.014906
    126          1           0      -12.302138    2.890543    1.735867
    127          1           0      -13.638758    3.302028    0.769637
    128          1           0      -14.861623    0.824195    1.006689
    129          1           0      -14.098521   -0.398609   -0.118293
    130          1           0      -14.706809    0.570554   -2.016448
    131          1           0      -14.610799    2.188989   -1.297071
    132          1           0      -16.768590    0.513156   -0.142267
    133          1           0      -16.852646    0.619915   -1.894255
    134          1           0      -16.627061    3.319960   -1.457467
    135          1           0      -17.640021    3.771672    1.014131
    136          1           0      -16.051018    3.899375    0.461873
    137          1           0      -16.522108    2.474197    1.326744
    138          1           0      -19.050333    1.789522   -1.601760
    139          1           0      -18.383926    3.161478   -2.419644
    140          1           0      -19.185960    3.291428   -0.746263
 ---------------------------------------------------------------------

 SCF Done:  E(RB-LYP) =  -3007.33304794     A.U. after   22 cycles

 Excitation energies and oscillator strengths:

 Excited State   1:      Singlet-A      1.7850 eV  694.57 nm  f=0.2680  <S**2>=0.000
     244 -> 247        0.21199
     245 -> 248        0.18908
     246 -> 247        0.65778
     246 <- 247       -0.14176
 This state for optimization and/or second-order correction.
 Total Energy, E(TD-HF/TD-DFT) =  -3007.26744859
 Copying the excited state density for this state as the 1-particle RhoCI density.

 Excited State   2:      Singlet-A      1.8782 eV  660.12 nm  f=0.0438  <S**2>=0.000
     244 -> 247        0.66311
     245 -> 247        0.10302
     246 -> 247       -0.20801

 Excited State   3:      Singlet-A      1.9636 eV  631.42 nm  f=0.0209  <S**2>=0.000
     243 -> 247        0.57201
     245 -> 247       -0.38104
     246 -> 248        0.13635

 Excited State   4:      Singlet-A      2.0254 eV  612.15 nm  f=0.0421  <S**2>=0.000
     243 -> 247        0.41275
     245 -> 247        0.50928
     246 -> 248       -0.23261

 Excited State   5:      Singlet-A      2.5426 eV  487.63 nm  f=0.0001  <S**2>=0.000
     240 -> 247        0.69311
     241 -> 247       -0.13898

 The electronic state is 1-A.
 Alpha  occ. eigenvalues --  -46.27316 -18.83427 -18.81782 -18.78175 -18.76124
 Alpha  occ. eigenvalues --  -18.75771 -18.74993 -14.03364 -14.02971 -14.01138
 Alpha  occ. eigenvalues --  -14.01079 -10.05378 -10.02730 -10.00050  -9.98378
 Alpha  occ. eigenvalues --   -9.98305  -9.97229  -9.96917  -9.96351  -9.96235
 Alpha  occ. eigenvalues --   -9.96027  -9.95861  -9.95668  -9.95319  -9.95250
 Alpha  occ. eigenvalues --   -9.94948  -9.94619  -9.94297  -9.94253  -9.93939
 Alpha  occ. eigenvalues --   -9.93447  -9.93412  -9.93316  -9.93308  -9.93137
 Alpha  occ. eigenvalues --   -9.93035  -9.92936  -9.92889  -9.92659  -9.92502
 Alpha  occ. eigenvalues --   -9.92295  -9.92275  -9.92215  -9.92089  -9.92071
 Alpha  occ. eigenvalues --   -9.92041  -9.92012  -9.91874  -9.91854  -9.91829
 Alpha  occ. eigenvalues --   -9.91782  -9.91747  -9.91643  -9.91553  -9.91394
 Alpha  occ. eigenvalues --   -9.91302  -9.91298  -9.91237  -9.91209  -9.91127
 Alpha  occ. eigenvalues --   -9.90964  -9.90927  -9.90901  -9.90740  -9.90717
 Alpha  occ. eigenvalues --   -9.90588  -2.91824  -1.72264  -1.71697  -1.71536
 Alpha  occ. eigenvalues --   -0.97954  -0.96701  -0.92027  -0.91473  -0.90560
 Alpha  occ. eigenvalues --   -0.88705  -0.86373  -0.85558  -0.84875  -0.83290
 Alpha  occ. eigenvalues --   -0.76110  -0.74489  -0.72861  -0.72450  -0.72352
 Alpha  occ. eigenvalues --   -0.72001  -0.71797  -0.70978  -0.70724  -0.70622
 Alpha  occ. eigenvalues --   -0.69955  -0.69314  -0.68623  -0.67735  -0.67219
 Alpha  occ. eigenvalues --   -0.66828  -0.66127  -0.65150  -0.64857  -0.64136
 Alpha  occ. eigenvalues --   -0.63646  -0.62893  -0.62111  -0.61498  -0.60936
 Alpha  occ. eigenvalues --   -0.60386  -0.60307  -0.60000  -0.59750  -0.59221
 Alpha  occ. eigenvalues --   -0.58779  -0.57659  -0.56829  -0.56094  -0.54453
 Alpha  occ. eigenvalues --   -0.54149  -0.53888  -0.52839  -0.52461  -0.51658
 Alpha  occ. eigenvalues --   -0.51545  -0.51159  -0.51098  -0.50528  -0.50332
 Alpha  occ. eigenvalues --   -0.49586  -0.49418  -0.48754  -0.48407  -0.47108
 Alpha  occ. eigenvalues --   -0.46320  -0.45931  -0.45643  -0.45290  -0.44956
 Alpha  occ. eigenvalues --   -0.44091  -0.43356  -0.42980  -0.42704  -0.42396
 Alpha  occ. eigenvalues --   -0.41972  -0.41668  -0.41576  -0.41506  -0.41055
 Alpha  occ. eigenvalues --   -0.40708  -0.40394  -0.40295  -0.40263  -0.40051
 Alpha  occ. eigenvalues --   -0.39776  -0.39726  -0.39459  -0.39217  -0.39096
 Alpha  occ. eigenvalues --   -0.38932  -0.38855  -0.38591  -0.38456  -0.37994
 Alpha  occ. eigenvalues --   -0.37750  -0.37666  -0.37475  -0.37284  -0.37252
 Alpha  occ. eigenvalues --   -0.37100  -0.36717  -0.36620  -0.36476  -0.36226
 Alpha  occ. eigenvalues --   -0.36142  -0.35772  -0.35690  -0.35605  -0.35381
 Alpha  occ. eigenvalues --   -0.35286  -0.35190  -0.34901  -0.34732  -0.34628
 Alpha  occ. eigenvalues --   -0.34602  -0.34358  -0.34285  -0.34175  -0.33970
 Alpha  occ. eigenvalues --   -0.33965  -0.33767  -0.33592  -0.33164  -0.33123
 Alpha  occ. eigenvalues --   -0.32992  -0.32829  -0.32746  -0.32637  -0.32335
 Alpha  occ. eigenvalues --   -0.32189  -0.32131  -0.31844  -0.31668  -0.31631
 Alpha  occ. eigenvalues --   -0.31386  -0.31130  -0.31089  -0.30865  -0.30683
 Alpha  occ. eigenvalues --   -0.30588  -0.30253  -0.30208  -0.29966  -0.29690
 Alpha  occ. eigenvalues --   -0.29434  -0.29394  -0.29195  -0.28849  -0.28708
 Alpha  occ. eigenvalues --   -0.28552  -0.28419  -0.28241  -0.28063  -0.28030
 Alpha  occ. eigenvalues --   -0.27261  -0.27222  -0.26734  -0.26482  -0.26310
 Alpha  occ. eigenvalues --   -0.26179  -0.25932  -0.25641  -0.25614  -0.24994
 Alpha  occ. eigenvalues --   -0.24874  -0.24129  -0.24050  -0.23902  -0.23696
 Alpha  occ. eigenvalues --   -0.22896  -0.22705  -0.22224  -0.21266  -0.20874
 Alpha  occ. eigenvalues --   -0.20846  -0.20490  -0.18738  -0.18263  -0.17385
 Alpha  occ. eigenvalues --   -0.15763
 Alpha virt. eigenvalues --   -0.11529  -0.07090  -0.06465  -0.04835  -0.04495
 Alpha virt. eigenvalues --   -0.02338  -0.02044  -0.01943  -0.01418   0.00830
 Alpha virt. eigenvalues --    0.01551   0.01721   0.02379   0.02499   0.02851

 Mulliken charges:
               1
     1  Mg   0.673769
     2  C   -0.012059
     3  C   -0.006309
     4  C   -0.025755
     5  C   -0.093751
     6  N   -0.243303
     7  C   -0.062311
     8  C    0.036353
     9  C   -0.028724
    10  C   -0.049339
    11  C    0.139827
    12  C    0.109920
    13  C    0.149344
    14  C    0.090454
    15  O   -0.204593
    16  O   -0.277275
    17  N   -0.303751
    18  C    0.168268
    19  C   -0.107200
    20  C    0.036120
    21  C    0.094447
    22  C    0.158735
    23  C   -0.086803
    24  O   -0.146941
    25  C    0.080805
    26  N   -0.192601
    27  C    0.017213
    28  C    0.005896
    29  C    0.012888
    30  C   -0.006675
    31  C    0.141022
    32  C    0.117035
    33  C    0.047343
    34  N   -0.264346
    35  C    0.158777
    36  C   -0.216711
    37  C    0.151188
    38  C    0.098607
    39  C    0.193536
    40  C   -0.142943
    41  O   -0.125806
    42  C    0.096929
    43  C    0.133065
    44  O   -0.192936
    45  O   -0.259086
    46  C    0.220523
    47  C    0.296396
    48  C   -0.088879
    49  C   -0.110079
    50  C    0.100120
    51  C    0.127644
    52  C    0.140939
    53  C    0.069869
    54  C   -0.097435
    55  C    0.090278
    56  C    0.151218
    57  C    0.068378
    58  C    0.112204
    59  C   -0.068743
    60  C    0.096502
    61  C    0.102458
    62  C    0.049907
    63  C    0.128547
    64  C   -0.088776
    65  C    0.089872
    66  C    0.094437
    67  H   -0.069041
    68  H   -0.041384
    69  H   -0.060131
    70  H    0.010427
    71  H   -0.009583
    72  H   -0.009231
    73  H    0.013903
    74  H   -0.010988
    75  H   -0.025170
    76  H   -0.007175
    77  H   -0.022559
    78  H    0.007676
    79  H    0.001725
    80  H   -0.024164
    81  H   -0.011004
    82  H   -0.009707
    83  H    0.015432
    84  H    0.022043
    85  H   -0.020705
    86  H   -0.022913
    87  H   -0.019305
    88  H   -0.000837
    89  H    0.004296
    90  H   -0.016704
    91  H   -0.013563
    92  H   -0.031037
    93  H   -0.008811
    94  H   -0.010809
    95  H    0.019399
    96  H    0.007549
    97  H    0.001088
    98  H   -0.012606
    99  H    0.010793
   100  H    0.005973
   101  H    0.001604
   102  H    0.007871
   103  H    0.001141
   104  H   -0.035939
   105  H   -0.009643
   106  H   -0.010379
   107  H   -0.004774
   108  H   -0.048555
   109  H   -0.032028
   110  H   -0.018368
   111  H   -0.024152
   112  H   -0.046646
   113  H   -0.054110
   114  H   -0.038911
   115  H   -0.013888
   116  H   -0.011570
   117  H   -0.010130
   118  H   -0.035166
   119  H   -0.034071
   120  H   -0.030340
   121  H   -0.038804
   122  H   -0.038666
   123  H   -0.039951
   124  H   -0.040645
   125  H   -0.017355
   126  H   -0.017887
   127  H   -0.028868
   128  H   -0.021957
   129  H   -0.041252
   130  H   -0.033367
   131  H   -0.032270
   132  H   -0.026882
   133  H   -0.043030
   134  H   -0.033934
   135  H   -0.027436
   136  H   -0.012179
   137  H   -0.015517
   138  H   -0.024599
   139  H   -0.010919
   140  H   -0.017010
 Sum of Mulliken charges =  -0.00000

 Dipole moment (field-independent basis, Debye):
    X=             -4.5272    Y=              1.7219    Z=              2.8727  Tot=              5.6314
 Quadrupole moment (field-independent basis, Debye-Ang):
   XX=           -382.8959   YY=           -443.4523   ZZ=           -404.1530
   XY=             24.3074   XZ=             24.9292   YZ=              4.6859

 Normal termination of Gaussian 16 at Thu Apr 28 19:47:44 2022.
