 Gaussian 16, Revision A.03,
 Gaussian 16:  ES64L-G16RevA.03 25-Dec-2016

 -----------------------------------
 #p cam-b3lyp/Def2SVP td=(nstates=5)
 -----------------------------------

 --------------------------------------------------------
 step_1701_chromophore_18 TDDFT with cam-b3lyp functional
 --------------------------------------------------------
 Symbolic Z-matrix:
 Charge =  0 Multiplicity = 1

                         Standard orientation:
 ---------------------------------------------------------------------
 Center     Atomic      Atomic             Coordinates (Angstroms)
 Number     Number       Type             X           Y           Z
 ---------------------------------------------------------------------
      1         12           0        5.699725    0.994846    0.211498
      2          6           0        4.782140   -2.359566    0.144723
      3          6           0        2.399315    1.926717   -0.052473
      4          6           0        6.744074    4.245111   -0.074746
      5          6           0        9.082473   -0.056638    0.188489
      6          7           0        3.792231   -0.184374   -0.186652
      7          6           0        3.617024   -1.568858   -0.006704
      8          6           0        2.126137   -1.915529    0.157701
      9          6           0        1.348008   -0.467401   -0.048551
     10          6           0        2.578528    0.519151   -0.038679
     11          6           0        0.713649   -0.339695   -1.392367
     12          6           0        1.797277   -2.587363    1.551779
     13          6           0        0.367252   -3.207606    1.655823
     14          6           0       -0.450221   -3.505260    0.409642
     15          8           0       -0.156700   -4.411308   -0.382593
     16          8           0       -1.620268   -2.739217    0.372426
     17          7           0        4.716352    2.843218   -0.039334
     18          6           0        3.325777    2.990090   -0.093992
     19          6           0        3.120987    4.373351   -0.302869
     20          6           0        4.325795    5.083022   -0.414415
     21          6           0        5.355232    4.042023   -0.116021
     22          6           0        1.677199    4.756965   -0.333430
     23          6           0        4.652825    6.495772   -0.775588
     24          8           0        5.755890    6.909061   -1.073169
     25          6           0        3.362308    7.463221   -0.937670
     26          7           0        7.647891    1.946023    0.225515
     27          6           0        7.767415    3.307263    0.089749
     28          6           0        9.297129    3.699507    0.230704
     29          6           0        9.962940    2.319329    0.456492
     30          6           0        8.820316    1.325271    0.271613
     31          6           0        9.934568    4.513363   -0.930903
     32          6           0       10.795740    2.207372    1.798723
     33          6           0       12.223629    1.907510    1.461199
     34          7           0        6.724038   -0.789761    0.149032
     35          6           0        8.097232   -1.047585    0.076991
     36          6           0        8.305855   -2.512406    0.020843
     37          6           0        7.025446   -3.079888    0.174718
     38          6           0        6.098762   -1.973778    0.136909
     39          6           0        9.586660   -3.163487   -0.274283
     40          6           0        6.305917   -4.250659    0.343224
     41          8           0        6.606185   -5.426335    0.378039
     42          6           0        4.823601   -3.872794    0.175752
     43          6           0        4.322863   -4.451572   -1.009869
     44          8           0        4.709535   -4.205630   -2.158780
     45          8           0        3.315913   -5.298315   -0.619353
     46          6           0        2.668184   -6.073579   -1.670779
     47          6           0       -2.634041   -3.258123   -0.538311
     48          6           0       -3.922409   -2.500241   -0.460711
     49          6           0       -5.061740   -2.975798   -0.916940
     50          6           0       -5.189392   -4.274798   -1.840839
     51          6           0       -6.325999   -2.197066   -0.830171
     52          6           0       -7.255514   -2.563675    0.293993
     53          6           0       -7.267533   -1.457890    1.320389
     54          6           0       -8.608522   -0.945012    1.890411
     55          6           0       -8.616392   -0.802092    3.464241
     56          6           0       -9.173900    0.277839    1.141414
     57          6           0      -10.488902   -0.033947    0.326862
     58          6           0      -11.807857    0.206397    1.035725
     59          6           0      -12.803597    1.206891    0.335761
     60          6           0      -12.713492    2.727404    0.740148
     61          6           0      -14.234128    0.654316    0.131506
     62          6           0      -14.961258    1.168450   -1.140354
     63          6           0      -16.490559    1.126367   -0.999767
     64          6           0      -17.095113    2.569255   -0.821822
     65          6           0      -16.855850    3.169616    0.556178
     66          6           0      -18.540235    2.737575   -1.427720
     67          1           0        1.322048    2.103049   -0.036423
     68          1           0        7.107939    5.268544   -0.182987
     69          1           0       10.139190   -0.330081    0.206922
     70          1           0        1.830389   -2.631653   -0.609372
     71          1           0        0.717808   -0.147377    0.781778
     72          1           0        0.682037   -1.345977   -1.808937
     73          1           0        1.145915    0.304035   -2.158770
     74          1           0       -0.311623   -0.010755   -1.219409
     75          1           0        1.817911   -1.702996    2.189593
     76          1           0        2.540708   -3.260769    1.979868
     77          1           0       -0.226465   -2.550866    2.292454
     78          1           0        0.376170   -4.128831    2.238688
     79          1           0        1.172626    4.675685   -1.296354
     80          1           0        1.620631    5.779228    0.041116
     81          1           0        1.039993    4.195882    0.350048
     82          1           0        3.792192    8.426319   -1.213405
     83          1           0        2.910249    7.576978    0.048384
     84          1           0        2.711158    6.997852   -1.677892
     85          1           0        9.465379    4.225484    1.171008
     86          1           0       10.607159    2.034302   -0.375760
     87          1           0       10.665154    3.913694   -1.473921
     88          1           0       10.432954    5.354949   -0.450151
     89          1           0        9.180726    4.757637   -1.678972
     90          1           0       10.414660    1.412056    2.439529
     91          1           0       10.906433    3.114703    2.392913
     92          1           0       12.849263    2.678812    1.911804
     93          1           0       12.453807    1.993780    0.399756
     94          1           0       12.650370    1.025383    1.937137
     95          1           0        9.282610   -4.126222   -0.685155
     96          1           0       10.172406   -3.251594    0.640724
     97          1           0       10.097390   -2.546171   -1.012865
     98          1           0        4.406011   -4.270172    1.100939
     99          1           0        3.228885   -6.312594   -2.573469
    100          1           0        1.755725   -5.648525   -2.088496
    101          1           0        2.288992   -6.994460   -1.227553
    102          1           0       -2.723548   -4.343366   -0.475412
    103          1           0       -2.305765   -3.100265   -1.565681
    104          1           0       -3.921162   -1.522663    0.021791
    105          1           0       -5.824517   -4.250783   -2.726316
    106          1           0       -5.729998   -5.086840   -1.356359
    107          1           0       -4.211495   -4.614478   -2.181753
    108          1           0       -6.869465   -2.333176   -1.765080
    109          1           0       -6.098132   -1.130907   -0.825647
    110          1           0       -6.936937   -3.464692    0.818093
    111          1           0       -8.182441   -2.709650   -0.261097
    112          1           0       -6.754736   -0.516724    1.121475
    113          1           0       -6.660009   -1.833706    2.143511
    114          1           0       -9.186477   -1.829948    1.625191
    115          1           0       -7.925908   -1.333617    4.118136
    116          1           0       -9.591691   -1.245896    3.664094
    117          1           0       -8.614534    0.248006    3.755141
    118          1           0       -8.378023    0.716210    0.539423
    119          1           0       -9.395487    0.965737    1.957437
    120          1           0      -10.599926   -1.056383   -0.031754
    121          1           0      -10.462350    0.498054   -0.624431
    122          1           0      -11.637398    0.627045    2.027380
    123          1           0      -12.274080   -0.755321    1.253146
    124          1           0      -12.443774    1.262971   -0.691450
    125          1           0      -12.156958    3.281636   -0.014906
    126          1           0      -12.302138    2.890543    1.735867
    127          1           0      -13.638758    3.302028    0.769637
    128          1           0      -14.861623    0.824195    1.006689
    129          1           0      -14.098521   -0.398609   -0.118293
    130          1           0      -14.706809    0.570554   -2.016448
    131          1           0      -14.610799    2.188989   -1.297071
    132          1           0      -16.768590    0.513156   -0.142267
    133          1           0      -16.852646    0.619915   -1.894255
    134          1           0      -16.627061    3.319960   -1.457467
    135          1           0      -17.640021    3.771672    1.014131
    136          1           0      -16.051018    3.899375    0.461873
    137          1           0      -16.522108    2.474197    1.326744
    138          1           0      -19.050333    1.789522   -1.601760
    139          1           0      -18.383926    3.161478   -2.419644
    140          1           0      -19.185960    3.291428   -0.746263
 ---------------------------------------------------------------------

 SCF Done:  E(RCAM-B3LYP) =  -3007.12095605     A.U. after   17 cycles

 Excitation energies and oscillator strengths:

 Excited State   1:      Singlet-A      1.6862 eV  735.27 nm  f=0.3812  <S**2>=0.000
     245 -> 248        0.18682
     246 -> 247        0.68445
     245 <- 248        0.11089
 This state for optimization and/or second-order correction.
 Total Energy, E(TD-HF/TD-DFT) =  -3007.05898827
 Copying the excited state density for this state as the 1-particle RhoCI density.

 Excited State   2:      Singlet-A      2.2351 eV  554.72 nm  f=0.0745  <S**2>=0.000
     245 -> 247        0.62268
     246 -> 248       -0.32624

 Excited State   3:      Singlet-A      3.3272 eV  372.64 nm  f=0.0221  <S**2>=0.000
     240 -> 247        0.30809
     240 -> 249        0.22292
     240 -> 250       -0.10288
     243 -> 247        0.46426
     243 -> 249        0.19629
     244 -> 247       -0.16730
     246 -> 248        0.14045

 Excited State   4:      Singlet-A      3.4364 eV  360.80 nm  f=0.5698  <S**2>=0.000
     240 -> 247       -0.14014
     244 -> 247        0.26370
     245 -> 247        0.28136
     246 -> 248        0.56560
     245 <- 247       -0.10268

 Excited State   5:      Singlet-A      3.4934 eV  354.91 nm  f=0.0663  <S**2>=0.000
     240 -> 247        0.31100
     240 -> 249        0.11524
     244 -> 247        0.58329
     246 -> 248       -0.13939

 The electronic state is 1-A.
 Alpha  occ. eigenvalues --  -46.88868 -19.26295 -19.24829 -19.21204 -19.19144
 Alpha  occ. eigenvalues --  -19.18953 -19.18403 -14.42319 -14.41758 -14.39673
 Alpha  occ. eigenvalues --  -14.39403 -10.40808 -10.38288 -10.35158 -10.33825
 Alpha  occ. eigenvalues --  -10.32301 -10.31993 -10.31248 -10.30769 -10.30660
 Alpha  occ. eigenvalues --  -10.30469 -10.30036 -10.29820 -10.29449 -10.29242
 Alpha  occ. eigenvalues --  -10.29156 -10.28958 -10.28839 -10.28301 -10.28238
 Alpha  occ. eigenvalues --  -10.27596 -10.27543 -10.27505 -10.27288 -10.27255
 Alpha  occ. eigenvalues --  -10.27024 -10.26966 -10.26667 -10.26531 -10.26378
 Alpha  occ. eigenvalues --  -10.26193 -10.26184 -10.26159 -10.26000 -10.25975
 Alpha  occ. eigenvalues --  -10.25810 -10.25743 -10.25743 -10.25634 -10.25546
 Alpha  occ. eigenvalues --  -10.25461 -10.25458 -10.25321 -10.25271 -10.25200
 Alpha  occ. eigenvalues --  -10.25038 -10.24970 -10.24924 -10.24869 -10.24837
 Alpha  occ. eigenvalues --  -10.24746 -10.24634 -10.24561 -10.24340 -10.24327
 Alpha  occ. eigenvalues --  -10.24205  -3.17275  -1.92193  -1.91712  -1.91582
 Alpha  occ. eigenvalues --   -1.16357  -1.15319  -1.10269  -1.10108  -1.08426
 Alpha  occ. eigenvalues --   -1.06760  -1.04138  -1.03253  -1.02238  -1.00810
 Alpha  occ. eigenvalues --   -0.93427  -0.91387  -0.89629  -0.89185  -0.89042
 Alpha  occ. eigenvalues --   -0.88687  -0.88410  -0.87717  -0.87266  -0.87153
 Alpha  occ. eigenvalues --   -0.86434  -0.85638  -0.84896  -0.83970  -0.83339
 Alpha  occ. eigenvalues --   -0.82902  -0.82214  -0.80971  -0.80710  -0.79915
 Alpha  occ. eigenvalues --   -0.79565  -0.78606  -0.77739  -0.77021  -0.76297
 Alpha  occ. eigenvalues --   -0.75774  -0.75763  -0.75307  -0.74995  -0.74439
 Alpha  occ. eigenvalues --   -0.73843  -0.72732  -0.71672  -0.70925  -0.69192
 Alpha  occ. eigenvalues --   -0.68741  -0.68446  -0.67222  -0.66798  -0.65893
 Alpha  occ. eigenvalues --   -0.65578  -0.65354  -0.65211  -0.64357  -0.64221
 Alpha  occ. eigenvalues --   -0.63565  -0.63389  -0.62629  -0.62289  -0.60576
 Alpha  occ. eigenvalues --   -0.59946  -0.59361  -0.59155  -0.58904  -0.58371
 Alpha  occ. eigenvalues --   -0.57427  -0.56796  -0.56131  -0.55904  -0.55484
 Alpha  occ. eigenvalues --   -0.55173  -0.54662  -0.54538  -0.54221  -0.54065
 Alpha  occ. eigenvalues --   -0.53487  -0.53238  -0.52969  -0.52792  -0.52680
 Alpha  occ. eigenvalues --   -0.52477  -0.52319  -0.52217  -0.51997  -0.51698
 Alpha  occ. eigenvalues --   -0.51641  -0.51360  -0.51147  -0.50969  -0.50837
 Alpha  occ. eigenvalues --   -0.50099  -0.49968  -0.49653  -0.49479  -0.49409
 Alpha  occ. eigenvalues --   -0.49369  -0.49304  -0.49029  -0.48760  -0.48589
 Alpha  occ. eigenvalues --   -0.48401  -0.48275  -0.47876  -0.47757  -0.47615
 Alpha  occ. eigenvalues --   -0.47381  -0.47197  -0.46817  -0.46702  -0.46584
 Alpha  occ. eigenvalues --   -0.46459  -0.46198  -0.46123  -0.46052  -0.45898
 Alpha  occ. eigenvalues --   -0.45674  -0.45643  -0.45279  -0.44952  -0.44780
 Alpha  occ. eigenvalues --   -0.44683  -0.44585  -0.44374  -0.44193  -0.44118
 Alpha  occ. eigenvalues --   -0.43926  -0.43648  -0.43528  -0.43346  -0.43227
 Alpha  occ. eigenvalues --   -0.42988  -0.42859  -0.42685  -0.42330  -0.41990
 Alpha  occ. eigenvalues --   -0.41915  -0.41875  -0.41766  -0.41375  -0.41134
 Alpha  occ. eigenvalues --   -0.40688  -0.40641  -0.40468  -0.39966  -0.39846
 Alpha  occ. eigenvalues --   -0.39654  -0.39408  -0.39116  -0.39068  -0.38953
 Alpha  occ. eigenvalues --   -0.38182  -0.38130  -0.37776  -0.37338  -0.37106
 Alpha  occ. eigenvalues --   -0.36892  -0.36835  -0.36613  -0.36278  -0.35999
 Alpha  occ. eigenvalues --   -0.35585  -0.35474  -0.34876  -0.34544  -0.34066
 Alpha  occ. eigenvalues --   -0.33892  -0.33805  -0.33202  -0.31321  -0.30857
 Alpha  occ. eigenvalues --   -0.30570  -0.30416  -0.30115  -0.29653  -0.24198
 Alpha  occ. eigenvalues --   -0.20930
 Alpha virt. eigenvalues --   -0.08566  -0.02050  -0.00057   0.02461   0.02743
 Alpha virt. eigenvalues --    0.02966   0.05368   0.05591   0.05808   0.06877
 Alpha virt. eigenvalues --    0.08069   0.08776   0.08869   0.09148   0.09202

 Mulliken charges:
               1
     1  Mg   0.805302
     2  C   -0.046176
     3  C   -0.027999
     4  C   -0.044967
     5  C   -0.102520
     6  N   -0.306815
     7  C   -0.013160
     8  C   -0.015960
     9  C   -0.077923
    10  C   -0.028026
    11  C    0.079978
    12  C    0.063696
    13  C    0.078964
    14  C    0.166437
    15  O   -0.244648
    16  O   -0.341928
    17  N   -0.389113
    18  C    0.171337
    19  C   -0.116412
    20  C   -0.032644
    21  C    0.120992
    22  C    0.097821
    23  C   -0.011209
    24  O   -0.190026
    25  C    0.008746
    26  N   -0.268918
    27  C    0.034306
    28  C   -0.043832
    29  C   -0.044342
    30  C    0.022361
    31  C    0.080688
    32  C    0.057664
    33  C   -0.016934
    34  N   -0.355400
    35  C    0.162431
    36  C   -0.192814
    37  C    0.063787
    38  C    0.141094
    39  C    0.134081
    40  C   -0.038522
    41  O   -0.163422
    42  C    0.010479
    43  C    0.225066
    44  O   -0.229941
    45  O   -0.322237
    46  C    0.181226
    47  C    0.259907
    48  C   -0.105210
    49  C   -0.134958
    50  C    0.042907
    51  C    0.063359
    52  C    0.079583
    53  C    0.021230
    54  C   -0.152724
    55  C    0.034785
    56  C    0.093816
    57  C    0.012857
    58  C    0.060704
    59  C   -0.126634
    60  C    0.041089
    61  C    0.053122
    62  C   -0.002020
    63  C    0.069244
    64  C   -0.150702
    65  C    0.031067
    66  C    0.038985
    67  H   -0.033533
    68  H   -0.001246
    69  H   -0.023599
    70  H    0.039852
    71  H    0.023369
    72  H    0.013735
    73  H    0.041029
    74  H    0.013068
    75  H    0.004974
    76  H    0.021537
    77  H    0.014060
    78  H    0.040445
    79  H    0.029059
    80  H    0.001497
    81  H    0.016498
    82  H    0.024029
    83  H    0.040569
    84  H    0.047466
    85  H    0.013637
    86  H    0.010328
    87  H    0.004733
    88  H    0.022693
    89  H    0.029894
    90  H    0.013855
    91  H    0.015613
    92  H   -0.005027
    93  H    0.014474
    94  H    0.013994
    95  H    0.047130
    96  H    0.035526
    97  H    0.027433
    98  H    0.033363
    99  H    0.036653
   100  H    0.027860
   101  H    0.025607
   102  H    0.035680
   103  H    0.028109
   104  H    0.000150
   105  H    0.016228
   106  H    0.014104
   107  H    0.017720
   108  H   -0.015781
   109  H   -0.000781
   110  H    0.010998
   111  H    0.003473
   112  H   -0.020105
   113  H   -0.022398
   114  H   -0.007805
   115  H    0.011412
   116  H    0.011160
   117  H    0.011816
   118  H   -0.005398
   119  H   -0.006034
   120  H   -0.003504
   121  H   -0.008762
   122  H   -0.011881
   123  H   -0.008894
   124  H   -0.009309
   125  H    0.006705
   126  H    0.005734
   127  H   -0.007097
   128  H    0.002272
   129  H   -0.011382
   130  H   -0.003963
   131  H   -0.006382
   132  H    0.001931
   133  H   -0.011433
   134  H   -0.001374
   135  H   -0.000146
   136  H    0.008774
   137  H    0.006506
   138  H   -0.000687
   139  H    0.011917
   140  H    0.006877
 Sum of Mulliken charges =  -0.00000

 Dipole moment (field-independent basis, Debye):
    X=             -4.5426    Y=              1.6140    Z=              3.0327  Tot=              5.6954
 Quadrupole moment (field-independent basis, Debye-Ang):
   XX=           -379.4597   YY=           -440.4018   ZZ=           -403.9762
   XY=             22.6972   XZ=             26.5091   YZ=              4.8423

 Normal termination of Gaussian 16 at Thu Apr 28 18:49:30 2022.
