 Gaussian 16, Revision A.03,
 Gaussian 16:  ES64L-G16RevA.03 25-Dec-2016

 ---------------------------------
 #p PBE1PBE/Def2SVP td=(nstates=5)
 ---------------------------------

 ------------------------------------------------------
 step_1701_chromophore_18 TDDFT with PBE1PBE functional
 ------------------------------------------------------
 Symbolic Z-matrix:
 Charge =  0 Multiplicity = 1

                         Standard orientation:
 ---------------------------------------------------------------------
 Center     Atomic      Atomic             Coordinates (Angstroms)
 Number     Number       Type             X           Y           Z
 ---------------------------------------------------------------------
      1         12           0        5.699725    0.994846    0.211498
      2          6           0        4.782140   -2.359566    0.144723
      3          6           0        2.399315    1.926717   -0.052473
      4          6           0        6.744074    4.245111   -0.074746
      5          6           0        9.082473   -0.056638    0.188489
      6          7           0        3.792231   -0.184374   -0.186652
      7          6           0        3.617024   -1.568858   -0.006704
      8          6           0        2.126137   -1.915529    0.157701
      9          6           0        1.348008   -0.467401   -0.048551
     10          6           0        2.578528    0.519151   -0.038679
     11          6           0        0.713649   -0.339695   -1.392367
     12          6           0        1.797277   -2.587363    1.551779
     13          6           0        0.367252   -3.207606    1.655823
     14          6           0       -0.450221   -3.505260    0.409642
     15          8           0       -0.156700   -4.411308   -0.382593
     16          8           0       -1.620268   -2.739217    0.372426
     17          7           0        4.716352    2.843218   -0.039334
     18          6           0        3.325777    2.990090   -0.093992
     19          6           0        3.120987    4.373351   -0.302869
     20          6           0        4.325795    5.083022   -0.414415
     21          6           0        5.355232    4.042023   -0.116021
     22          6           0        1.677199    4.756965   -0.333430
     23          6           0        4.652825    6.495772   -0.775588
     24          8           0        5.755890    6.909061   -1.073169
     25          6           0        3.362308    7.463221   -0.937670
     26          7           0        7.647891    1.946023    0.225515
     27          6           0        7.767415    3.307263    0.089749
     28          6           0        9.297129    3.699507    0.230704
     29          6           0        9.962940    2.319329    0.456492
     30          6           0        8.820316    1.325271    0.271613
     31          6           0        9.934568    4.513363   -0.930903
     32          6           0       10.795740    2.207372    1.798723
     33          6           0       12.223629    1.907510    1.461199
     34          7           0        6.724038   -0.789761    0.149032
     35          6           0        8.097232   -1.047585    0.076991
     36          6           0        8.305855   -2.512406    0.020843
     37          6           0        7.025446   -3.079888    0.174718
     38          6           0        6.098762   -1.973778    0.136909
     39          6           0        9.586660   -3.163487   -0.274283
     40          6           0        6.305917   -4.250659    0.343224
     41          8           0        6.606185   -5.426335    0.378039
     42          6           0        4.823601   -3.872794    0.175752
     43          6           0        4.322863   -4.451572   -1.009869
     44          8           0        4.709535   -4.205630   -2.158780
     45          8           0        3.315913   -5.298315   -0.619353
     46          6           0        2.668184   -6.073579   -1.670779
     47          6           0       -2.634041   -3.258123   -0.538311
     48          6           0       -3.922409   -2.500241   -0.460711
     49          6           0       -5.061740   -2.975798   -0.916940
     50          6           0       -5.189392   -4.274798   -1.840839
     51          6           0       -6.325999   -2.197066   -0.830171
     52          6           0       -7.255514   -2.563675    0.293993
     53          6           0       -7.267533   -1.457890    1.320389
     54          6           0       -8.608522   -0.945012    1.890411
     55          6           0       -8.616392   -0.802092    3.464241
     56          6           0       -9.173900    0.277839    1.141414
     57          6           0      -10.488902   -0.033947    0.326862
     58          6           0      -11.807857    0.206397    1.035725
     59          6           0      -12.803597    1.206891    0.335761
     60          6           0      -12.713492    2.727404    0.740148
     61          6           0      -14.234128    0.654316    0.131506
     62          6           0      -14.961258    1.168450   -1.140354
     63          6           0      -16.490559    1.126367   -0.999767
     64          6           0      -17.095113    2.569255   -0.821822
     65          6           0      -16.855850    3.169616    0.556178
     66          6           0      -18.540235    2.737575   -1.427720
     67          1           0        1.322048    2.103049   -0.036423
     68          1           0        7.107939    5.268544   -0.182987
     69          1           0       10.139190   -0.330081    0.206922
     70          1           0        1.830389   -2.631653   -0.609372
     71          1           0        0.717808   -0.147377    0.781778
     72          1           0        0.682037   -1.345977   -1.808937
     73          1           0        1.145915    0.304035   -2.158770
     74          1           0       -0.311623   -0.010755   -1.219409
     75          1           0        1.817911   -1.702996    2.189593
     76          1           0        2.540708   -3.260769    1.979868
     77          1           0       -0.226465   -2.550866    2.292454
     78          1           0        0.376170   -4.128831    2.238688
     79          1           0        1.172626    4.675685   -1.296354
     80          1           0        1.620631    5.779228    0.041116
     81          1           0        1.039993    4.195882    0.350048
     82          1           0        3.792192    8.426319   -1.213405
     83          1           0        2.910249    7.576978    0.048384
     84          1           0        2.711158    6.997852   -1.677892
     85          1           0        9.465379    4.225484    1.171008
     86          1           0       10.607159    2.034302   -0.375760
     87          1           0       10.665154    3.913694   -1.473921
     88          1           0       10.432954    5.354949   -0.450151
     89          1           0        9.180726    4.757637   -1.678972
     90          1           0       10.414660    1.412056    2.439529
     91          1           0       10.906433    3.114703    2.392913
     92          1           0       12.849263    2.678812    1.911804
     93          1           0       12.453807    1.993780    0.399756
     94          1           0       12.650370    1.025383    1.937137
     95          1           0        9.282610   -4.126222   -0.685155
     96          1           0       10.172406   -3.251594    0.640724
     97          1           0       10.097390   -2.546171   -1.012865
     98          1           0        4.406011   -4.270172    1.100939
     99          1           0        3.228885   -6.312594   -2.573469
    100          1           0        1.755725   -5.648525   -2.088496
    101          1           0        2.288992   -6.994460   -1.227553
    102          1           0       -2.723548   -4.343366   -0.475412
    103          1           0       -2.305765   -3.100265   -1.565681
    104          1           0       -3.921162   -1.522663    0.021791
    105          1           0       -5.824517   -4.250783   -2.726316
    106          1           0       -5.729998   -5.086840   -1.356359
    107          1           0       -4.211495   -4.614478   -2.181753
    108          1           0       -6.869465   -2.333176   -1.765080
    109          1           0       -6.098132   -1.130907   -0.825647
    110          1           0       -6.936937   -3.464692    0.818093
    111          1           0       -8.182441   -2.709650   -0.261097
    112          1           0       -6.754736   -0.516724    1.121475
    113          1           0       -6.660009   -1.833706    2.143511
    114          1           0       -9.186477   -1.829948    1.625191
    115          1           0       -7.925908   -1.333617    4.118136
    116          1           0       -9.591691   -1.245896    3.664094
    117          1           0       -8.614534    0.248006    3.755141
    118          1           0       -8.378023    0.716210    0.539423
    119          1           0       -9.395487    0.965737    1.957437
    120          1           0      -10.599926   -1.056383   -0.031754
    121          1           0      -10.462350    0.498054   -0.624431
    122          1           0      -11.637398    0.627045    2.027380
    123          1           0      -12.274080   -0.755321    1.253146
    124          1           0      -12.443774    1.262971   -0.691450
    125          1           0      -12.156958    3.281636   -0.014906
    126          1           0      -12.302138    2.890543    1.735867
    127          1           0      -13.638758    3.302028    0.769637
    128          1           0      -14.861623    0.824195    1.006689
    129          1           0      -14.098521   -0.398609   -0.118293
    130          1           0      -14.706809    0.570554   -2.016448
    131          1           0      -14.610799    2.188989   -1.297071
    132          1           0      -16.768590    0.513156   -0.142267
    133          1           0      -16.852646    0.619915   -1.894255
    134          1           0      -16.627061    3.319960   -1.457467
    135          1           0      -17.640021    3.771672    1.014131
    136          1           0      -16.051018    3.899375    0.461873
    137          1           0      -16.522108    2.474197    1.326744
    138          1           0      -19.050333    1.789522   -1.601760
    139          1           0      -18.383926    3.161478   -2.419644
    140          1           0      -19.185960    3.291428   -0.746263
 ---------------------------------------------------------------------

 SCF Done:  E(RPBE1PBE) =  -3005.31021554     A.U. after   15 cycles

 Excitation energies and oscillator strengths:

 Excited State   1:      Singlet-A      1.8412 eV  673.37 nm  f=0.3721  <S**2>=0.000
     245 -> 248       -0.18025
     246 -> 247        0.69205
     246 <- 247       -0.10683
 This state for optimization and/or second-order correction.
 Total Energy, E(TD-HF/TD-DFT) =  -3005.24255127
 Copying the excited state density for this state as the 1-particle RhoCI density.

 Excited State   2:      Singlet-A      2.2324 eV  555.40 nm  f=0.0797  <S**2>=0.000
     245 -> 247        0.63934
     246 -> 248        0.29276

 Excited State   3:      Singlet-A      2.8751 eV  431.23 nm  f=0.0004  <S**2>=0.000
     240 -> 247        0.15245
     243 -> 247        0.10341
     244 -> 247        0.64073
     244 -> 249        0.15783

 Excited State   4:      Singlet-A      3.0564 eV  405.65 nm  f=0.0015  <S**2>=0.000
     242 -> 247        0.21407
     243 -> 247        0.63908
     243 -> 249       -0.11545

 Excited State   5:      Singlet-A      3.1346 eV  395.53 nm  f=0.0032  <S**2>=0.000
     240 -> 247       -0.10911
     242 -> 247        0.62611
     243 -> 247       -0.20372
     244 -> 247        0.16601
     246 -> 248        0.11578

 The electronic state is 1-A.
 Alpha  occ. eigenvalues --  -46.92254 -19.26989 -19.25410 -19.21464 -19.19482
 Alpha  occ. eigenvalues --  -19.19098 -19.18480 -14.41855 -14.41278 -14.39261
 Alpha  occ. eigenvalues --  -14.39151 -10.37856 -10.35170 -10.32419 -10.30799
 Alpha  occ. eigenvalues --  -10.29703 -10.29642 -10.29178 -10.28516 -10.28374
 Alpha  occ. eigenvalues --  -10.28006 -10.27665 -10.27277 -10.27209 -10.27170
 Alpha  occ. eigenvalues --  -10.26818 -10.26675 -10.26264 -10.25906 -10.25727
 Alpha  occ. eigenvalues --  -10.25369 -10.25364 -10.25218 -10.25148 -10.24926
 Alpha  occ. eigenvalues --  -10.24809 -10.24603 -10.24447 -10.24091 -10.23993
 Alpha  occ. eigenvalues --  -10.23722 -10.23706 -10.23675 -10.23534 -10.23532
 Alpha  occ. eigenvalues --  -10.23459 -10.23436 -10.23274 -10.23137 -10.23108
 Alpha  occ. eigenvalues --  -10.23048 -10.22972 -10.22866 -10.22802 -10.22761
 Alpha  occ. eigenvalues --  -10.22591 -10.22532 -10.22429 -10.22337 -10.22271
 Alpha  occ. eigenvalues --  -10.22188 -10.22150 -10.22094 -10.21787 -10.21727
 Alpha  occ. eigenvalues --  -10.21722  -3.14246  -1.87105  -1.86602  -1.86475
 Alpha  occ. eigenvalues --   -1.11152  -1.09995  -1.05128  -1.04714  -1.03277
 Alpha  occ. eigenvalues --   -1.01471  -0.98708  -0.97844  -0.97018  -0.95377
 Alpha  occ. eigenvalues --   -0.87726  -0.85544  -0.83738  -0.83366  -0.83317
 Alpha  occ. eigenvalues --   -0.82821  -0.82730  -0.81960  -0.81572  -0.81289
 Alpha  occ. eigenvalues --   -0.80785  -0.79906  -0.79136  -0.78235  -0.77622
 Alpha  occ. eigenvalues --   -0.77113  -0.76480  -0.75312  -0.74944  -0.74085
 Alpha  occ. eigenvalues --   -0.73840  -0.72831  -0.72051  -0.71334  -0.70465
 Alpha  occ. eigenvalues --   -0.70031  -0.69858  -0.69436  -0.69350  -0.68630
 Alpha  occ. eigenvalues --   -0.68157  -0.67136  -0.66136  -0.65235  -0.63604
 Alpha  occ. eigenvalues --   -0.62986  -0.62750  -0.61679  -0.61136  -0.60363
 Alpha  occ. eigenvalues --   -0.60043  -0.59751  -0.59569  -0.58864  -0.58761
 Alpha  occ. eigenvalues --   -0.57708  -0.57530  -0.56860  -0.56768  -0.54976
 Alpha  occ. eigenvalues --   -0.54467  -0.54001  -0.53655  -0.53353  -0.52927
 Alpha  occ. eigenvalues --   -0.52064  -0.51341  -0.50719  -0.50370  -0.49984
 Alpha  occ. eigenvalues --   -0.49614  -0.49277  -0.49041  -0.48606  -0.48575
 Alpha  occ. eigenvalues --   -0.48083  -0.47775  -0.47510  -0.47367  -0.47259
 Alpha  occ. eigenvalues --   -0.47024  -0.46810  -0.46758  -0.46558  -0.46198
 Alpha  occ. eigenvalues --   -0.46120  -0.45878  -0.45641  -0.45496  -0.45377
 Alpha  occ. eigenvalues --   -0.44791  -0.44510  -0.44316  -0.44059  -0.43989
 Alpha  occ. eigenvalues --   -0.43952  -0.43855  -0.43564  -0.43333  -0.43220
 Alpha  occ. eigenvalues --   -0.43017  -0.42923  -0.42569  -0.42458  -0.42261
 Alpha  occ. eigenvalues --   -0.42020  -0.41805  -0.41411  -0.41359  -0.41274
 Alpha  occ. eigenvalues --   -0.41078  -0.40938  -0.40851  -0.40687  -0.40611
 Alpha  occ. eigenvalues --   -0.40427  -0.40276  -0.39961  -0.39580  -0.39458
 Alpha  occ. eigenvalues --   -0.39319  -0.39243  -0.39177  -0.38932  -0.38830
 Alpha  occ. eigenvalues --   -0.38697  -0.38447  -0.38338  -0.38189  -0.38033
 Alpha  occ. eigenvalues --   -0.37695  -0.37604  -0.37549  -0.37175  -0.36799
 Alpha  occ. eigenvalues --   -0.36711  -0.36583  -0.36560  -0.36133  -0.35897
 Alpha  occ. eigenvalues --   -0.35591  -0.35544  -0.35302  -0.34852  -0.34720
 Alpha  occ. eigenvalues --   -0.34488  -0.34237  -0.34065  -0.34018  -0.33758
 Alpha  occ. eigenvalues --   -0.33140  -0.32969  -0.32680  -0.32191  -0.32138
 Alpha  occ. eigenvalues --   -0.31895  -0.31745  -0.31413  -0.31053  -0.31051
 Alpha  occ. eigenvalues --   -0.30451  -0.30334  -0.29672  -0.29458  -0.29173
 Alpha  occ. eigenvalues --   -0.29047  -0.28759  -0.28471  -0.26974  -0.26063
 Alpha  occ. eigenvalues --   -0.25826  -0.25492  -0.25322  -0.25119  -0.21102
 Alpha  occ. eigenvalues --   -0.18631
 Alpha virt. eigenvalues --   -0.11077  -0.05503  -0.04233  -0.01933  -0.01658
 Alpha virt. eigenvalues --   -0.00021   0.00905   0.01107   0.01408   0.03753
 Alpha virt. eigenvalues --    0.04212   0.04736   0.05377   0.05487   0.05891

 Mulliken charges:
               1
     1  Mg   0.950888
     2  C   -0.065376
     3  C   -0.036315
     4  C   -0.039850
     5  C   -0.086724
     6  N   -0.396338
     7  C    0.069910
     8  C   -0.091325
     9  C   -0.155296
    10  C    0.011079
    11  C    0.026899
    12  C    0.012193
    13  C    0.008662
    14  C    0.225938
    15  O   -0.275980
    16  O   -0.373833
    17  N   -0.504745
    18  C    0.204510
    19  C   -0.157739
    20  C   -0.075105
    21  C    0.161915
    22  C    0.040733
    23  C    0.039624
    24  O   -0.226599
    25  C   -0.067033
    26  N   -0.378545
    27  C    0.069706
    28  C   -0.121334
    29  C   -0.117614
    30  C    0.063981
    31  C    0.022218
    32  C   -0.000998
    33  C   -0.087329
    34  N   -0.481877
    35  C    0.176857
    36  C   -0.197065
    37  C    0.012018
    38  C    0.190149
    39  C    0.074879
    40  C    0.055686
    41  O   -0.211493
    42  C   -0.106414
    43  C    0.322397
    44  O   -0.266086
    45  O   -0.355506
    46  C    0.126902
    47  C    0.221523
    48  C   -0.116601
    49  C   -0.177114
    50  C   -0.016565
    51  C   -0.002374
    52  C    0.013953
    53  C   -0.025308
    54  C   -0.236933
    55  C   -0.026643
    56  C    0.036390
    57  C   -0.051434
    58  C    0.010860
    59  C   -0.213448
    60  C   -0.018403
    61  C   -0.005796
    62  C   -0.062705
    63  C    0.009442
    64  C   -0.244556
    65  C   -0.024808
    66  C   -0.020407
    67  H   -0.001657
    68  H    0.030623
    69  H    0.008141
    70  H    0.079251
    71  H    0.057175
    72  H    0.042564
    73  H    0.067732
    74  H    0.040704
    75  H    0.038883
    76  H    0.054058
    77  H    0.045819
    78  H    0.072074
    79  H    0.057688
    80  H    0.031912
    81  H    0.044172
    82  H    0.052437
    83  H    0.067115
    84  H    0.074762
    85  H    0.051775
    86  H    0.047590
    87  H    0.032589
    88  H    0.049720
    89  H    0.056696
    90  H    0.046585
    91  H    0.046330
    92  H    0.023278
    93  H    0.041001
    94  H    0.041481
    95  H    0.074468
    96  H    0.062833
    97  H    0.053800
    98  H    0.071121
    99  H    0.057816
   100  H    0.049917
   101  H    0.047568
   102  H    0.061423
   103  H    0.055516
   104  H    0.029653
   105  H    0.042274
   106  H    0.041632
   107  H    0.043626
   108  H    0.017538
   109  H    0.031275
   110  H    0.043656
   111  H    0.035166
   112  H    0.010939
   113  H    0.011464
   114  H    0.032555
   115  H    0.037869
   116  H    0.039443
   117  H    0.038365
   118  H    0.025617
   119  H    0.027060
   120  H    0.028322
   121  H    0.023191
   122  H    0.021037
   123  H    0.022303
   124  H    0.031302
   125  H    0.033451
   126  H    0.032393
   127  H    0.022856
   128  H    0.035306
   129  H    0.023512
   130  H    0.028366
   131  H    0.026999
   132  H    0.034566
   133  H    0.021505
   134  H    0.036534
   135  H    0.027154
   136  H    0.035301
   137  H    0.033632
   138  H    0.026980
   139  H    0.038702
   140  H    0.033801
 Sum of Mulliken charges =  -0.00000

 Dipole moment (field-independent basis, Debye):
    X=             -4.6669    Y=              1.8940    Z=              3.0146  Tot=              5.8698
 Quadrupole moment (field-independent basis, Debye-Ang):
   XX=           -374.8847   YY=           -437.4373   ZZ=           -401.5015
   XY=             24.9264   XZ=             26.9412   YZ=              5.0306

 Normal termination of Gaussian 16 at Thu Apr 28 19:08:06 2022.
