 Gaussian 16, Revision A.03,
 Gaussian 16:  ES64L-G16RevA.03 25-Dec-2016

 --------------------------------
 #p wB97XD/Def2SVP td=(nstates=5)
 --------------------------------

 -----------------------------------------------------
 step_1701_chromophore_18 TDDFT with wB97XD functional
 -----------------------------------------------------
 Symbolic Z-matrix:
 Charge =  0 Multiplicity = 1

                         Standard orientation:
 ---------------------------------------------------------------------
 Center     Atomic      Atomic             Coordinates (Angstroms)
 Number     Number       Type             X           Y           Z
 ---------------------------------------------------------------------
      1         12           0        5.699725    0.994846    0.211498
      2          6           0        4.782140   -2.359566    0.144723
      3          6           0        2.399315    1.926717   -0.052473
      4          6           0        6.744074    4.245111   -0.074746
      5          6           0        9.082473   -0.056638    0.188489
      6          7           0        3.792231   -0.184374   -0.186652
      7          6           0        3.617024   -1.568858   -0.006704
      8          6           0        2.126137   -1.915529    0.157701
      9          6           0        1.348008   -0.467401   -0.048551
     10          6           0        2.578528    0.519151   -0.038679
     11          6           0        0.713649   -0.339695   -1.392367
     12          6           0        1.797277   -2.587363    1.551779
     13          6           0        0.367252   -3.207606    1.655823
     14          6           0       -0.450221   -3.505260    0.409642
     15          8           0       -0.156700   -4.411308   -0.382593
     16          8           0       -1.620268   -2.739217    0.372426
     17          7           0        4.716352    2.843218   -0.039334
     18          6           0        3.325777    2.990090   -0.093992
     19          6           0        3.120987    4.373351   -0.302869
     20          6           0        4.325795    5.083022   -0.414415
     21          6           0        5.355232    4.042023   -0.116021
     22          6           0        1.677199    4.756965   -0.333430
     23          6           0        4.652825    6.495772   -0.775588
     24          8           0        5.755890    6.909061   -1.073169
     25          6           0        3.362308    7.463221   -0.937670
     26          7           0        7.647891    1.946023    0.225515
     27          6           0        7.767415    3.307263    0.089749
     28          6           0        9.297129    3.699507    0.230704
     29          6           0        9.962940    2.319329    0.456492
     30          6           0        8.820316    1.325271    0.271613
     31          6           0        9.934568    4.513363   -0.930903
     32          6           0       10.795740    2.207372    1.798723
     33          6           0       12.223629    1.907510    1.461199
     34          7           0        6.724038   -0.789761    0.149032
     35          6           0        8.097232   -1.047585    0.076991
     36          6           0        8.305855   -2.512406    0.020843
     37          6           0        7.025446   -3.079888    0.174718
     38          6           0        6.098762   -1.973778    0.136909
     39          6           0        9.586660   -3.163487   -0.274283
     40          6           0        6.305917   -4.250659    0.343224
     41          8           0        6.606185   -5.426335    0.378039
     42          6           0        4.823601   -3.872794    0.175752
     43          6           0        4.322863   -4.451572   -1.009869
     44          8           0        4.709535   -4.205630   -2.158780
     45          8           0        3.315913   -5.298315   -0.619353
     46          6           0        2.668184   -6.073579   -1.670779
     47          6           0       -2.634041   -3.258123   -0.538311
     48          6           0       -3.922409   -2.500241   -0.460711
     49          6           0       -5.061740   -2.975798   -0.916940
     50          6           0       -5.189392   -4.274798   -1.840839
     51          6           0       -6.325999   -2.197066   -0.830171
     52          6           0       -7.255514   -2.563675    0.293993
     53          6           0       -7.267533   -1.457890    1.320389
     54          6           0       -8.608522   -0.945012    1.890411
     55          6           0       -8.616392   -0.802092    3.464241
     56          6           0       -9.173900    0.277839    1.141414
     57          6           0      -10.488902   -0.033947    0.326862
     58          6           0      -11.807857    0.206397    1.035725
     59          6           0      -12.803597    1.206891    0.335761
     60          6           0      -12.713492    2.727404    0.740148
     61          6           0      -14.234128    0.654316    0.131506
     62          6           0      -14.961258    1.168450   -1.140354
     63          6           0      -16.490559    1.126367   -0.999767
     64          6           0      -17.095113    2.569255   -0.821822
     65          6           0      -16.855850    3.169616    0.556178
     66          6           0      -18.540235    2.737575   -1.427720
     67          1           0        1.322048    2.103049   -0.036423
     68          1           0        7.107939    5.268544   -0.182987
     69          1           0       10.139190   -0.330081    0.206922
     70          1           0        1.830389   -2.631653   -0.609372
     71          1           0        0.717808   -0.147377    0.781778
     72          1           0        0.682037   -1.345977   -1.808937
     73          1           0        1.145915    0.304035   -2.158770
     74          1           0       -0.311623   -0.010755   -1.219409
     75          1           0        1.817911   -1.702996    2.189593
     76          1           0        2.540708   -3.260769    1.979868
     77          1           0       -0.226465   -2.550866    2.292454
     78          1           0        0.376170   -4.128831    2.238688
     79          1           0        1.172626    4.675685   -1.296354
     80          1           0        1.620631    5.779228    0.041116
     81          1           0        1.039993    4.195882    0.350048
     82          1           0        3.792192    8.426319   -1.213405
     83          1           0        2.910249    7.576978    0.048384
     84          1           0        2.711158    6.997852   -1.677892
     85          1           0        9.465379    4.225484    1.171008
     86          1           0       10.607159    2.034302   -0.375760
     87          1           0       10.665154    3.913694   -1.473921
     88          1           0       10.432954    5.354949   -0.450151
     89          1           0        9.180726    4.757637   -1.678972
     90          1           0       10.414660    1.412056    2.439529
     91          1           0       10.906433    3.114703    2.392913
     92          1           0       12.849263    2.678812    1.911804
     93          1           0       12.453807    1.993780    0.399756
     94          1           0       12.650370    1.025383    1.937137
     95          1           0        9.282610   -4.126222   -0.685155
     96          1           0       10.172406   -3.251594    0.640724
     97          1           0       10.097390   -2.546171   -1.012865
     98          1           0        4.406011   -4.270172    1.100939
     99          1           0        3.228885   -6.312594   -2.573469
    100          1           0        1.755725   -5.648525   -2.088496
    101          1           0        2.288992   -6.994460   -1.227553
    102          1           0       -2.723548   -4.343366   -0.475412
    103          1           0       -2.305765   -3.100265   -1.565681
    104          1           0       -3.921162   -1.522663    0.021791
    105          1           0       -5.824517   -4.250783   -2.726316
    106          1           0       -5.729998   -5.086840   -1.356359
    107          1           0       -4.211495   -4.614478   -2.181753
    108          1           0       -6.869465   -2.333176   -1.765080
    109          1           0       -6.098132   -1.130907   -0.825647
    110          1           0       -6.936937   -3.464692    0.818093
    111          1           0       -8.182441   -2.709650   -0.261097
    112          1           0       -6.754736   -0.516724    1.121475
    113          1           0       -6.660009   -1.833706    2.143511
    114          1           0       -9.186477   -1.829948    1.625191
    115          1           0       -7.925908   -1.333617    4.118136
    116          1           0       -9.591691   -1.245896    3.664094
    117          1           0       -8.614534    0.248006    3.755141
    118          1           0       -8.378023    0.716210    0.539423
    119          1           0       -9.395487    0.965737    1.957437
    120          1           0      -10.599926   -1.056383   -0.031754
    121          1           0      -10.462350    0.498054   -0.624431
    122          1           0      -11.637398    0.627045    2.027380
    123          1           0      -12.274080   -0.755321    1.253146
    124          1           0      -12.443774    1.262971   -0.691450
    125          1           0      -12.156958    3.281636   -0.014906
    126          1           0      -12.302138    2.890543    1.735867
    127          1           0      -13.638758    3.302028    0.769637
    128          1           0      -14.861623    0.824195    1.006689
    129          1           0      -14.098521   -0.398609   -0.118293
    130          1           0      -14.706809    0.570554   -2.016448
    131          1           0      -14.610799    2.188989   -1.297071
    132          1           0      -16.768590    0.513156   -0.142267
    133          1           0      -16.852646    0.619915   -1.894255
    134          1           0      -16.627061    3.319960   -1.457467
    135          1           0      -17.640021    3.771672    1.014131
    136          1           0      -16.051018    3.899375    0.461873
    137          1           0      -16.522108    2.474197    1.326744
    138          1           0      -19.050333    1.789522   -1.601760
    139          1           0      -18.383926    3.161478   -2.419644
    140          1           0      -19.185960    3.291428   -0.746263
 ---------------------------------------------------------------------

 SCF Done:  E(RwB97XD) =  -3007.81788645     A.U. after   19 cycles

 Excitation energies and oscillator strengths:

 Excited State   1:      Singlet-A      1.6301 eV  760.58 nm  f=0.3791  <S**2>=0.000
     245 -> 248       -0.19244
     246 -> 247        0.68217
     245 <- 248       -0.12031
 This state for optimization and/or second-order correction.
 Total Energy, E(TD-HF/TD-DFT) =  -3007.75798017
 Copying the excited state density for this state as the 1-particle RhoCI density.

 Excited State   2:      Singlet-A      2.1777 eV  569.34 nm  f=0.0725  <S**2>=0.000
     245 -> 247        0.62134
     246 -> 248        0.32749

 Excited State   3:      Singlet-A      3.3368 eV  371.57 nm  f=0.0332  <S**2>=0.000
     240 -> 247        0.22004
     240 -> 249        0.19894
     240 -> 250        0.10540
     242 -> 247       -0.16190
     243 -> 247        0.47471
     243 -> 249        0.22728
     244 -> 247       -0.15520
     246 -> 248       -0.16569

 Excited State   4:      Singlet-A      3.4492 eV  359.46 nm  f=0.6145  <S**2>=0.000
     240 -> 247        0.20309
     244 -> 247       -0.17547
     245 -> 247       -0.28567
     246 -> 248        0.57302
     245 <- 247        0.10953

 Excited State   5:      Singlet-A      3.5155 eV  352.68 nm  f=0.0104  <S**2>=0.000
     240 -> 247        0.32369
     240 -> 249        0.12051
     244 -> 247        0.58980

 The electronic state is 1-A.
 Alpha  occ. eigenvalues --  -46.95205 -19.31532 -19.30075 -19.26138 -19.24107
 Alpha  occ. eigenvalues --  -19.23942 -19.23521 -14.46947 -14.46341 -14.44305
 Alpha  occ. eigenvalues --  -14.43974 -10.44648 -10.42147 -10.39087 -10.37877
 Alpha  occ. eigenvalues --  -10.36197 -10.36085 -10.35267 -10.34793 -10.34663
 Alpha  occ. eigenvalues --  -10.34576 -10.33795 -10.33786 -10.33548 -10.33210
 Alpha  occ. eigenvalues --  -10.33206 -10.33043 -10.33003 -10.32297 -10.32157
 Alpha  occ. eigenvalues --  -10.31743 -10.31596 -10.31558 -10.31312 -10.31266
 Alpha  occ. eigenvalues --  -10.31078 -10.31023 -10.30552 -10.30533 -10.30315
 Alpha  occ. eigenvalues --  -10.30265 -10.30102 -10.30078 -10.29995 -10.29895
 Alpha  occ. eigenvalues --  -10.29812 -10.29708 -10.29577 -10.29536 -10.29459
 Alpha  occ. eigenvalues --  -10.29404 -10.29377 -10.29291 -10.29235 -10.29125
 Alpha  occ. eigenvalues --  -10.28966 -10.28890 -10.28795 -10.28738 -10.28680
 Alpha  occ. eigenvalues --  -10.28583 -10.28568 -10.28468 -10.28163 -10.28141
 Alpha  occ. eigenvalues --  -10.28138  -3.21064  -1.94670  -1.94166  -1.94039
 Alpha  occ. eigenvalues --   -1.18533  -1.17516  -1.12432  -1.12400  -1.10626
 Alpha  occ. eigenvalues --   -1.08977  -1.06165  -1.05297  -1.04223  -1.02809
 Alpha  occ. eigenvalues --   -0.95475  -0.93202  -0.91407  -0.91015  -0.90917
 Alpha  occ. eigenvalues --   -0.90476  -0.90306  -0.89681  -0.89187  -0.88946
 Alpha  occ. eigenvalues --   -0.88342  -0.87510  -0.86760  -0.85883  -0.85225
 Alpha  occ. eigenvalues --   -0.84753  -0.84159  -0.82914  -0.82598  -0.81750
 Alpha  occ. eigenvalues --   -0.81503  -0.80519  -0.79643  -0.78926  -0.78144
 Alpha  occ. eigenvalues --   -0.77714  -0.77556  -0.77119  -0.76918  -0.76283
 Alpha  occ. eigenvalues --   -0.75753  -0.74738  -0.73640  -0.72852  -0.71198
 Alpha  occ. eigenvalues --   -0.70615  -0.70336  -0.69183  -0.68709  -0.67882
 Alpha  occ. eigenvalues --   -0.67496  -0.67236  -0.67167  -0.66321  -0.66217
 Alpha  occ. eigenvalues --   -0.65374  -0.65196  -0.64471  -0.64301  -0.62497
 Alpha  occ. eigenvalues --   -0.61932  -0.61354  -0.61123  -0.60898  -0.60352
 Alpha  occ. eigenvalues --   -0.59428  -0.58759  -0.58108  -0.57792  -0.57404
 Alpha  occ. eigenvalues --   -0.57131  -0.56624  -0.56439  -0.56070  -0.56024
 Alpha  occ. eigenvalues --   -0.55415  -0.55163  -0.54870  -0.54673  -0.54612
 Alpha  occ. eigenvalues --   -0.54408  -0.54178  -0.54131  -0.53930  -0.53582
 Alpha  occ. eigenvalues --   -0.53541  -0.53265  -0.53081  -0.52928  -0.52747
 Alpha  occ. eigenvalues --   -0.52018  -0.51835  -0.51565  -0.51381  -0.51343
 Alpha  occ. eigenvalues --   -0.51281  -0.51184  -0.50960  -0.50651  -0.50476
 Alpha  occ. eigenvalues --   -0.50329  -0.50197  -0.49790  -0.49663  -0.49515
 Alpha  occ. eigenvalues --   -0.49289  -0.49059  -0.48816  -0.48585  -0.48500
 Alpha  occ. eigenvalues --   -0.48334  -0.48097  -0.48023  -0.47913  -0.47840
 Alpha  occ. eigenvalues --   -0.47567  -0.47502  -0.47166  -0.46909  -0.46666
 Alpha  occ. eigenvalues --   -0.46534  -0.46458  -0.46335  -0.46162  -0.46005
 Alpha  occ. eigenvalues --   -0.45859  -0.45566  -0.45465  -0.45274  -0.45184
 Alpha  occ. eigenvalues --   -0.44925  -0.44738  -0.44649  -0.44243  -0.43873
 Alpha  occ. eigenvalues --   -0.43832  -0.43822  -0.43701  -0.43226  -0.43013
 Alpha  occ. eigenvalues --   -0.42641  -0.42577  -0.42334  -0.41893  -0.41713
 Alpha  occ. eigenvalues --   -0.41519  -0.41279  -0.41005  -0.40964  -0.40801
 Alpha  occ. eigenvalues --   -0.40088  -0.40022  -0.39739  -0.39229  -0.39174
 Alpha  occ. eigenvalues --   -0.38811  -0.38738  -0.38452  -0.38109  -0.37907
 Alpha  occ. eigenvalues --   -0.37612  -0.37321  -0.36784  -0.36399  -0.35928
 Alpha  occ. eigenvalues --   -0.35902  -0.35778  -0.35406  -0.33525  -0.32972
 Alpha  occ. eigenvalues --   -0.32587  -0.32339  -0.32249  -0.31788  -0.26125
 Alpha  occ. eigenvalues --   -0.22730
 Alpha virt. eigenvalues --   -0.06923  -0.00146   0.01992   0.04603   0.05163
 Alpha virt. eigenvalues --    0.05846   0.07609   0.07815   0.08092   0.09873
 Alpha virt. eigenvalues --    0.10960   0.11523   0.12239   0.12251   0.12653

 Mulliken charges:
               1
     1  Mg   0.942783
     2  C   -0.062784
     3  C   -0.045950
     4  C   -0.054721
     5  C   -0.110024
     6  N   -0.369485
     7  C    0.033402
     8  C   -0.057937
     9  C   -0.128818
    10  C   -0.002686
    11  C    0.034030
    12  C    0.024192
    13  C    0.021695
    14  C    0.213892
    15  O   -0.272712
    16  O   -0.371720
    17  N   -0.471069
    18  C    0.190188
    19  C   -0.141594
    20  C   -0.073228
    21  C    0.147636
    22  C    0.052245
    23  C    0.033777
    24  O   -0.222533
    25  C   -0.051444
    26  N   -0.343690
    27  C    0.053951
    28  C   -0.093716
    29  C   -0.087972
    30  C    0.051633
    31  C    0.032843
    32  C    0.009402
    33  C   -0.071343
    34  N   -0.445905
    35  C    0.173742
    36  C   -0.193898
    37  C    0.014153
    38  C    0.175107
    39  C    0.084878
    40  C    0.041414
    41  O   -0.200025
    42  C   -0.064509
    43  C    0.294864
    44  O   -0.259697
    45  O   -0.352639
    46  C    0.141357
    47  C    0.233563
    48  C   -0.124449
    49  C   -0.166942
    50  C   -0.003225
    51  C    0.020469
    52  C    0.026906
    53  C   -0.010833
    54  C   -0.207595
    55  C   -0.012175
    56  C    0.053319
    57  C   -0.033212
    58  C    0.022162
    59  C   -0.177634
    60  C   -0.006228
    61  C    0.010936
    62  C   -0.045220
    63  C    0.024374
    64  C   -0.213544
    65  C   -0.015358
    66  C   -0.008465
    67  H   -0.008776
    68  H    0.025814
    69  H    0.003634
    70  H    0.060974
    71  H    0.048488
    72  H    0.035021
    73  H    0.062600
    74  H    0.035825
    75  H    0.029473
    76  H    0.045600
    77  H    0.041028
    78  H    0.067706
    79  H    0.053125
    80  H    0.023623
    81  H    0.038202
    82  H    0.050015
    83  H    0.061200
    84  H    0.068451
    85  H    0.040265
    86  H    0.030948
    87  H    0.025996
    88  H    0.044778
    89  H    0.051258
    90  H    0.038971
    91  H    0.039576
    92  H    0.017420
    93  H    0.034039
    94  H    0.036178
    95  H    0.071433
    96  H    0.059775
    97  H    0.049331
    98  H    0.063914
    99  H    0.054384
   100  H    0.046544
   101  H    0.044232
   102  H    0.055497
   103  H    0.049311
   104  H    0.028111
   105  H    0.037563
   106  H    0.035828
   107  H    0.038028
   108  H    0.009890
   109  H    0.021638
   110  H    0.036506
   111  H    0.027314
   112  H   -0.001240
   113  H    0.002708
   114  H    0.015503
   115  H    0.033573
   116  H    0.032191
   117  H    0.031932
   118  H    0.018510
   119  H    0.014883
   120  H    0.019437
   121  H    0.015260
   122  H    0.009285
   123  H    0.015671
   124  H    0.013591
   125  H    0.028494
   126  H    0.027031
   127  H    0.012371
   128  H    0.023416
   129  H    0.013979
   130  H    0.022229
   131  H    0.013230
   132  H    0.025032
   133  H    0.014844
   134  H    0.024698
   135  H    0.022839
   136  H    0.027999
   137  H    0.025825
   138  H    0.020546
   139  H    0.033323
   140  H    0.028173
 Sum of Mulliken charges =  -0.00000

 Dipole moment (field-independent basis, Debye):
    X=             -4.5462    Y=              1.5068    Z=              3.0590  Tot=              5.6829
 Quadrupole moment (field-independent basis, Debye-Ang):
   XX=           -373.3577   YY=           -436.5642   ZZ=           -401.1656
   XY=             22.1069   XZ=             27.1700   YZ=              4.9902

 Normal termination of Gaussian 16 at Thu Apr 28 19:35:21 2022.
