 Gaussian 16, Revision A.03,
 Gaussian 16:  ES64L-G16RevA.03 25-Dec-2016

 --------------------
 #p ZINDO=(nstates=5)
 --------------------

 ------------------------------
 step_1701_chromophore_18 ZINDO
 ------------------------------
 Symbolic Z-matrix:
 Charge =  0 Multiplicity = 1

                         Standard orientation:
 ---------------------------------------------------------------------
 Center     Atomic      Atomic             Coordinates (Angstroms)
 Number     Number       Type             X           Y           Z
 ---------------------------------------------------------------------
      1         12           0        5.699725    0.994846    0.211498
      2          6           0        4.782140   -2.359566    0.144723
      3          6           0        2.399315    1.926717   -0.052473
      4          6           0        6.744074    4.245111   -0.074746
      5          6           0        9.082473   -0.056638    0.188489
      6          7           0        3.792231   -0.184374   -0.186652
      7          6           0        3.617024   -1.568858   -0.006704
      8          6           0        2.126137   -1.915529    0.157701
      9          6           0        1.348008   -0.467401   -0.048551
     10          6           0        2.578528    0.519151   -0.038679
     11          6           0        0.713649   -0.339695   -1.392367
     12          6           0        1.797277   -2.587363    1.551779
     13          6           0        0.367252   -3.207606    1.655823
     14          6           0       -0.450221   -3.505260    0.409642
     15          8           0       -0.156700   -4.411308   -0.382593
     16          8           0       -1.620268   -2.739217    0.372426
     17          7           0        4.716352    2.843218   -0.039334
     18          6           0        3.325777    2.990090   -0.093992
     19          6           0        3.120987    4.373351   -0.302869
     20          6           0        4.325795    5.083022   -0.414415
     21          6           0        5.355232    4.042023   -0.116021
     22          6           0        1.677199    4.756965   -0.333430
     23          6           0        4.652825    6.495772   -0.775588
     24          8           0        5.755890    6.909061   -1.073169
     25          6           0        3.362308    7.463221   -0.937670
     26          7           0        7.647891    1.946023    0.225515
     27          6           0        7.767415    3.307263    0.089749
     28          6           0        9.297129    3.699507    0.230704
     29          6           0        9.962940    2.319329    0.456492
     30          6           0        8.820316    1.325271    0.271613
     31          6           0        9.934568    4.513363   -0.930903
     32          6           0       10.795740    2.207372    1.798723
     33          6           0       12.223629    1.907510    1.461199
     34          7           0        6.724038   -0.789761    0.149032
     35          6           0        8.097232   -1.047585    0.076991
     36          6           0        8.305855   -2.512406    0.020843
     37          6           0        7.025446   -3.079888    0.174718
     38          6           0        6.098762   -1.973778    0.136909
     39          6           0        9.586660   -3.163487   -0.274283
     40          6           0        6.305917   -4.250659    0.343224
     41          8           0        6.606185   -5.426335    0.378039
     42          6           0        4.823601   -3.872794    0.175752
     43          6           0        4.322863   -4.451572   -1.009869
     44          8           0        4.709535   -4.205630   -2.158780
     45          8           0        3.315913   -5.298315   -0.619353
     46          6           0        2.668184   -6.073579   -1.670779
     47          6           0       -2.634041   -3.258123   -0.538311
     48          6           0       -3.922409   -2.500241   -0.460711
     49          6           0       -5.061740   -2.975798   -0.916940
     50          6           0       -5.189392   -4.274798   -1.840839
     51          6           0       -6.325999   -2.197066   -0.830171
     52          6           0       -7.255514   -2.563675    0.293993
     53          6           0       -7.267533   -1.457890    1.320389
     54          6           0       -8.608522   -0.945012    1.890411
     55          6           0       -8.616392   -0.802092    3.464241
     56          6           0       -9.173900    0.277839    1.141414
     57          6           0      -10.488902   -0.033947    0.326862
     58          6           0      -11.807857    0.206397    1.035725
     59          6           0      -12.803597    1.206891    0.335761
     60          6           0      -12.713492    2.727404    0.740148
     61          6           0      -14.234128    0.654316    0.131506
     62          6           0      -14.961258    1.168450   -1.140354
     63          6           0      -16.490559    1.126367   -0.999767
     64          6           0      -17.095113    2.569255   -0.821822
     65          6           0      -16.855850    3.169616    0.556178
     66          6           0      -18.540235    2.737575   -1.427720
     67          1           0        1.322048    2.103049   -0.036423
     68          1           0        7.107939    5.268544   -0.182987
     69          1           0       10.139190   -0.330081    0.206922
     70          1           0        1.830389   -2.631653   -0.609372
     71          1           0        0.717808   -0.147377    0.781778
     72          1           0        0.682037   -1.345977   -1.808937
     73          1           0        1.145915    0.304035   -2.158770
     74          1           0       -0.311623   -0.010755   -1.219409
     75          1           0        1.817911   -1.702996    2.189593
     76          1           0        2.540708   -3.260769    1.979868
     77          1           0       -0.226465   -2.550866    2.292454
     78          1           0        0.376170   -4.128831    2.238688
     79          1           0        1.172626    4.675685   -1.296354
     80          1           0        1.620631    5.779228    0.041116
     81          1           0        1.039993    4.195882    0.350048
     82          1           0        3.792192    8.426319   -1.213405
     83          1           0        2.910249    7.576978    0.048384
     84          1           0        2.711158    6.997852   -1.677892
     85          1           0        9.465379    4.225484    1.171008
     86          1           0       10.607159    2.034302   -0.375760
     87          1           0       10.665154    3.913694   -1.473921
     88          1           0       10.432954    5.354949   -0.450151
     89          1           0        9.180726    4.757637   -1.678972
     90          1           0       10.414660    1.412056    2.439529
     91          1           0       10.906433    3.114703    2.392913
     92          1           0       12.849263    2.678812    1.911804
     93          1           0       12.453807    1.993780    0.399756
     94          1           0       12.650370    1.025383    1.937137
     95          1           0        9.282610   -4.126222   -0.685155
     96          1           0       10.172406   -3.251594    0.640724
     97          1           0       10.097390   -2.546171   -1.012865
     98          1           0        4.406011   -4.270172    1.100939
     99          1           0        3.228885   -6.312594   -2.573469
    100          1           0        1.755725   -5.648525   -2.088496
    101          1           0        2.288992   -6.994460   -1.227553
    102          1           0       -2.723548   -4.343366   -0.475412
    103          1           0       -2.305765   -3.100265   -1.565681
    104          1           0       -3.921162   -1.522663    0.021791
    105          1           0       -5.824517   -4.250783   -2.726316
    106          1           0       -5.729998   -5.086840   -1.356359
    107          1           0       -4.211495   -4.614478   -2.181753
    108          1           0       -6.869465   -2.333176   -1.765080
    109          1           0       -6.098132   -1.130907   -0.825647
    110          1           0       -6.936937   -3.464692    0.818093
    111          1           0       -8.182441   -2.709650   -0.261097
    112          1           0       -6.754736   -0.516724    1.121475
    113          1           0       -6.660009   -1.833706    2.143511
    114          1           0       -9.186477   -1.829948    1.625191
    115          1           0       -7.925908   -1.333617    4.118136
    116          1           0       -9.591691   -1.245896    3.664094
    117          1           0       -8.614534    0.248006    3.755141
    118          1           0       -8.378023    0.716210    0.539423
    119          1           0       -9.395487    0.965737    1.957437
    120          1           0      -10.599926   -1.056383   -0.031754
    121          1           0      -10.462350    0.498054   -0.624431
    122          1           0      -11.637398    0.627045    2.027380
    123          1           0      -12.274080   -0.755321    1.253146
    124          1           0      -12.443774    1.262971   -0.691450
    125          1           0      -12.156958    3.281636   -0.014906
    126          1           0      -12.302138    2.890543    1.735867
    127          1           0      -13.638758    3.302028    0.769637
    128          1           0      -14.861623    0.824195    1.006689
    129          1           0      -14.098521   -0.398609   -0.118293
    130          1           0      -14.706809    0.570554   -2.016448
    131          1           0      -14.610799    2.188989   -1.297071
    132          1           0      -16.768590    0.513156   -0.142267
    133          1           0      -16.852646    0.619915   -1.894255
    134          1           0      -16.627061    3.319960   -1.457467
    135          1           0      -17.640021    3.771672    1.014131
    136          1           0      -16.051018    3.899375    0.461873
    137          1           0      -16.522108    2.474197    1.326744
    138          1           0      -19.050333    1.789522   -1.601760
    139          1           0      -18.383926    3.161478   -2.419644
    140          1           0      -19.185960    3.291428   -0.746263
 ---------------------------------------------------------------------

 SCF Done:  E(RZINDO/S) =  -474.232570816     A.U. after   20 cycles

 Excitation energies and oscillator strengths:

 Excited State   1:      Singlet-A      1.2424 eV  997.96 nm  f=0.5842  <S**2>=0.000
     175 ->178         0.18377
     176 ->177         0.66508
 This state for optimization and/or second-order correction.
 Total Energy, E(CIS/TDA) =  -474.186914209
 Copying the excited state density for this state as the 1-particle RhoCI density.

 Excited State   2:      Singlet-A      1.9176 eV  646.55 nm  f=0.0082  <S**2>=0.000
     175 ->177         0.50459
     176 ->178        -0.46851

 Excited State   3:      Singlet-A      2.7561 eV  449.85 nm  f=0.0062  <S**2>=0.000
     168 ->177         0.28872
     168 ->178        -0.13183
     168 ->179        -0.31976
     168 ->181         0.15107
     168 ->186        -0.15129
     169 ->177         0.18540
     169 ->179        -0.19499
     169 ->181         0.10269
     171 ->177        -0.19330
     171 ->179         0.14958
     176 ->179         0.15467

 Excited State   4:      Singlet-A      2.8843 eV  429.86 nm  f=0.3047  <S**2>=0.000
     168 ->177        -0.11216
     168 ->179         0.11237
     175 ->177         0.22943
     176 ->178         0.32913
     176 ->179         0.50889

 Excited State   5:      Singlet-A      2.9972 eV  413.67 nm  f=0.9064  <S**2>=0.000
     175 ->177        -0.37231
     176 ->178        -0.36238
     176 ->179         0.37862
     176 ->181         0.21410

 The electronic state is 1-A.
 Alpha  occ. eigenvalues --   -1.85231  -1.79917  -1.77557  -1.72761  -1.72189
 Alpha  occ. eigenvalues --   -1.68495  -1.64725  -1.61523  -1.60598  -1.56683
 Alpha  occ. eigenvalues --   -1.54935  -1.50770  -1.49465  -1.48787  -1.47986
 Alpha  occ. eigenvalues --   -1.43882  -1.42141  -1.40300  -1.39037  -1.38745
 Alpha  occ. eigenvalues --   -1.36527  -1.35796  -1.33785  -1.30664  -1.28974
 Alpha  occ. eigenvalues --   -1.27131  -1.25200  -1.21634  -1.20071  -1.19217
 Alpha  occ. eigenvalues --   -1.17026  -1.16889  -1.15292  -1.14836  -1.14331
 Alpha  occ. eigenvalues --   -1.12411  -1.10917  -1.10223  -1.04937  -1.03961
 Alpha  occ. eigenvalues --   -1.03223  -1.00482  -0.99141  -0.98539  -0.97068
 Alpha  occ. eigenvalues --   -0.96877  -0.94026  -0.92606  -0.92170  -0.91434
 Alpha  occ. eigenvalues --   -0.90959  -0.90610  -0.90207  -0.88338  -0.86883
 Alpha  occ. eigenvalues --   -0.86283  -0.85918  -0.84526  -0.82600  -0.81600
 Alpha  occ. eigenvalues --   -0.80312  -0.79332  -0.77312  -0.76876  -0.76655
 Alpha  occ. eigenvalues --   -0.76104  -0.75053  -0.74065  -0.73982  -0.73520
 Alpha  occ. eigenvalues --   -0.73039  -0.72172  -0.71759  -0.70750  -0.70686
 Alpha  occ. eigenvalues --   -0.69872  -0.69658  -0.68622  -0.67775  -0.67387
 Alpha  occ. eigenvalues --   -0.67028  -0.66887  -0.66323  -0.65879  -0.65283
 Alpha  occ. eigenvalues --   -0.64886  -0.64765  -0.64537  -0.64344  -0.64196
 Alpha  occ. eigenvalues --   -0.63873  -0.62877  -0.62188  -0.61657  -0.61322
 Alpha  occ. eigenvalues --   -0.61000  -0.60619  -0.60260  -0.60055  -0.59594
 Alpha  occ. eigenvalues --   -0.59468  -0.59068  -0.58720  -0.58321  -0.57777
 Alpha  occ. eigenvalues --   -0.57500  -0.57301  -0.56978  -0.56668  -0.56546
 Alpha  occ. eigenvalues --   -0.56292  -0.55944  -0.55624  -0.55433  -0.54925
 Alpha  occ. eigenvalues --   -0.54643  -0.54177  -0.53951  -0.53776  -0.53235
 Alpha  occ. eigenvalues --   -0.52916  -0.52312  -0.52001  -0.51796  -0.51612
 Alpha  occ. eigenvalues --   -0.51394  -0.51255  -0.50889  -0.50568  -0.50251
 Alpha  occ. eigenvalues --   -0.50222  -0.50041  -0.49722  -0.49330  -0.48781
 Alpha  occ. eigenvalues --   -0.48750  -0.48482  -0.48124  -0.47861  -0.47822
 Alpha  occ. eigenvalues --   -0.47452  -0.47147  -0.46437  -0.46100  -0.45929
 Alpha  occ. eigenvalues --   -0.45631  -0.45576  -0.45280  -0.45089  -0.44787
 Alpha  occ. eigenvalues --   -0.44611  -0.44527  -0.44098  -0.43712  -0.43641
 Alpha  occ. eigenvalues --   -0.43357  -0.42902  -0.42788  -0.42371  -0.41884
 Alpha  occ. eigenvalues --   -0.41328  -0.41294  -0.41111  -0.39603  -0.38804
 Alpha  occ. eigenvalues --   -0.38053  -0.36652  -0.35280  -0.34633  -0.34514
 Alpha  occ. eigenvalues --   -0.33410  -0.32922  -0.32245  -0.32083  -0.26805
 Alpha  occ. eigenvalues --   -0.21351
 Alpha virt. eigenvalues --   -0.08209  -0.02286  -0.00747   0.00751   0.01649
 Alpha virt. eigenvalues --    0.02593   0.02667   0.03058   0.04746   0.05150
 Alpha virt. eigenvalues --    0.06618   0.06892   0.07416   0.08027   0.08303

 Mulliken charges:
               1
     1  Mg   0.424459
     2  C   -0.047567
     3  C   -0.070850
     4  C   -0.048764
     5  C   -0.076008
     6  N   -0.306791
     7  C    0.144472
     8  C    0.010011
     9  C    0.003918
    10  C    0.091787
    11  C   -0.041254
    12  C   -0.021554
    13  C    0.005487
    14  C    0.471838
    15  O   -0.517524
    16  O   -0.271986
    17  N   -0.318832
    18  C    0.075803
    19  C    0.010369
    20  C   -0.058637
    21  C    0.121991
    22  C   -0.049256
    23  C    0.317802
    24  O   -0.516428
    25  C   -0.043805
    26  N   -0.257551
    27  C    0.097962
    28  C   -0.004808
    29  C   -0.004069
    30  C    0.159838
    31  C   -0.051783
    32  C   -0.025716
    33  C   -0.062068
    34  N   -0.328646
    35  C    0.109206
    36  C    0.065653
    37  C   -0.048562
    38  C    0.146278
    39  C   -0.033465
    40  C    0.341814
    41  O   -0.525918
    42  C    0.055388
    43  C    0.511404
    44  O   -0.537994
    45  O   -0.258369
    46  C    0.068998
    47  C    0.104685
    48  C   -0.071980
    49  C   -0.012537
    50  C   -0.058192
    51  C   -0.018187
    52  C   -0.017144
    53  C   -0.037263
    54  C   -0.018596
    55  C   -0.063772
    56  C   -0.029218
    57  C   -0.032154
    58  C   -0.027239
    59  C   -0.018527
    60  C   -0.058729
    61  C   -0.033559
    62  C   -0.038957
    63  C   -0.027919
    64  C   -0.014668
    65  C   -0.054383
    66  C   -0.063044
    67  H    0.023467
    68  H    0.048834
    69  H    0.032023
    70  H    0.050150
    71  H    0.038233
    72  H    0.019854
    73  H    0.035566
    74  H    0.012770
    75  H    0.016819
    76  H    0.036353
    77  H    0.024256
    78  H    0.043946
    79  H    0.031829
    80  H    0.010881
    81  H    0.020682
    82  H    0.035501
    83  H    0.034676
    84  H    0.044428
    85  H    0.030427
    86  H    0.030767
    87  H    0.017276
    88  H    0.026733
    89  H    0.033486
    90  H    0.023065
    91  H    0.031066
    92  H    0.004653
    93  H    0.024272
    94  H    0.020506
    95  H    0.042484
    96  H    0.042425
    97  H    0.033299
    98  H    0.047224
    99  H    0.049962
   100  H    0.039136
   101  H    0.028218
   102  H    0.055801
   103  H    0.043956
   104  H    0.038262
   105  H    0.027586
   106  H    0.024793
   107  H    0.022584
   108  H    0.009667
   109  H    0.018214
   110  H    0.027219
   111  H    0.024103
   112  H    0.016693
   113  H    0.004794
   114  H    0.013736
   115  H    0.027435
   116  H    0.012045
   117  H    0.020911
   118  H    0.024266
   119  H    0.021579
   120  H    0.017703
   121  H    0.014669
   122  H    0.012231
   123  H    0.018400
   124  H    0.008426
   125  H    0.017499
   126  H    0.018539
   127  H    0.017712
   128  H    0.027705
   129  H    0.014809
   130  H    0.018227
   131  H    0.019913
   132  H    0.022682
   133  H    0.016065
   134  H    0.016458
   135  H    0.018578
   136  H    0.009911
   137  H    0.017495
   138  H    0.012575
   139  H    0.022210
   140  H    0.024392
 Sum of Mulliken charges =  -0.00000

 Dipole moment (field-independent basis, Debye):
    X=             -4.6171    Y=              1.0517    Z=              5.2393  Tot=              7.0622
 N-N= 4.216036130907D+03 E-N= 0.000000000000D+00  KE=-9.106428813980D+03
 Leave Link  601 at Thu Apr 28 19:47:52 2022, MaxMem=  6710886400 cpu:               3.5 elap:               0.2
 (Enter /sw/apps/gaussian-16.0/g16/l9999.exe)
 1\1\GINC-BP1-COMPUTE158\SP\RZINDO CIS\STO-3G\C55H74Mg1N4O6\OF15641\28-
 Apr-2022\0\\#p ZINDO=(nstates=5)\\step_1701_chromophore_18 ZINDO\\0,1\
 Mg,0,34.854,49.169,25.114\C,0,34.969,47.463,28.143\C,0,33.275,51.817,2
 6.639\C,0,34.476,50.595,22.022\C,0,36.217,46.283,23.577\N,0,33.976,49.
 448,27.197\C,0,34.288,48.689,28.34\C,0,33.952,49.469,29.624\C,0,33.261
 ,50.872,29.077\C,0,33.566,50.755,27.534\C,0,31.776,50.876,29.216\C,0,3
 5.217,49.732,30.537\C,0,34.889,50.266,31.968\C,0,33.492,50.135,32.552\

 Normal termination of Gaussian 16 at Thu Apr 28 19:47:52 2022.
