 Gaussian 16, Revision A.03,
 Gaussian 16:  ES64L-G16RevA.03 25-Dec-2016

 ------------------------------
 #p blyp/Def2SVP td=(nstates=5)
 ------------------------------

 --------------------------------------------------
 step_951_chromophore_19 TDDFT with blyp functional
 --------------------------------------------------
 Symbolic Z-matrix:
 Charge =  0 Multiplicity = 1

                         Standard orientation:
 ---------------------------------------------------------------------
 Center     Atomic      Atomic             Coordinates (Angstroms)
 Number     Number       Type             X           Y           Z
 ---------------------------------------------------------------------
      1         12           0       -5.880023    0.582547   -0.474778
      2          6           0       -3.423007   -2.077962   -0.462479
      3          6           0       -3.467545    2.699957    0.414385
      4          6           0       -8.302885    2.725647    0.446014
      5          6           0       -8.406161   -2.058791   -0.372458
      6          7           0       -3.667086    0.327787   -0.270378
      7          6           0       -2.919477   -0.842117   -0.173097
      8          6           0       -1.408303   -0.502892    0.109168
      9          6           0       -1.544125    0.948685    0.632852
     10          6           0       -2.999449    1.388384    0.244408
     11          6           0       -1.385657    1.122065    2.103875
     12          6           0       -0.471624   -0.732936   -1.171697
     13          6           0        0.622502   -1.749109   -0.920486
     14          6           0        1.824738   -1.437274    0.024109
     15          8           0        1.790173   -1.240909    1.198066
     16          8           0        2.988845   -1.547551   -0.620965
     17          7           0       -5.872505    2.510114   -0.040961
     18          6           0       -4.783025    3.230433    0.289640
     19          6           0       -5.145725    4.646420    0.353601
     20          6           0       -6.604903    4.598504    0.564468
     21          6           0       -7.003632    3.231564    0.351578
     22          6           0       -4.094973    5.796428    0.525659
     23          6           0       -7.480445    5.743139    0.902884
     24          8           0       -8.644316    5.645621    1.161536
     25          6           0       -6.891089    7.083610    0.914969
     26          7           0       -8.068443    0.353943   -0.162201
     27          6           0       -8.783338    1.430511    0.183652
     28          6           0      -10.310943    1.081979    0.297565
     29          6           0      -10.309515   -0.442163   -0.132701
     30          6           0       -8.819135   -0.706269   -0.122321
     31          6           0      -10.836429    1.417026    1.733037
     32          6           0      -10.914158   -0.654951   -1.541504
     33          6           0      -11.993285   -1.690105   -1.845337
     34          7           0       -5.950202   -1.566745   -0.523686
     35          6           0       -7.026828   -2.461609   -0.549561
     36          6           0       -6.485426   -3.758187   -0.677557
     37          6           0       -5.140329   -3.651031   -0.601882
     38          6           0       -4.852277   -2.314399   -0.602352
     39          6           0       -7.302790   -5.058201   -0.647870
     40          6           0       -3.956662   -4.448982   -0.656043
     41          8           0       -3.816493   -5.671273   -0.674115
     42          6           0       -2.735705   -3.392010   -0.603347
     43          6           0       -1.953560   -3.821756    0.537325
     44          8           0       -2.049684   -3.450544    1.714854
     45          8           0       -1.171787   -4.880763    0.168300
     46          6           0       -0.194376   -5.254616    1.226572
     47          6           0        4.164191   -1.313507    0.216716
     48          6           0        5.477917   -1.110397   -0.501079
     49          6           0        6.770148   -0.994171    0.004653
     50          6           0        7.038645   -1.044912    1.503230
     51          6           0        7.980198   -0.752376   -0.914805
     52          6           0        8.342700    0.766872   -1.053834
     53          6           0        8.408318    1.133742   -2.545566
     54          6           0        9.458125    2.189058   -2.871250
     55          6           0        9.177322    3.144530   -4.017737
     56          6           0       10.831096    1.618611   -3.101020
     57          6           0       11.846533    2.194599   -2.141261
     58          6           0       13.085738    1.263522   -2.143711
     59          6           0       13.591281    1.080195   -0.702893
     60          6           0       15.089621    0.637610   -0.740805
     61          6           0       12.690582    0.040152    0.072120
     62          6           0       11.766106    0.673276    1.137259
     63          6           0       12.368020    0.632691    2.549331
     64          6           0       11.712670   -0.512392    3.454437
     65          6           0       11.460675    0.012699    4.956059
     66          6           0       12.325416   -1.932745    3.422959
     67          1           0       -2.657129    3.388024    0.663228
     68          1           0       -9.136011    3.340317    0.792649
     69          1           0       -9.191749   -2.809169   -0.485448
     70          1           0       -1.090924   -1.159572    0.920284
     71          1           0       -0.825823    1.550459    0.076538
     72          1           0       -2.326451    1.343662    2.607259
     73          1           0       -0.671456    1.927431    2.269449
     74          1           0       -1.026337    0.211158    2.583403
     75          1           0        0.067678    0.213410   -1.229742
     76          1           0       -0.927416   -0.757409   -2.161346
     77          1           0        1.054035   -1.902218   -1.909924
     78          1           0        0.232879   -2.638627   -0.426450
     79          1           0       -3.788320    5.806189    1.571435
     80          1           0       -4.337827    6.839985    0.320832
     81          1           0       -3.171625    5.644849   -0.033609
     82          1           0       -6.074266    7.051533    1.635671
     83          1           0       -7.687688    7.759750    1.224508
     84          1           0       -6.624608    7.380008   -0.098763
     85          1           0      -10.835408    1.719976   -0.414014
     86          1           0      -10.704586   -1.121821    0.623204
     87          1           0       -9.985085    1.668368    2.364672
     88          1           0      -11.339581    0.545318    2.152643
     89          1           0      -11.513875    2.264880    1.634653
     90          1           0      -10.108617   -0.975137   -2.201742
     91          1           0      -11.228309    0.321074   -1.910757
     92          1           0      -12.965422   -1.206913   -1.944213
     93          1           0      -12.162507   -2.406248   -1.042290
     94          1           0      -11.687790   -2.271598   -2.715730
     95          1           0       -7.686820   -5.223663   -1.654299
     96          1           0       -8.139455   -4.870580    0.024857
     97          1           0       -6.718054   -5.882037   -0.238537
     98          1           0       -2.217954   -3.496650   -1.556698
     99          1           0       -0.726774   -5.754146    2.036001
    100          1           0        0.401549   -4.426301    1.609296
    101          1           0        0.465563   -6.048639    0.878076
    102          1           0        4.325038   -2.261757    0.728858
    103          1           0        3.956398   -0.425585    0.814660
    104          1           0        5.400808   -0.842093   -1.553986
    105          1           0        7.736580   -0.269589    1.821034
    106          1           0        7.538604   -1.989542    1.716426
    107          1           0        6.174145   -0.927792    2.156724
    108          1           0        7.893962   -1.288953   -1.859430
    109          1           0        8.775143   -1.245410   -0.355564
    110          1           0        9.303355    1.007602   -0.597919
    111          1           0        7.595267    1.374802   -0.544356
    112          1           0        7.400185    1.470774   -2.786165
    113          1           0        8.590210    0.347870   -3.278105
    114          1           0        9.433157    2.835612   -1.994061
    115          1           0        9.655553    3.017687   -4.988646
    116          1           0        9.399737    4.110793   -3.564961
    117          1           0        8.190257    3.265673   -4.464244
    118          1           0       11.174657    1.935549   -4.085770
    119          1           0       11.070143    0.560621   -3.212298
    120          1           0       11.487949    2.466866   -1.148661
    121          1           0       12.303917    3.113618   -2.506969
    122          1           0       13.725769    1.671853   -2.925498
    123          1           0       12.846026    0.269076   -2.520608
    124          1           0       13.659476    2.028915   -0.169288
    125          1           0       15.556639    1.146756   -1.583877
    126          1           0       15.288241   -0.428376   -0.853382
    127          1           0       15.647219    1.045647    0.102107
    128          1           0       13.325536   -0.675294    0.594731
    129          1           0       12.067417   -0.461000   -0.669779
    130          1           0       10.755603    0.313946    0.942662
    131          1           0       11.599726    1.734295    0.946848
    132          1           0       12.160135    1.633800    2.927692
    133          1           0       13.448681    0.485933    2.553236
    134          1           0       10.694625   -0.722517    3.125843
    135          1           0       11.885957   -0.482704    5.828912
    136          1           0       10.382154   -0.089542    5.071009
    137          1           0       11.730175    1.065116    5.045260
    138          1           0       13.412220   -1.978587    3.344316
    139          1           0       11.873863   -2.475281    2.592602
    140          1           0       12.051098   -2.463626    4.334845
 ---------------------------------------------------------------------

 SCF Done:  E(RB-LYP) =  -3007.33376537     A.U. after   21 cycles

 Excitation energies and oscillator strengths:

 Excited State   1:      Singlet-A      1.8040 eV  687.27 nm  f=0.3063  <S**2>=0.000
     245 -> 248       -0.18506
     246 -> 247        0.69008
     246 <- 247       -0.15775
 This state for optimization and/or second-order correction.
 Total Energy, E(TD-HF/TD-DFT) =  -3007.26746957
 Copying the excited state density for this state as the 1-particle RhoCI density.

 Excited State   2:      Singlet-A      1.8996 eV  652.69 nm  f=0.0001  <S**2>=0.000
     244 -> 247        0.70636

 Excited State   3:      Singlet-A      2.0174 eV  614.57 nm  f=0.0641  <S**2>=0.000
     243 -> 247        0.34713
     245 -> 247        0.57178
     246 -> 248        0.19356

 Excited State   4:      Singlet-A      2.0948 eV  591.85 nm  f=0.0210  <S**2>=0.000
     243 -> 247        0.61270
     245 -> 247       -0.30963
     246 -> 248       -0.14951

 Excited State   5:      Singlet-A      2.1967 eV  564.41 nm  f=0.0000  <S**2>=0.000
     242 -> 247        0.70702

 The electronic state is 1-A.
 Alpha  occ. eigenvalues --  -46.27390 -18.82306 -18.81415 -18.76572 -18.76100
 Alpha  occ. eigenvalues --  -18.75820 -18.75072 -14.03075 -14.02892 -14.01251
 Alpha  occ. eigenvalues --  -14.00532 -10.03887 -10.03076  -9.99768  -9.98729
 Alpha  occ. eigenvalues --   -9.98253  -9.96940  -9.96390  -9.96181  -9.96050
 Alpha  occ. eigenvalues --   -9.96039  -9.95904  -9.95887  -9.94969  -9.94879
 Alpha  occ. eigenvalues --   -9.93898  -9.93727  -9.93715  -9.93715  -9.93701
 Alpha  occ. eigenvalues --   -9.93687  -9.93651  -9.93506  -9.93283  -9.93145
 Alpha  occ. eigenvalues --   -9.93000  -9.92941  -9.92751  -9.92673  -9.92651
 Alpha  occ. eigenvalues --   -9.92586  -9.92532  -9.92435  -9.92286  -9.92223
 Alpha  occ. eigenvalues --   -9.92204  -9.92196  -9.92055  -9.91994  -9.91969
 Alpha  occ. eigenvalues --   -9.91840  -9.91730  -9.91714  -9.91290  -9.91183
 Alpha  occ. eigenvalues --   -9.91155  -9.91072  -9.91062  -9.90929  -9.90823
 Alpha  occ. eigenvalues --   -9.90714  -9.90618  -9.90614  -9.90547  -9.90400
 Alpha  occ. eigenvalues --   -9.89761  -2.92012  -1.72440  -1.71903  -1.71719
 Alpha  occ. eigenvalues --   -0.99956  -0.96905  -0.92836  -0.91052  -0.90884
 Alpha  occ. eigenvalues --   -0.88190  -0.87910  -0.86360  -0.85804  -0.84556
 Alpha  occ. eigenvalues --   -0.75492  -0.74174  -0.72891  -0.72395  -0.72228
 Alpha  occ. eigenvalues --   -0.71969  -0.71535  -0.70651  -0.70407  -0.69843
 Alpha  occ. eigenvalues --   -0.69667  -0.69327  -0.68294  -0.67485  -0.67238
 Alpha  occ. eigenvalues --   -0.66729  -0.65823  -0.65506  -0.65080  -0.64567
 Alpha  occ. eigenvalues --   -0.64432  -0.62569  -0.61863  -0.61719  -0.60710
 Alpha  occ. eigenvalues --   -0.60461  -0.60161  -0.59693  -0.59295  -0.58823
 Alpha  occ. eigenvalues --   -0.58333  -0.57706  -0.56138  -0.55503  -0.54222
 Alpha  occ. eigenvalues --   -0.53869  -0.53670  -0.52869  -0.52679  -0.51928
 Alpha  occ. eigenvalues --   -0.51609  -0.50983  -0.50823  -0.50744  -0.50291
 Alpha  occ. eigenvalues --   -0.49521  -0.49386  -0.48839  -0.47594  -0.46770
 Alpha  occ. eigenvalues --   -0.46271  -0.46167  -0.45409  -0.44818  -0.44622
 Alpha  occ. eigenvalues --   -0.44281  -0.44119  -0.42746  -0.42488  -0.42433
 Alpha  occ. eigenvalues --   -0.42224  -0.41750  -0.41343  -0.41160  -0.40901
 Alpha  occ. eigenvalues --   -0.40661  -0.40547  -0.40358  -0.40178  -0.39941
 Alpha  occ. eigenvalues --   -0.39876  -0.39736  -0.39610  -0.39390  -0.39038
 Alpha  occ. eigenvalues --   -0.38655  -0.38344  -0.38257  -0.38204  -0.37913
 Alpha  occ. eigenvalues --   -0.37785  -0.37729  -0.37573  -0.37308  -0.37096
 Alpha  occ. eigenvalues --   -0.36937  -0.36876  -0.36620  -0.36505  -0.36386
 Alpha  occ. eigenvalues --   -0.36137  -0.35986  -0.35875  -0.35605  -0.35456
 Alpha  occ. eigenvalues --   -0.35264  -0.35129  -0.35023  -0.34690  -0.34678
 Alpha  occ. eigenvalues --   -0.34541  -0.34476  -0.34356  -0.34143  -0.33939
 Alpha  occ. eigenvalues --   -0.33895  -0.33810  -0.33588  -0.33448  -0.33277
 Alpha  occ. eigenvalues --   -0.33088  -0.32888  -0.32585  -0.32521  -0.32336
 Alpha  occ. eigenvalues --   -0.32273  -0.32222  -0.31879  -0.31662  -0.31267
 Alpha  occ. eigenvalues --   -0.31173  -0.31123  -0.30942  -0.30763  -0.30587
 Alpha  occ. eigenvalues --   -0.30382  -0.30192  -0.30046  -0.29763  -0.29647
 Alpha  occ. eigenvalues --   -0.29527  -0.29350  -0.29126  -0.28865  -0.28775
 Alpha  occ. eigenvalues --   -0.28398  -0.28337  -0.28267  -0.27928  -0.27799
 Alpha  occ. eigenvalues --   -0.27607  -0.27389  -0.26984  -0.26820  -0.26437
 Alpha  occ. eigenvalues --   -0.26305  -0.25922  -0.25813  -0.25667  -0.25118
 Alpha  occ. eigenvalues --   -0.24949  -0.24290  -0.23931  -0.23491  -0.23176
 Alpha  occ. eigenvalues --   -0.22950  -0.22079  -0.21798  -0.21157  -0.20778
 Alpha  occ. eigenvalues --   -0.20270  -0.19561  -0.19004  -0.18382  -0.17261
 Alpha  occ. eigenvalues --   -0.15651
 Alpha virt. eigenvalues --   -0.11489  -0.06789  -0.05871  -0.04446  -0.02672
 Alpha virt. eigenvalues --   -0.02338  -0.02222  -0.01542  -0.01094   0.00859
 Alpha virt. eigenvalues --    0.00961   0.01356   0.01893   0.02923   0.02972

 Mulliken charges:
               1
     1  Mg   0.707389
     2  C    0.032369
     3  C   -0.052457
     4  C   -0.045311
     5  C   -0.078514
     6  N   -0.219129
     7  C   -0.112350
     8  C    0.021330
     9  C   -0.019427
    10  C    0.022087
    11  C    0.150580
    12  C    0.145666
    13  C    0.117908
    14  C    0.029567
    15  O   -0.174713
    16  O   -0.247193
    17  N   -0.359833
    18  C    0.164484
    19  C   -0.121820
    20  C    0.032496
    21  C    0.179605
    22  C    0.128137
    23  C   -0.134153
    24  O   -0.134964
    25  C    0.154493
    26  N   -0.131483
    27  C   -0.035222
    28  C   -0.031150
    29  C    0.057635
    30  C   -0.043644
    31  C    0.131905
    32  C    0.089961
    33  C    0.071111
    34  N   -0.230503
    35  C    0.106085
    36  C   -0.207610
    37  C    0.112706
    38  C    0.065799
    39  C    0.182506
    40  C   -0.076948
    41  O   -0.124426
    42  C    0.090710
    43  C    0.110036
    44  O   -0.201196
    45  O   -0.269889
    46  C    0.227097
    47  C    0.314490
    48  C   -0.115555
    49  C   -0.193322
    50  C    0.120478
    51  C    0.153399
    52  C    0.086897
    53  C    0.103754
    54  C   -0.029558
    55  C    0.086978
    56  C    0.131571
    57  C    0.046959
    58  C    0.069886
    59  C   -0.052652
    60  C    0.094583
    61  C    0.123479
    62  C    0.017107
    63  C    0.134576
    64  C   -0.086305
    65  C    0.071225
    66  C    0.097799
    67  H   -0.066555
    68  H   -0.046739
    69  H   -0.053562
    70  H   -0.002340
    71  H   -0.034646
    72  H   -0.006190
    73  H   -0.011249
    74  H    0.004723
    75  H   -0.038777
    76  H   -0.008974
    77  H   -0.014153
    78  H    0.017811
    79  H    0.007541
    80  H   -0.000468
    81  H   -0.006608
    82  H    0.009216
    83  H   -0.019453
    84  H    0.012588
    85  H   -0.012677
    86  H   -0.031449
    87  H    0.003388
    88  H   -0.009913
    89  H    0.004955
    90  H   -0.018014
    91  H   -0.025278
    92  H   -0.004756
    93  H   -0.017581
    94  H   -0.001621
    95  H   -0.001554
    96  H   -0.011085
    97  H    0.010334
    98  H    0.003706
    99  H    0.011265
   100  H    0.024560
   101  H    0.001848
   102  H    0.008352
   103  H    0.023334
   104  H   -0.036779
   105  H   -0.004094
   106  H    0.002611
   107  H   -0.004748
   108  H   -0.013025
   109  H   -0.036553
   110  H   -0.021004
   111  H   -0.016874
   112  H   -0.045973
   113  H   -0.034341
   114  H   -0.039122
   115  H   -0.018125
   116  H   -0.017573
   117  H   -0.039272
   118  H   -0.050198
   119  H   -0.037703
   120  H   -0.021620
   121  H   -0.037020
   122  H   -0.037112
   123  H   -0.037039
   124  H   -0.038892
   125  H   -0.035754
   126  H   -0.012359
   127  H   -0.026045
   128  H   -0.024241
   129  H   -0.038599
   130  H   -0.017605
   131  H   -0.033145
   132  H   -0.035594
   133  H   -0.019142
   134  H   -0.031663
   135  H   -0.013420
   136  H   -0.019769
   137  H   -0.018870
   138  H   -0.010576
   139  H   -0.015359
   140  H   -0.018901
 Sum of Mulliken charges =  -0.00000

 Dipole moment (field-independent basis, Debye):
    X=              2.6705    Y=              3.3241    Z=             -2.5678  Tot=              4.9774
 Quadrupole moment (field-independent basis, Debye-Ang):
   XX=           -375.1526   YY=           -422.5044   ZZ=           -407.1304
   XY=              8.8260   XZ=             13.2341   YZ=             -4.1374

 Normal termination of Gaussian 16 at Thu May  5 15:14:55 2022.
