 Gaussian 16, Revision A.03,
 Gaussian 16:  ES64L-G16RevA.03 25-Dec-2016

 -----------------------------------
 #p cam-b3lyp/Def2SVP td=(nstates=5)
 -----------------------------------

 -------------------------------------------------------
 step_951_chromophore_19 TDDFT with cam-b3lyp functional
 -------------------------------------------------------
 Symbolic Z-matrix:
 Charge =  0 Multiplicity = 1

                         Standard orientation:
 ---------------------------------------------------------------------
 Center     Atomic      Atomic             Coordinates (Angstroms)
 Number     Number       Type             X           Y           Z
 ---------------------------------------------------------------------
      1         12           0       -5.880023    0.582547   -0.474778
      2          6           0       -3.423007   -2.077962   -0.462479
      3          6           0       -3.467545    2.699957    0.414385
      4          6           0       -8.302885    2.725647    0.446014
      5          6           0       -8.406161   -2.058791   -0.372458
      6          7           0       -3.667086    0.327787   -0.270378
      7          6           0       -2.919477   -0.842117   -0.173097
      8          6           0       -1.408303   -0.502892    0.109168
      9          6           0       -1.544125    0.948685    0.632852
     10          6           0       -2.999449    1.388384    0.244408
     11          6           0       -1.385657    1.122065    2.103875
     12          6           0       -0.471624   -0.732936   -1.171697
     13          6           0        0.622502   -1.749109   -0.920486
     14          6           0        1.824738   -1.437274    0.024109
     15          8           0        1.790173   -1.240909    1.198066
     16          8           0        2.988845   -1.547551   -0.620965
     17          7           0       -5.872505    2.510114   -0.040961
     18          6           0       -4.783025    3.230433    0.289640
     19          6           0       -5.145725    4.646420    0.353601
     20          6           0       -6.604903    4.598504    0.564468
     21          6           0       -7.003632    3.231564    0.351578
     22          6           0       -4.094973    5.796428    0.525659
     23          6           0       -7.480445    5.743139    0.902884
     24          8           0       -8.644316    5.645621    1.161536
     25          6           0       -6.891089    7.083610    0.914969
     26          7           0       -8.068443    0.353943   -0.162201
     27          6           0       -8.783338    1.430511    0.183652
     28          6           0      -10.310943    1.081979    0.297565
     29          6           0      -10.309515   -0.442163   -0.132701
     30          6           0       -8.819135   -0.706269   -0.122321
     31          6           0      -10.836429    1.417026    1.733037
     32          6           0      -10.914158   -0.654951   -1.541504
     33          6           0      -11.993285   -1.690105   -1.845337
     34          7           0       -5.950202   -1.566745   -0.523686
     35          6           0       -7.026828   -2.461609   -0.549561
     36          6           0       -6.485426   -3.758187   -0.677557
     37          6           0       -5.140329   -3.651031   -0.601882
     38          6           0       -4.852277   -2.314399   -0.602352
     39          6           0       -7.302790   -5.058201   -0.647870
     40          6           0       -3.956662   -4.448982   -0.656043
     41          8           0       -3.816493   -5.671273   -0.674115
     42          6           0       -2.735705   -3.392010   -0.603347
     43          6           0       -1.953560   -3.821756    0.537325
     44          8           0       -2.049684   -3.450544    1.714854
     45          8           0       -1.171787   -4.880763    0.168300
     46          6           0       -0.194376   -5.254616    1.226572
     47          6           0        4.164191   -1.313507    0.216716
     48          6           0        5.477917   -1.110397   -0.501079
     49          6           0        6.770148   -0.994171    0.004653
     50          6           0        7.038645   -1.044912    1.503230
     51          6           0        7.980198   -0.752376   -0.914805
     52          6           0        8.342700    0.766872   -1.053834
     53          6           0        8.408318    1.133742   -2.545566
     54          6           0        9.458125    2.189058   -2.871250
     55          6           0        9.177322    3.144530   -4.017737
     56          6           0       10.831096    1.618611   -3.101020
     57          6           0       11.846533    2.194599   -2.141261
     58          6           0       13.085738    1.263522   -2.143711
     59          6           0       13.591281    1.080195   -0.702893
     60          6           0       15.089621    0.637610   -0.740805
     61          6           0       12.690582    0.040152    0.072120
     62          6           0       11.766106    0.673276    1.137259
     63          6           0       12.368020    0.632691    2.549331
     64          6           0       11.712670   -0.512392    3.454437
     65          6           0       11.460675    0.012699    4.956059
     66          6           0       12.325416   -1.932745    3.422959
     67          1           0       -2.657129    3.388024    0.663228
     68          1           0       -9.136011    3.340317    0.792649
     69          1           0       -9.191749   -2.809169   -0.485448
     70          1           0       -1.090924   -1.159572    0.920284
     71          1           0       -0.825823    1.550459    0.076538
     72          1           0       -2.326451    1.343662    2.607259
     73          1           0       -0.671456    1.927431    2.269449
     74          1           0       -1.026337    0.211158    2.583403
     75          1           0        0.067678    0.213410   -1.229742
     76          1           0       -0.927416   -0.757409   -2.161346
     77          1           0        1.054035   -1.902218   -1.909924
     78          1           0        0.232879   -2.638627   -0.426450
     79          1           0       -3.788320    5.806189    1.571435
     80          1           0       -4.337827    6.839985    0.320832
     81          1           0       -3.171625    5.644849   -0.033609
     82          1           0       -6.074266    7.051533    1.635671
     83          1           0       -7.687688    7.759750    1.224508
     84          1           0       -6.624608    7.380008   -0.098763
     85          1           0      -10.835408    1.719976   -0.414014
     86          1           0      -10.704586   -1.121821    0.623204
     87          1           0       -9.985085    1.668368    2.364672
     88          1           0      -11.339581    0.545318    2.152643
     89          1           0      -11.513875    2.264880    1.634653
     90          1           0      -10.108617   -0.975137   -2.201742
     91          1           0      -11.228309    0.321074   -1.910757
     92          1           0      -12.965422   -1.206913   -1.944213
     93          1           0      -12.162507   -2.406248   -1.042290
     94          1           0      -11.687790   -2.271598   -2.715730
     95          1           0       -7.686820   -5.223663   -1.654299
     96          1           0       -8.139455   -4.870580    0.024857
     97          1           0       -6.718054   -5.882037   -0.238537
     98          1           0       -2.217954   -3.496650   -1.556698
     99          1           0       -0.726774   -5.754146    2.036001
    100          1           0        0.401549   -4.426301    1.609296
    101          1           0        0.465563   -6.048639    0.878076
    102          1           0        4.325038   -2.261757    0.728858
    103          1           0        3.956398   -0.425585    0.814660
    104          1           0        5.400808   -0.842093   -1.553986
    105          1           0        7.736580   -0.269589    1.821034
    106          1           0        7.538604   -1.989542    1.716426
    107          1           0        6.174145   -0.927792    2.156724
    108          1           0        7.893962   -1.288953   -1.859430
    109          1           0        8.775143   -1.245410   -0.355564
    110          1           0        9.303355    1.007602   -0.597919
    111          1           0        7.595267    1.374802   -0.544356
    112          1           0        7.400185    1.470774   -2.786165
    113          1           0        8.590210    0.347870   -3.278105
    114          1           0        9.433157    2.835612   -1.994061
    115          1           0        9.655553    3.017687   -4.988646
    116          1           0        9.399737    4.110793   -3.564961
    117          1           0        8.190257    3.265673   -4.464244
    118          1           0       11.174657    1.935549   -4.085770
    119          1           0       11.070143    0.560621   -3.212298
    120          1           0       11.487949    2.466866   -1.148661
    121          1           0       12.303917    3.113618   -2.506969
    122          1           0       13.725769    1.671853   -2.925498
    123          1           0       12.846026    0.269076   -2.520608
    124          1           0       13.659476    2.028915   -0.169288
    125          1           0       15.556639    1.146756   -1.583877
    126          1           0       15.288241   -0.428376   -0.853382
    127          1           0       15.647219    1.045647    0.102107
    128          1           0       13.325536   -0.675294    0.594731
    129          1           0       12.067417   -0.461000   -0.669779
    130          1           0       10.755603    0.313946    0.942662
    131          1           0       11.599726    1.734295    0.946848
    132          1           0       12.160135    1.633800    2.927692
    133          1           0       13.448681    0.485933    2.553236
    134          1           0       10.694625   -0.722517    3.125843
    135          1           0       11.885957   -0.482704    5.828912
    136          1           0       10.382154   -0.089542    5.071009
    137          1           0       11.730175    1.065116    5.045260
    138          1           0       13.412220   -1.978587    3.344316
    139          1           0       11.873863   -2.475281    2.592602
    140          1           0       12.051098   -2.463626    4.334845
 ---------------------------------------------------------------------

 SCF Done:  E(RCAM-B3LYP) =  -3007.13566153     A.U. after   18 cycles

 Excitation energies and oscillator strengths:

 Excited State   1:      Singlet-A      1.6840 eV  736.26 nm  f=0.3841  <S**2>=0.000
     245 -> 248       -0.17349
     246 -> 247        0.68596
     245 <- 248       -0.10535
 This state for optimization and/or second-order correction.
 Total Energy, E(TD-HF/TD-DFT) =  -3007.07377649
 Copying the excited state density for this state as the 1-particle RhoCI density.

 Excited State   2:      Singlet-A      2.2609 eV  548.39 nm  f=0.1258  <S**2>=0.000
     245 -> 247        0.63823
     246 -> 248        0.28931

 Excited State   3:      Singlet-A      3.3791 eV  366.91 nm  f=0.0134  <S**2>=0.000
     242 -> 247       -0.31251
     243 -> 247        0.59681
     246 -> 248        0.15991

 Excited State   4:      Singlet-A      3.4853 eV  355.73 nm  f=0.3769  <S**2>=0.000
     242 -> 247       -0.27225
     243 -> 247       -0.29919
     245 -> 247       -0.21430
     246 -> 248        0.52506

 Excited State   5:      Singlet-A      3.5784 eV  346.48 nm  f=0.1949  <S**2>=0.000
     240 -> 247       -0.24030
     241 -> 247       -0.23894
     241 -> 249       -0.18746
     242 -> 247        0.44142
     243 -> 247        0.15632
     245 -> 247       -0.13923
     246 -> 248        0.21917

 The electronic state is 1-A.
 Alpha  occ. eigenvalues --  -46.88927 -19.25135 -19.24366 -19.19551 -19.18953
 Alpha  occ. eigenvalues --  -19.18940 -19.18518 -14.42029 -14.41539 -14.39768
 Alpha  occ. eigenvalues --  -14.38754 -10.39072 -10.38560 -10.34953 -10.34009
 Alpha  occ. eigenvalues --  -10.32266 -10.31060 -10.30923 -10.30857 -10.30618
 Alpha  occ. eigenvalues --  -10.30583 -10.30206 -10.30010 -10.29848 -10.28817
 Alpha  occ. eigenvalues --  -10.27975 -10.27937 -10.27923 -10.27789 -10.27724
 Alpha  occ. eigenvalues --  -10.27720 -10.27633 -10.27410 -10.27379 -10.27354
 Alpha  occ. eigenvalues --  -10.27336 -10.26977 -10.26889 -10.26625 -10.26553
 Alpha  occ. eigenvalues --  -10.26520 -10.26347 -10.26309 -10.26250 -10.26207
 Alpha  occ. eigenvalues --  -10.26044 -10.25977 -10.25808 -10.25685 -10.25537
 Alpha  occ. eigenvalues --  -10.25519 -10.25383 -10.25280 -10.25248 -10.24978
 Alpha  occ. eigenvalues --  -10.24847 -10.24744 -10.24693 -10.24539 -10.24448
 Alpha  occ. eigenvalues --  -10.24392 -10.24245 -10.24188 -10.24146 -10.24018
 Alpha  occ. eigenvalues --  -10.23360  -3.17451  -1.92354  -1.91897  -1.91757
 Alpha  occ. eigenvalues --   -1.18493  -1.15441  -1.11548  -1.09137  -1.08767
 Alpha  occ. eigenvalues --   -1.06091  -1.05687  -1.03805  -1.03543  -1.02057
 Alpha  occ. eigenvalues --   -0.92477  -0.91044  -0.89693  -0.89139  -0.88892
 Alpha  occ. eigenvalues --   -0.88669  -0.88233  -0.87193  -0.86939  -0.86767
 Alpha  occ. eigenvalues --   -0.86007  -0.85711  -0.84549  -0.83638  -0.83369
 Alpha  occ. eigenvalues --   -0.82781  -0.82067  -0.81502  -0.80997  -0.80388
 Alpha  occ. eigenvalues --   -0.80259  -0.78407  -0.77355  -0.77231  -0.76078
 Alpha  occ. eigenvalues --   -0.75778  -0.75513  -0.74950  -0.74570  -0.74020
 Alpha  occ. eigenvalues --   -0.73368  -0.72674  -0.70974  -0.70284  -0.68718
 Alpha  occ. eigenvalues --   -0.68481  -0.68306  -0.67450  -0.67044  -0.66018
 Alpha  occ. eigenvalues --   -0.65852  -0.65003  -0.64954  -0.64875  -0.64301
 Alpha  occ. eigenvalues --   -0.63481  -0.63134  -0.62706  -0.61196  -0.60541
 Alpha  occ. eigenvalues --   -0.59817  -0.59710  -0.58904  -0.58293  -0.57952
 Alpha  occ. eigenvalues --   -0.57612  -0.57412  -0.56064  -0.55705  -0.55648
 Alpha  occ. eigenvalues --   -0.55322  -0.54991  -0.54649  -0.54035  -0.53814
 Alpha  occ. eigenvalues --   -0.53440  -0.53393  -0.53095  -0.52932  -0.52746
 Alpha  occ. eigenvalues --   -0.52635  -0.52321  -0.52116  -0.51995  -0.51886
 Alpha  occ. eigenvalues --   -0.51079  -0.50858  -0.50703  -0.50535  -0.50361
 Alpha  occ. eigenvalues --   -0.50257  -0.50166  -0.49881  -0.49724  -0.49509
 Alpha  occ. eigenvalues --   -0.49352  -0.49158  -0.48974  -0.48853  -0.48591
 Alpha  occ. eigenvalues --   -0.48510  -0.48176  -0.47993  -0.47928  -0.47915
 Alpha  occ. eigenvalues --   -0.47534  -0.47257  -0.46802  -0.46725  -0.46625
 Alpha  occ. eigenvalues --   -0.46407  -0.46308  -0.46253  -0.45940  -0.45821
 Alpha  occ. eigenvalues --   -0.45733  -0.45601  -0.45359  -0.45137  -0.44908
 Alpha  occ. eigenvalues --   -0.44779  -0.44422  -0.44137  -0.44118  -0.43984
 Alpha  occ. eigenvalues --   -0.43859  -0.43724  -0.43681  -0.43154  -0.42963
 Alpha  occ. eigenvalues --   -0.42924  -0.42600  -0.42500  -0.42359  -0.42029
 Alpha  occ. eigenvalues --   -0.41776  -0.41614  -0.41372  -0.41262  -0.40935
 Alpha  occ. eigenvalues --   -0.40781  -0.40655  -0.40331  -0.40019  -0.39981
 Alpha  occ. eigenvalues --   -0.39527  -0.39362  -0.39233  -0.38875  -0.38747
 Alpha  occ. eigenvalues --   -0.38732  -0.38429  -0.37800  -0.37601  -0.37568
 Alpha  occ. eigenvalues --   -0.37232  -0.37025  -0.36451  -0.36346  -0.35938
 Alpha  occ. eigenvalues --   -0.35824  -0.35724  -0.34291  -0.34031  -0.33757
 Alpha  occ. eigenvalues --   -0.33607  -0.33456  -0.32815  -0.31291  -0.30926
 Alpha  occ. eigenvalues --   -0.30416  -0.30095  -0.29708  -0.29114  -0.24031
 Alpha  occ. eigenvalues --   -0.20920
 Alpha virt. eigenvalues --   -0.08645  -0.01558   0.00731   0.02251   0.02666
 Alpha virt. eigenvalues --    0.05116   0.05278   0.06232   0.06348   0.06751
 Alpha virt. eigenvalues --    0.06881   0.08402   0.08817   0.09259   0.09338

 Mulliken charges:
               1
     1  Mg   0.837477
     2  C   -0.000633
     3  C   -0.077793
     4  C   -0.060317
     5  C   -0.073509
     6  N   -0.292513
     7  C   -0.060538
     8  C   -0.026308
     9  C   -0.072194
    10  C    0.046302
    11  C    0.088139
    12  C    0.088972
    13  C    0.054844
    14  C    0.110663
    15  O   -0.215265
    16  O   -0.311079
    17  N   -0.449386
    18  C    0.177184
    19  C   -0.120121
    20  C   -0.037007
    21  C    0.199251
    22  C    0.067266
    23  C   -0.049035
    24  O   -0.175743
    25  C    0.064834
    26  N   -0.199087
    27  C   -0.017998
    28  C   -0.080226
    29  C   -0.002959
    30  C   -0.026606
    31  C    0.071723
    32  C    0.033597
    33  C    0.009438
    34  N   -0.317634
    35  C    0.101371
    36  C   -0.198761
    37  C    0.026718
    38  C    0.107169
    39  C    0.129295
    40  C    0.023629
    41  O   -0.165021
    42  C    0.010963
    43  C    0.190638
    44  O   -0.235755
    45  O   -0.329978
    46  C    0.185435
    47  C    0.281794
    48  C   -0.133253
    49  C   -0.214799
    50  C    0.060692
    51  C    0.094213
    52  C    0.039619
    53  C    0.055271
    54  C   -0.094818
    55  C    0.030721
    56  C    0.069680
    57  C   -0.001096
    58  C    0.020284
    59  C   -0.113664
    60  C    0.039520
    61  C    0.073210
    62  C   -0.031664
    63  C    0.078784
    64  C   -0.142060
    65  C    0.013597
    66  C    0.042121
    67  H   -0.031503
    68  H   -0.003649
    69  H   -0.017608
    70  H    0.032601
    71  H    0.000842
    72  H    0.021366
    73  H    0.012886
    74  H    0.031399
    75  H   -0.008227
    76  H    0.023585
    77  H    0.023439
    78  H    0.037873
    79  H    0.035100
    80  H    0.028116
    81  H    0.022309
    82  H    0.036020
    83  H    0.018426
    84  H    0.041466
    85  H    0.021336
    86  H    0.003821
    87  H    0.028907
    88  H    0.015410
    89  H    0.028096
    90  H    0.012300
    91  H    0.002997
    92  H    0.018346
    93  H    0.004757
    94  H    0.021863
    95  H    0.023844
    96  H    0.011854
    97  H    0.038216
    98  H    0.046370
    99  H    0.037077
   100  H    0.044267
   101  H    0.027313
   102  H    0.034796
   103  H    0.050806
   104  H   -0.003531
   105  H    0.017667
   106  H    0.026484
   107  H    0.020294
   108  H    0.017825
   109  H   -0.008119
   110  H   -0.001570
   111  H    0.012217
   112  H   -0.015997
   113  H   -0.006978
   114  H   -0.005823
   115  H    0.005896
   116  H    0.006974
   117  H   -0.012216
   118  H   -0.017887
   119  H   -0.008581
   120  H    0.000608
   121  H   -0.007691
   122  H   -0.006783
   123  H   -0.009898
   124  H   -0.007202
   125  H   -0.010251
   126  H    0.011033
   127  H   -0.001024
   128  H    0.002413
   129  H   -0.011013
   130  H    0.003495
   131  H   -0.006458
   132  H   -0.005009
   133  H    0.006836
   134  H   -0.002464
   135  H    0.010447
   136  H    0.003303
   137  H    0.004463
   138  H    0.011375
   139  H    0.006975
   140  H    0.005774
 Sum of Mulliken charges =  -0.00000

 Dipole moment (field-independent basis, Debye):
    X=              2.7401    Y=              4.3282    Z=             -2.5533  Tot=              5.7237
 Quadrupole moment (field-independent basis, Debye-Ang):
   XX=           -372.2357   YY=           -418.0642   ZZ=           -406.7944
   XY=              3.9129   XZ=             12.4910   YZ=             -3.8584

 Normal termination of Gaussian 16 at Thu May  5 14:15:28 2022.
