 Gaussian 16, Revision A.03,
 Gaussian 16:  ES64L-G16RevA.03 25-Dec-2016

 ---------------------------------
 #p PBE1PBE/Def2SVP td=(nstates=5)
 ---------------------------------

 -----------------------------------------------------
 step_951_chromophore_19 TDDFT with PBE1PBE functional
 -----------------------------------------------------
 Symbolic Z-matrix:
 Charge =  0 Multiplicity = 1

                         Standard orientation:
 ---------------------------------------------------------------------
 Center     Atomic      Atomic             Coordinates (Angstroms)
 Number     Number       Type             X           Y           Z
 ---------------------------------------------------------------------
      1         12           0       -5.880023    0.582547   -0.474778
      2          6           0       -3.423007   -2.077962   -0.462479
      3          6           0       -3.467545    2.699957    0.414385
      4          6           0       -8.302885    2.725647    0.446014
      5          6           0       -8.406161   -2.058791   -0.372458
      6          7           0       -3.667086    0.327787   -0.270378
      7          6           0       -2.919477   -0.842117   -0.173097
      8          6           0       -1.408303   -0.502892    0.109168
      9          6           0       -1.544125    0.948685    0.632852
     10          6           0       -2.999449    1.388384    0.244408
     11          6           0       -1.385657    1.122065    2.103875
     12          6           0       -0.471624   -0.732936   -1.171697
     13          6           0        0.622502   -1.749109   -0.920486
     14          6           0        1.824738   -1.437274    0.024109
     15          8           0        1.790173   -1.240909    1.198066
     16          8           0        2.988845   -1.547551   -0.620965
     17          7           0       -5.872505    2.510114   -0.040961
     18          6           0       -4.783025    3.230433    0.289640
     19          6           0       -5.145725    4.646420    0.353601
     20          6           0       -6.604903    4.598504    0.564468
     21          6           0       -7.003632    3.231564    0.351578
     22          6           0       -4.094973    5.796428    0.525659
     23          6           0       -7.480445    5.743139    0.902884
     24          8           0       -8.644316    5.645621    1.161536
     25          6           0       -6.891089    7.083610    0.914969
     26          7           0       -8.068443    0.353943   -0.162201
     27          6           0       -8.783338    1.430511    0.183652
     28          6           0      -10.310943    1.081979    0.297565
     29          6           0      -10.309515   -0.442163   -0.132701
     30          6           0       -8.819135   -0.706269   -0.122321
     31          6           0      -10.836429    1.417026    1.733037
     32          6           0      -10.914158   -0.654951   -1.541504
     33          6           0      -11.993285   -1.690105   -1.845337
     34          7           0       -5.950202   -1.566745   -0.523686
     35          6           0       -7.026828   -2.461609   -0.549561
     36          6           0       -6.485426   -3.758187   -0.677557
     37          6           0       -5.140329   -3.651031   -0.601882
     38          6           0       -4.852277   -2.314399   -0.602352
     39          6           0       -7.302790   -5.058201   -0.647870
     40          6           0       -3.956662   -4.448982   -0.656043
     41          8           0       -3.816493   -5.671273   -0.674115
     42          6           0       -2.735705   -3.392010   -0.603347
     43          6           0       -1.953560   -3.821756    0.537325
     44          8           0       -2.049684   -3.450544    1.714854
     45          8           0       -1.171787   -4.880763    0.168300
     46          6           0       -0.194376   -5.254616    1.226572
     47          6           0        4.164191   -1.313507    0.216716
     48          6           0        5.477917   -1.110397   -0.501079
     49          6           0        6.770148   -0.994171    0.004653
     50          6           0        7.038645   -1.044912    1.503230
     51          6           0        7.980198   -0.752376   -0.914805
     52          6           0        8.342700    0.766872   -1.053834
     53          6           0        8.408318    1.133742   -2.545566
     54          6           0        9.458125    2.189058   -2.871250
     55          6           0        9.177322    3.144530   -4.017737
     56          6           0       10.831096    1.618611   -3.101020
     57          6           0       11.846533    2.194599   -2.141261
     58          6           0       13.085738    1.263522   -2.143711
     59          6           0       13.591281    1.080195   -0.702893
     60          6           0       15.089621    0.637610   -0.740805
     61          6           0       12.690582    0.040152    0.072120
     62          6           0       11.766106    0.673276    1.137259
     63          6           0       12.368020    0.632691    2.549331
     64          6           0       11.712670   -0.512392    3.454437
     65          6           0       11.460675    0.012699    4.956059
     66          6           0       12.325416   -1.932745    3.422959
     67          1           0       -2.657129    3.388024    0.663228
     68          1           0       -9.136011    3.340317    0.792649
     69          1           0       -9.191749   -2.809169   -0.485448
     70          1           0       -1.090924   -1.159572    0.920284
     71          1           0       -0.825823    1.550459    0.076538
     72          1           0       -2.326451    1.343662    2.607259
     73          1           0       -0.671456    1.927431    2.269449
     74          1           0       -1.026337    0.211158    2.583403
     75          1           0        0.067678    0.213410   -1.229742
     76          1           0       -0.927416   -0.757409   -2.161346
     77          1           0        1.054035   -1.902218   -1.909924
     78          1           0        0.232879   -2.638627   -0.426450
     79          1           0       -3.788320    5.806189    1.571435
     80          1           0       -4.337827    6.839985    0.320832
     81          1           0       -3.171625    5.644849   -0.033609
     82          1           0       -6.074266    7.051533    1.635671
     83          1           0       -7.687688    7.759750    1.224508
     84          1           0       -6.624608    7.380008   -0.098763
     85          1           0      -10.835408    1.719976   -0.414014
     86          1           0      -10.704586   -1.121821    0.623204
     87          1           0       -9.985085    1.668368    2.364672
     88          1           0      -11.339581    0.545318    2.152643
     89          1           0      -11.513875    2.264880    1.634653
     90          1           0      -10.108617   -0.975137   -2.201742
     91          1           0      -11.228309    0.321074   -1.910757
     92          1           0      -12.965422   -1.206913   -1.944213
     93          1           0      -12.162507   -2.406248   -1.042290
     94          1           0      -11.687790   -2.271598   -2.715730
     95          1           0       -7.686820   -5.223663   -1.654299
     96          1           0       -8.139455   -4.870580    0.024857
     97          1           0       -6.718054   -5.882037   -0.238537
     98          1           0       -2.217954   -3.496650   -1.556698
     99          1           0       -0.726774   -5.754146    2.036001
    100          1           0        0.401549   -4.426301    1.609296
    101          1           0        0.465563   -6.048639    0.878076
    102          1           0        4.325038   -2.261757    0.728858
    103          1           0        3.956398   -0.425585    0.814660
    104          1           0        5.400808   -0.842093   -1.553986
    105          1           0        7.736580   -0.269589    1.821034
    106          1           0        7.538604   -1.989542    1.716426
    107          1           0        6.174145   -0.927792    2.156724
    108          1           0        7.893962   -1.288953   -1.859430
    109          1           0        8.775143   -1.245410   -0.355564
    110          1           0        9.303355    1.007602   -0.597919
    111          1           0        7.595267    1.374802   -0.544356
    112          1           0        7.400185    1.470774   -2.786165
    113          1           0        8.590210    0.347870   -3.278105
    114          1           0        9.433157    2.835612   -1.994061
    115          1           0        9.655553    3.017687   -4.988646
    116          1           0        9.399737    4.110793   -3.564961
    117          1           0        8.190257    3.265673   -4.464244
    118          1           0       11.174657    1.935549   -4.085770
    119          1           0       11.070143    0.560621   -3.212298
    120          1           0       11.487949    2.466866   -1.148661
    121          1           0       12.303917    3.113618   -2.506969
    122          1           0       13.725769    1.671853   -2.925498
    123          1           0       12.846026    0.269076   -2.520608
    124          1           0       13.659476    2.028915   -0.169288
    125          1           0       15.556639    1.146756   -1.583877
    126          1           0       15.288241   -0.428376   -0.853382
    127          1           0       15.647219    1.045647    0.102107
    128          1           0       13.325536   -0.675294    0.594731
    129          1           0       12.067417   -0.461000   -0.669779
    130          1           0       10.755603    0.313946    0.942662
    131          1           0       11.599726    1.734295    0.946848
    132          1           0       12.160135    1.633800    2.927692
    133          1           0       13.448681    0.485933    2.553236
    134          1           0       10.694625   -0.722517    3.125843
    135          1           0       11.885957   -0.482704    5.828912
    136          1           0       10.382154   -0.089542    5.071009
    137          1           0       11.730175    1.065116    5.045260
    138          1           0       13.412220   -1.978587    3.344316
    139          1           0       11.873863   -2.475281    2.592602
    140          1           0       12.051098   -2.463626    4.334845
 ---------------------------------------------------------------------

 SCF Done:  E(RPBE1PBE) =  -3005.32524686     A.U. after   16 cycles

 Excitation energies and oscillator strengths:

 Excited State   1:      Singlet-A      1.8456 eV  671.80 nm  f=0.3712  <S**2>=0.000
     245 -> 248       -0.16808
     246 -> 247        0.69324
     246 <- 247       -0.11420
 This state for optimization and/or second-order correction.
 Total Energy, E(TD-HF/TD-DFT) =  -3005.25742377
 Copying the excited state density for this state as the 1-particle RhoCI density.

 Excited State   2:      Singlet-A      2.2568 eV  549.38 nm  f=0.1213  <S**2>=0.000
     245 -> 247        0.64944
     246 -> 248        0.26303

 Excited State   3:      Singlet-A      3.0189 eV  410.69 nm  f=0.0002  <S**2>=0.000
     242 -> 247        0.51184
     243 -> 247       -0.44628

 Excited State   4:      Singlet-A      3.0703 eV  403.82 nm  f=0.0049  <S**2>=0.000
     240 -> 247        0.10882
     241 -> 247        0.61698
     241 -> 249        0.13872
     242 -> 247       -0.13559
     243 -> 247       -0.22392

 Excited State   5:      Singlet-A      3.0820 eV  402.28 nm  f=0.0004  <S**2>=0.000
     241 -> 247        0.23600
     242 -> 247        0.42379
     243 -> 247        0.48861

 The electronic state is 1-A.
 Alpha  occ. eigenvalues --  -46.92333 -19.25839 -19.25023 -19.19821 -19.19381
 Alpha  occ. eigenvalues --  -19.19206 -19.18535 -14.41382 -14.41179 -14.39367
 Alpha  occ. eigenvalues --  -14.38524 -10.36111 -10.35581 -10.32261 -10.30923
 Alpha  occ. eigenvalues --  -10.29684 -10.28656 -10.28322 -10.28248 -10.28180
 Alpha  occ. eigenvalues --  -10.28177 -10.28067 -10.27886 -10.27411 -10.26800
 Alpha  occ. eigenvalues --  -10.25784 -10.25631 -10.25624 -10.25545 -10.25299
 Alpha  occ. eigenvalues --  -10.25231 -10.25230 -10.25213 -10.25130 -10.25021
 Alpha  occ. eigenvalues --  -10.24860 -10.24847 -10.24736 -10.24351 -10.24260
 Alpha  occ. eigenvalues --  -10.24136 -10.24009 -10.23918 -10.23812 -10.23727
 Alpha  occ. eigenvalues --  -10.23592 -10.23529 -10.23518 -10.23152 -10.23106
 Alpha  occ. eigenvalues --  -10.23078 -10.22971 -10.22809 -10.22536 -10.22411
 Alpha  occ. eigenvalues --  -10.22399 -10.22251 -10.22112 -10.21982 -10.21980
 Alpha  occ. eigenvalues --  -10.21867 -10.21800 -10.21717 -10.21605 -10.21416
 Alpha  occ. eigenvalues --  -10.21266  -3.14436  -1.87279  -1.86801  -1.86667
 Alpha  occ. eigenvalues --   -1.13353  -1.10210  -1.06121  -1.04043  -1.03665
 Alpha  occ. eigenvalues --   -1.00914  -1.00316  -0.98637  -0.98114  -0.96706
 Alpha  occ. eigenvalues --   -0.86944  -0.85150  -0.83827  -0.83324  -0.83191
 Alpha  occ. eigenvalues --   -0.82794  -0.82516  -0.81552  -0.81045  -0.80840
 Alpha  occ. eigenvalues --   -0.80456  -0.79967  -0.78734  -0.77976  -0.77625
 Alpha  occ. eigenvalues --   -0.76990  -0.76191  -0.75689  -0.75288  -0.74652
 Alpha  occ. eigenvalues --   -0.74512  -0.72620  -0.71659  -0.71543  -0.70257
 Alpha  occ. eigenvalues --   -0.70101  -0.69595  -0.69315  -0.68702  -0.68210
 Alpha  occ. eigenvalues --   -0.67735  -0.67128  -0.65428  -0.64572  -0.63109
 Alpha  occ. eigenvalues --   -0.62847  -0.62590  -0.61877  -0.61287  -0.60459
 Alpha  occ. eigenvalues --   -0.60006  -0.59567  -0.59336  -0.59113  -0.58890
 Alpha  occ. eigenvalues --   -0.57708  -0.57652  -0.56897  -0.55833  -0.55000
 Alpha  occ. eigenvalues --   -0.54421  -0.54116  -0.53482  -0.52769  -0.52565
 Alpha  occ. eigenvalues --   -0.52201  -0.51807  -0.50526  -0.50272  -0.50168
 Alpha  occ. eigenvalues --   -0.49661  -0.49541  -0.49229  -0.48625  -0.48277
 Alpha  occ. eigenvalues --   -0.47999  -0.47636  -0.47616  -0.47542  -0.47345
 Alpha  occ. eigenvalues --   -0.47186  -0.46946  -0.46723  -0.46478  -0.46428
 Alpha  occ. eigenvalues --   -0.45598  -0.45425  -0.45279  -0.45062  -0.45013
 Alpha  occ. eigenvalues --   -0.44919  -0.44739  -0.44417  -0.44252  -0.44112
 Alpha  occ. eigenvalues --   -0.43968  -0.43735  -0.43516  -0.43408  -0.43198
 Alpha  occ. eigenvalues --   -0.43103  -0.42815  -0.42659  -0.42588  -0.42504
 Alpha  occ. eigenvalues --   -0.42081  -0.41918  -0.41441  -0.41403  -0.41280
 Alpha  occ. eigenvalues --   -0.41110  -0.41071  -0.40846  -0.40588  -0.40519
 Alpha  occ. eigenvalues --   -0.40397  -0.40251  -0.40178  -0.39940  -0.39625
 Alpha  occ. eigenvalues --   -0.39545  -0.39061  -0.38936  -0.38893  -0.38762
 Alpha  occ. eigenvalues --   -0.38621  -0.38466  -0.38404  -0.37985  -0.37762
 Alpha  occ. eigenvalues --   -0.37600  -0.37257  -0.37206  -0.37153  -0.36912
 Alpha  occ. eigenvalues --   -0.36622  -0.36381  -0.36188  -0.36148  -0.35784
 Alpha  occ. eigenvalues --   -0.35623  -0.35490  -0.35130  -0.34946  -0.34826
 Alpha  occ. eigenvalues --   -0.34489  -0.34213  -0.34012  -0.33727  -0.33649
 Alpha  occ. eigenvalues --   -0.33578  -0.33404  -0.32588  -0.32572  -0.32368
 Alpha  occ. eigenvalues --   -0.32154  -0.31829  -0.31558  -0.31139  -0.30947
 Alpha  occ. eigenvalues --   -0.30800  -0.30616  -0.29257  -0.29101  -0.28707
 Alpha  occ. eigenvalues --   -0.28545  -0.28482  -0.28276  -0.26948  -0.25767
 Alpha  occ. eigenvalues --   -0.25533  -0.25486  -0.25291  -0.24433  -0.20955
 Alpha  occ. eigenvalues --   -0.18564
 Alpha virt. eigenvalues --   -0.11093  -0.05090  -0.03528  -0.01887  -0.00333
 Alpha virt. eigenvalues --    0.00638   0.00743   0.01704   0.01816   0.03674
 Alpha virt. eigenvalues --    0.03712   0.04194   0.04775   0.05880   0.05960

 Mulliken charges:
               1
     1  Mg   0.980936
     2  C   -0.015546
     3  C   -0.064242
     4  C   -0.048936
     5  C   -0.066061
     6  N   -0.391183
     7  C    0.018935
     8  C   -0.083198
     9  C   -0.157176
    10  C    0.078968
    11  C    0.035679
    12  C    0.036764
    13  C   -0.036771
    14  C    0.184968
    15  O   -0.249514
    16  O   -0.345350
    17  N   -0.561740
    18  C    0.182652
    19  C   -0.122659
    20  C   -0.097697
    21  C    0.224102
    22  C    0.004743
    23  C    0.006302
    24  O   -0.216852
    25  C   -0.013848
    26  N   -0.306543
    27  C    0.016867
    28  C   -0.154938
    29  C   -0.081853
    30  C    0.018948
    31  C    0.013625
    32  C   -0.021530
    33  C   -0.061150
    34  N   -0.445444
    35  C    0.127667
    36  C   -0.215146
    37  C   -0.020211
    38  C    0.163924
    39  C    0.072973
    40  C    0.116694
    41  O   -0.208012
    42  C   -0.094802
    43  C    0.269220
    44  O   -0.269227
    45  O   -0.360114
    46  C    0.127589
    47  C    0.240697
    48  C   -0.138390
    49  C   -0.262819
    50  C   -0.001580
    51  C    0.028663
    52  C   -0.031843
    53  C    0.006959
    54  C   -0.194046
    55  C   -0.021904
    56  C    0.016867
    57  C   -0.058116
    58  C   -0.033870
    59  C   -0.203824
    60  C   -0.018803
    61  C    0.020004
    62  C   -0.099237
    63  C    0.021824
    64  C   -0.231896
    65  C   -0.046163
    66  C   -0.017407
    67  H    0.001137
    68  H    0.027441
    69  H    0.012941
    70  H    0.071546
    71  H    0.036695
    72  H    0.049692
    73  H    0.040035
    74  H    0.057846
    75  H    0.027118
    76  H    0.053353
    77  H    0.056200
    78  H    0.082656
    79  H    0.062669
    80  H    0.053640
    81  H    0.048727
    82  H    0.063178
    83  H    0.046347
    84  H    0.068353
    85  H    0.057222
    86  H    0.039888
    87  H    0.057280
    88  H    0.043278
    89  H    0.054949
    90  H    0.045773
    91  H    0.036010
    92  H    0.046207
    93  H    0.031977
    94  H    0.048855
    95  H    0.052956
    96  H    0.039631
    97  H    0.065620
    98  H    0.082168
    99  H    0.059838
   100  H    0.065434
   101  H    0.049876
   102  H    0.062377
   103  H    0.075765
   104  H    0.027313
   105  H    0.046090
   106  H    0.054369
   107  H    0.046599
   108  H    0.048107
   109  H    0.027311
   110  H    0.039574
   111  H    0.044733
   112  H    0.017926
   113  H    0.024700
   114  H    0.032874
   115  H    0.031448
   116  H    0.034808
   117  H    0.014800
   118  H    0.016336
   119  H    0.021419
   120  H    0.031953
   121  H    0.026860
   122  H    0.024554
   123  H    0.022151
   124  H    0.030912
   125  H    0.018346
   126  H    0.037852
   127  H    0.027057
   128  H    0.036192
   129  H    0.021917
   130  H    0.039107
   131  H    0.025582
   132  H    0.027076
   133  H    0.038942
   134  H    0.036803
   135  H    0.036845
   136  H    0.030530
   137  H    0.031474
   138  H    0.037887
   139  H    0.034387
   140  H    0.033558
 Sum of Mulliken charges =  -0.00000

 Dipole moment (field-independent basis, Debye):
    X=              2.7604    Y=              3.9836    Z=             -2.6153  Tot=              5.5071
 Quadrupole moment (field-independent basis, Debye-Ang):
   XX=           -366.8360   YY=           -415.8241   ZZ=           -404.0305
   XY=              7.2744   XZ=             12.9597   YZ=             -3.8981

 Normal termination of Gaussian 16 at Thu May  5 14:34:29 2022.
