 Gaussian 16, Revision A.03,
 Gaussian 16:  ES64L-G16RevA.03 25-Dec-2016

 --------------------------------
 #p wB97XD/Def2SVP td=(nstates=5)
 --------------------------------

 ----------------------------------------------------
 step_951_chromophore_19 TDDFT with wB97XD functional
 ----------------------------------------------------
 Symbolic Z-matrix:
 Charge =  0 Multiplicity = 1

                         Standard orientation:
 ---------------------------------------------------------------------
 Center     Atomic      Atomic             Coordinates (Angstroms)
 Number     Number       Type             X           Y           Z
 ---------------------------------------------------------------------
      1         12           0       -5.880023    0.582547   -0.474778
      2          6           0       -3.423007   -2.077962   -0.462479
      3          6           0       -3.467545    2.699957    0.414385
      4          6           0       -8.302885    2.725647    0.446014
      5          6           0       -8.406161   -2.058791   -0.372458
      6          7           0       -3.667086    0.327787   -0.270378
      7          6           0       -2.919477   -0.842117   -0.173097
      8          6           0       -1.408303   -0.502892    0.109168
      9          6           0       -1.544125    0.948685    0.632852
     10          6           0       -2.999449    1.388384    0.244408
     11          6           0       -1.385657    1.122065    2.103875
     12          6           0       -0.471624   -0.732936   -1.171697
     13          6           0        0.622502   -1.749109   -0.920486
     14          6           0        1.824738   -1.437274    0.024109
     15          8           0        1.790173   -1.240909    1.198066
     16          8           0        2.988845   -1.547551   -0.620965
     17          7           0       -5.872505    2.510114   -0.040961
     18          6           0       -4.783025    3.230433    0.289640
     19          6           0       -5.145725    4.646420    0.353601
     20          6           0       -6.604903    4.598504    0.564468
     21          6           0       -7.003632    3.231564    0.351578
     22          6           0       -4.094973    5.796428    0.525659
     23          6           0       -7.480445    5.743139    0.902884
     24          8           0       -8.644316    5.645621    1.161536
     25          6           0       -6.891089    7.083610    0.914969
     26          7           0       -8.068443    0.353943   -0.162201
     27          6           0       -8.783338    1.430511    0.183652
     28          6           0      -10.310943    1.081979    0.297565
     29          6           0      -10.309515   -0.442163   -0.132701
     30          6           0       -8.819135   -0.706269   -0.122321
     31          6           0      -10.836429    1.417026    1.733037
     32          6           0      -10.914158   -0.654951   -1.541504
     33          6           0      -11.993285   -1.690105   -1.845337
     34          7           0       -5.950202   -1.566745   -0.523686
     35          6           0       -7.026828   -2.461609   -0.549561
     36          6           0       -6.485426   -3.758187   -0.677557
     37          6           0       -5.140329   -3.651031   -0.601882
     38          6           0       -4.852277   -2.314399   -0.602352
     39          6           0       -7.302790   -5.058201   -0.647870
     40          6           0       -3.956662   -4.448982   -0.656043
     41          8           0       -3.816493   -5.671273   -0.674115
     42          6           0       -2.735705   -3.392010   -0.603347
     43          6           0       -1.953560   -3.821756    0.537325
     44          8           0       -2.049684   -3.450544    1.714854
     45          8           0       -1.171787   -4.880763    0.168300
     46          6           0       -0.194376   -5.254616    1.226572
     47          6           0        4.164191   -1.313507    0.216716
     48          6           0        5.477917   -1.110397   -0.501079
     49          6           0        6.770148   -0.994171    0.004653
     50          6           0        7.038645   -1.044912    1.503230
     51          6           0        7.980198   -0.752376   -0.914805
     52          6           0        8.342700    0.766872   -1.053834
     53          6           0        8.408318    1.133742   -2.545566
     54          6           0        9.458125    2.189058   -2.871250
     55          6           0        9.177322    3.144530   -4.017737
     56          6           0       10.831096    1.618611   -3.101020
     57          6           0       11.846533    2.194599   -2.141261
     58          6           0       13.085738    1.263522   -2.143711
     59          6           0       13.591281    1.080195   -0.702893
     60          6           0       15.089621    0.637610   -0.740805
     61          6           0       12.690582    0.040152    0.072120
     62          6           0       11.766106    0.673276    1.137259
     63          6           0       12.368020    0.632691    2.549331
     64          6           0       11.712670   -0.512392    3.454437
     65          6           0       11.460675    0.012699    4.956059
     66          6           0       12.325416   -1.932745    3.422959
     67          1           0       -2.657129    3.388024    0.663228
     68          1           0       -9.136011    3.340317    0.792649
     69          1           0       -9.191749   -2.809169   -0.485448
     70          1           0       -1.090924   -1.159572    0.920284
     71          1           0       -0.825823    1.550459    0.076538
     72          1           0       -2.326451    1.343662    2.607259
     73          1           0       -0.671456    1.927431    2.269449
     74          1           0       -1.026337    0.211158    2.583403
     75          1           0        0.067678    0.213410   -1.229742
     76          1           0       -0.927416   -0.757409   -2.161346
     77          1           0        1.054035   -1.902218   -1.909924
     78          1           0        0.232879   -2.638627   -0.426450
     79          1           0       -3.788320    5.806189    1.571435
     80          1           0       -4.337827    6.839985    0.320832
     81          1           0       -3.171625    5.644849   -0.033609
     82          1           0       -6.074266    7.051533    1.635671
     83          1           0       -7.687688    7.759750    1.224508
     84          1           0       -6.624608    7.380008   -0.098763
     85          1           0      -10.835408    1.719976   -0.414014
     86          1           0      -10.704586   -1.121821    0.623204
     87          1           0       -9.985085    1.668368    2.364672
     88          1           0      -11.339581    0.545318    2.152643
     89          1           0      -11.513875    2.264880    1.634653
     90          1           0      -10.108617   -0.975137   -2.201742
     91          1           0      -11.228309    0.321074   -1.910757
     92          1           0      -12.965422   -1.206913   -1.944213
     93          1           0      -12.162507   -2.406248   -1.042290
     94          1           0      -11.687790   -2.271598   -2.715730
     95          1           0       -7.686820   -5.223663   -1.654299
     96          1           0       -8.139455   -4.870580    0.024857
     97          1           0       -6.718054   -5.882037   -0.238537
     98          1           0       -2.217954   -3.496650   -1.556698
     99          1           0       -0.726774   -5.754146    2.036001
    100          1           0        0.401549   -4.426301    1.609296
    101          1           0        0.465563   -6.048639    0.878076
    102          1           0        4.325038   -2.261757    0.728858
    103          1           0        3.956398   -0.425585    0.814660
    104          1           0        5.400808   -0.842093   -1.553986
    105          1           0        7.736580   -0.269589    1.821034
    106          1           0        7.538604   -1.989542    1.716426
    107          1           0        6.174145   -0.927792    2.156724
    108          1           0        7.893962   -1.288953   -1.859430
    109          1           0        8.775143   -1.245410   -0.355564
    110          1           0        9.303355    1.007602   -0.597919
    111          1           0        7.595267    1.374802   -0.544356
    112          1           0        7.400185    1.470774   -2.786165
    113          1           0        8.590210    0.347870   -3.278105
    114          1           0        9.433157    2.835612   -1.994061
    115          1           0        9.655553    3.017687   -4.988646
    116          1           0        9.399737    4.110793   -3.564961
    117          1           0        8.190257    3.265673   -4.464244
    118          1           0       11.174657    1.935549   -4.085770
    119          1           0       11.070143    0.560621   -3.212298
    120          1           0       11.487949    2.466866   -1.148661
    121          1           0       12.303917    3.113618   -2.506969
    122          1           0       13.725769    1.671853   -2.925498
    123          1           0       12.846026    0.269076   -2.520608
    124          1           0       13.659476    2.028915   -0.169288
    125          1           0       15.556639    1.146756   -1.583877
    126          1           0       15.288241   -0.428376   -0.853382
    127          1           0       15.647219    1.045647    0.102107
    128          1           0       13.325536   -0.675294    0.594731
    129          1           0       12.067417   -0.461000   -0.669779
    130          1           0       10.755603    0.313946    0.942662
    131          1           0       11.599726    1.734295    0.946848
    132          1           0       12.160135    1.633800    2.927692
    133          1           0       13.448681    0.485933    2.553236
    134          1           0       10.694625   -0.722517    3.125843
    135          1           0       11.885957   -0.482704    5.828912
    136          1           0       10.382154   -0.089542    5.071009
    137          1           0       11.730175    1.065116    5.045260
    138          1           0       13.412220   -1.978587    3.344316
    139          1           0       11.873863   -2.475281    2.592602
    140          1           0       12.051098   -2.463626    4.334845
 ---------------------------------------------------------------------

 SCF Done:  E(RwB97XD) =  -3007.83629304     A.U. after   17 cycles

 Excitation energies and oscillator strengths:

 Excited State   1:      Singlet-A      1.6293 eV  760.98 nm  f=0.3831  <S**2>=0.000
     245 -> 248       -0.17888
     246 -> 247        0.68392
     245 <- 248       -0.11418
 This state for optimization and/or second-order correction.
 Total Energy, E(TD-HF/TD-DFT) =  -3007.77641857
 Copying the excited state density for this state as the 1-particle RhoCI density.

 Excited State   2:      Singlet-A      2.2102 eV  560.96 nm  f=0.1233  <S**2>=0.000
     245 -> 247        0.63685
     246 -> 248        0.29029

 Excited State   3:      Singlet-A      3.3875 eV  366.01 nm  f=0.0171  <S**2>=0.000
     241 -> 247       -0.16869
     242 -> 247       -0.35215
     243 -> 247        0.54092
     246 -> 248        0.17546

 Excited State   4:      Singlet-A      3.5085 eV  353.38 nm  f=0.3787  <S**2>=0.000
     241 -> 247       -0.14416
     242 -> 247       -0.19963
     243 -> 247       -0.34858
     245 -> 247       -0.21028
     246 -> 248        0.51597

 Excited State   5:      Singlet-A      3.5973 eV  344.66 nm  f=0.0468  <S**2>=0.000
     240 -> 247        0.52752
     240 -> 248       -0.19021
     240 -> 249       -0.24400
     240 -> 250       -0.20598
     242 -> 247       -0.17630
     246 -> 248       -0.11774

 The electronic state is 1-A.
 Alpha  occ. eigenvalues --  -46.95257 -19.30374 -19.29548 -19.24455 -19.23966
 Alpha  occ. eigenvalues --  -19.23848 -19.23557 -14.46599 -14.46115 -14.44415
 Alpha  occ. eigenvalues --  -14.43329 -10.42853 -10.42366 -10.38944 -10.37959
 Alpha  occ. eigenvalues --  -10.36158 -10.35114 -10.34965 -10.34712 -10.34648
 Alpha  occ. eigenvalues --  -10.34618 -10.34218 -10.34110 -10.33944 -10.32793
 Alpha  occ. eigenvalues --  -10.31970 -10.31921 -10.31915 -10.31796 -10.31777
 Alpha  occ. eigenvalues --  -10.31641 -10.31604 -10.31537 -10.31484 -10.31414
 Alpha  occ. eigenvalues --  -10.31389 -10.31000 -10.30945 -10.30682 -10.30621
 Alpha  occ. eigenvalues --  -10.30530 -10.30357 -10.30295 -10.30204 -10.30035
 Alpha  occ. eigenvalues --  -10.29966 -10.29918 -10.29793 -10.29551 -10.29473
 Alpha  occ. eigenvalues --  -10.29363 -10.29318 -10.29133 -10.29131 -10.28902
 Alpha  occ. eigenvalues --  -10.28781 -10.28625 -10.28547 -10.28368 -10.28330
 Alpha  occ. eigenvalues --  -10.28275 -10.28169 -10.28079 -10.28023 -10.27845
 Alpha  occ. eigenvalues --  -10.27312  -3.21231  -1.94824  -1.94344  -1.94202
 Alpha  occ. eigenvalues --   -1.20672  -1.17563  -1.13784  -1.11335  -1.10957
 Alpha  occ. eigenvalues --   -1.08239  -1.07683  -1.05814  -1.05627  -1.04062
 Alpha  occ. eigenvalues --   -0.94419  -0.92807  -0.91497  -0.90953  -0.90777
 Alpha  occ. eigenvalues --   -0.90458  -0.90149  -0.89107  -0.88762  -0.88700
 Alpha  occ. eigenvalues --   -0.87932  -0.87597  -0.86390  -0.85540  -0.85244
 Alpha  occ. eigenvalues --   -0.84629  -0.84012  -0.83370  -0.82902  -0.82271
 Alpha  occ. eigenvalues --   -0.82159  -0.80387  -0.79247  -0.79121  -0.77919
 Alpha  occ. eigenvalues --   -0.77678  -0.77297  -0.76903  -0.76382  -0.75861
 Alpha  occ. eigenvalues --   -0.75303  -0.74631  -0.72954  -0.72184  -0.70617
 Alpha  occ. eigenvalues --   -0.70454  -0.70210  -0.69465  -0.68913  -0.67935
 Alpha  occ. eigenvalues --   -0.67669  -0.66962  -0.66845  -0.66775  -0.66303
 Alpha  occ. eigenvalues --   -0.65310  -0.65117  -0.64533  -0.63176  -0.62574
 Alpha  occ. eigenvalues --   -0.61778  -0.61621  -0.60865  -0.60181  -0.59927
 Alpha  occ. eigenvalues --   -0.59568  -0.59279  -0.57964  -0.57729  -0.57604
 Alpha  occ. eigenvalues --   -0.57163  -0.56915  -0.56627  -0.55962  -0.55682
 Alpha  occ. eigenvalues --   -0.55387  -0.55318  -0.54971  -0.54843  -0.54677
 Alpha  occ. eigenvalues --   -0.54570  -0.54216  -0.54011  -0.53853  -0.53843
 Alpha  occ. eigenvalues --   -0.52953  -0.52776  -0.52643  -0.52416  -0.52315
 Alpha  occ. eigenvalues --   -0.52206  -0.52057  -0.51799  -0.51647  -0.51404
 Alpha  occ. eigenvalues --   -0.51272  -0.51098  -0.50855  -0.50796  -0.50505
 Alpha  occ. eigenvalues --   -0.50406  -0.50098  -0.49865  -0.49812  -0.49791
 Alpha  occ. eigenvalues --   -0.49525  -0.49156  -0.48668  -0.48622  -0.48512
 Alpha  occ. eigenvalues --   -0.48315  -0.48253  -0.48100  -0.47804  -0.47722
 Alpha  occ. eigenvalues --   -0.47631  -0.47477  -0.47283  -0.47073  -0.46775
 Alpha  occ. eigenvalues --   -0.46678  -0.46272  -0.46082  -0.46025  -0.45899
 Alpha  occ. eigenvalues --   -0.45761  -0.45597  -0.45568  -0.45082  -0.44914
 Alpha  occ. eigenvalues --   -0.44894  -0.44631  -0.44351  -0.44253  -0.43908
 Alpha  occ. eigenvalues --   -0.43691  -0.43468  -0.43261  -0.43164  -0.42798
 Alpha  occ. eigenvalues --   -0.42667  -0.42542  -0.42207  -0.41923  -0.41871
 Alpha  occ. eigenvalues --   -0.41419  -0.41259  -0.41071  -0.40751  -0.40637
 Alpha  occ. eigenvalues --   -0.40608  -0.40318  -0.39640  -0.39489  -0.39435
 Alpha  occ. eigenvalues --   -0.39208  -0.38861  -0.38625  -0.38190  -0.37892
 Alpha  occ. eigenvalues --   -0.37742  -0.37585  -0.36126  -0.35970  -0.35662
 Alpha  occ. eigenvalues --   -0.35434  -0.35387  -0.35048  -0.33503  -0.32880
 Alpha  occ. eigenvalues --   -0.32415  -0.32258  -0.31874  -0.31153  -0.25952
 Alpha  occ. eigenvalues --   -0.22732
 Alpha virt. eigenvalues --   -0.07001   0.00376   0.02787   0.04604   0.05621
 Alpha virt. eigenvalues --    0.07343   0.07478   0.08592   0.08647   0.09726
 Alpha virt. eigenvalues --    0.10347   0.11018   0.11478   0.12608   0.12634

 Mulliken charges:
               1
     1  Mg   0.973127
     2  C   -0.016663
     3  C   -0.090527
     4  C   -0.067287
     5  C   -0.077947
     6  N   -0.361654
     7  C   -0.015440
     8  C   -0.059558
     9  C   -0.126793
    10  C    0.072710
    11  C    0.041783
    12  C    0.046838
    13  C   -0.004201
    14  C    0.169613
    15  O   -0.246110
    16  O   -0.343842
    17  N   -0.534064
    18  C    0.186295
    19  C   -0.124957
    20  C   -0.085772
    21  C    0.219018
    22  C    0.018283
    23  C    0.003532
    24  O   -0.209794
    25  C   -0.000830
    26  N   -0.268652
    27  C    0.004085
    28  C   -0.129511
    29  C   -0.056729
    30  C   -0.000120
    31  C    0.023593
    32  C   -0.008708
    33  C   -0.046410
    34  N   -0.406794
    35  C    0.114341
    36  C   -0.210561
    37  C   -0.017644
    38  C    0.145087
    39  C    0.084751
    40  C    0.096804
    41  O   -0.199897
    42  C   -0.058999
    43  C    0.249985
    44  O   -0.262866
    45  O   -0.359389
    46  C    0.143024
    47  C    0.255790
    48  C   -0.150587
    49  C   -0.246036
    50  C    0.011279
    51  C    0.048137
    52  C   -0.002816
    53  C    0.017653
    54  C   -0.155857
    55  C   -0.013123
    56  C    0.032224
    57  C   -0.041768
    58  C   -0.015736
    59  C   -0.172952
    60  C   -0.006840
    61  C    0.036670
    62  C   -0.073274
    63  C    0.036688
    64  C   -0.203596
    65  C   -0.033743
    66  C   -0.006456
    67  H   -0.005169
    68  H    0.023476
    69  H    0.008118
    70  H    0.053176
    71  H    0.026697
    72  H    0.042767
    73  H    0.035058
    74  H    0.054818
    75  H    0.015974
    76  H    0.048951
    77  H    0.052094
    78  H    0.061049
    79  H    0.058120
    80  H    0.049825
    81  H    0.045385
    82  H    0.056689
    83  H    0.045541
    84  H    0.063743
    85  H    0.046896
    86  H    0.029574
    87  H    0.050074
    88  H    0.038364
    89  H    0.050053
    90  H    0.035395
    91  H    0.027382
    92  H    0.040378
    93  H    0.025194
    94  H    0.043768
    95  H    0.047443
    96  H    0.032227
    97  H    0.062238
    98  H    0.076477
    99  H    0.055763
   100  H    0.061542
   101  H    0.046595
   102  H    0.056478
   103  H    0.070493
   104  H    0.023802
   105  H    0.039480
   106  H    0.048319
   107  H    0.042286
   108  H    0.041384
   109  H    0.017525
   110  H    0.015012
   111  H    0.036688
   112  H    0.009547
   113  H    0.015223
   114  H    0.019547
   115  H    0.025462
   116  H    0.028967
   117  H    0.009654
   118  H    0.005874
   119  H    0.011188
   120  H    0.016125
   121  H    0.018666
   122  H    0.017485
   123  H    0.009672
   124  H    0.018465
   125  H    0.011250
   126  H    0.032329
   127  H    0.021547
   128  H    0.024321
   129  H    0.011095
   130  H    0.022588
   131  H    0.014785
   132  H    0.019619
   133  H    0.029330
   134  H    0.023964
   135  H    0.031796
   136  H    0.024499
   137  H    0.024902
   138  H    0.032072
   139  H    0.028243
   140  H    0.027840
 Sum of Mulliken charges =  -0.00000

 Dipole moment (field-independent basis, Debye):
    X=              2.7598    Y=              4.5264    Z=             -2.5696  Tot=              5.8914
 Quadrupole moment (field-independent basis, Debye-Ang):
   XX=           -366.8182   YY=           -413.5922   ZZ=           -403.6247
   XY=              3.4777   XZ=             12.6480   YZ=             -3.7943

 Normal termination of Gaussian 16 at Thu May  5 15:03:15 2022.
