 Gaussian 16, Revision A.03,
 Gaussian 16:  ES64L-G16RevA.03 25-Dec-2016

 --------------------
 #p ZINDO=(nstates=5)
 --------------------

 -----------------------------
 step_951_chromophore_19 ZINDO
 -----------------------------
 Symbolic Z-matrix:
 Charge =  0 Multiplicity = 1

                         Standard orientation:
 ---------------------------------------------------------------------
 Center     Atomic      Atomic             Coordinates (Angstroms)
 Number     Number       Type             X           Y           Z
 ---------------------------------------------------------------------
      1         12           0       -5.880023    0.582547   -0.474778
      2          6           0       -3.423007   -2.077962   -0.462479
      3          6           0       -3.467545    2.699957    0.414385
      4          6           0       -8.302885    2.725647    0.446014
      5          6           0       -8.406161   -2.058791   -0.372458
      6          7           0       -3.667086    0.327787   -0.270378
      7          6           0       -2.919477   -0.842117   -0.173097
      8          6           0       -1.408303   -0.502892    0.109168
      9          6           0       -1.544125    0.948685    0.632852
     10          6           0       -2.999449    1.388384    0.244408
     11          6           0       -1.385657    1.122065    2.103875
     12          6           0       -0.471624   -0.732936   -1.171697
     13          6           0        0.622502   -1.749109   -0.920486
     14          6           0        1.824738   -1.437274    0.024109
     15          8           0        1.790173   -1.240909    1.198066
     16          8           0        2.988845   -1.547551   -0.620965
     17          7           0       -5.872505    2.510114   -0.040961
     18          6           0       -4.783025    3.230433    0.289640
     19          6           0       -5.145725    4.646420    0.353601
     20          6           0       -6.604903    4.598504    0.564468
     21          6           0       -7.003632    3.231564    0.351578
     22          6           0       -4.094973    5.796428    0.525659
     23          6           0       -7.480445    5.743139    0.902884
     24          8           0       -8.644316    5.645621    1.161536
     25          6           0       -6.891089    7.083610    0.914969
     26          7           0       -8.068443    0.353943   -0.162201
     27          6           0       -8.783338    1.430511    0.183652
     28          6           0      -10.310943    1.081979    0.297565
     29          6           0      -10.309515   -0.442163   -0.132701
     30          6           0       -8.819135   -0.706269   -0.122321
     31          6           0      -10.836429    1.417026    1.733037
     32          6           0      -10.914158   -0.654951   -1.541504
     33          6           0      -11.993285   -1.690105   -1.845337
     34          7           0       -5.950202   -1.566745   -0.523686
     35          6           0       -7.026828   -2.461609   -0.549561
     36          6           0       -6.485426   -3.758187   -0.677557
     37          6           0       -5.140329   -3.651031   -0.601882
     38          6           0       -4.852277   -2.314399   -0.602352
     39          6           0       -7.302790   -5.058201   -0.647870
     40          6           0       -3.956662   -4.448982   -0.656043
     41          8           0       -3.816493   -5.671273   -0.674115
     42          6           0       -2.735705   -3.392010   -0.603347
     43          6           0       -1.953560   -3.821756    0.537325
     44          8           0       -2.049684   -3.450544    1.714854
     45          8           0       -1.171787   -4.880763    0.168300
     46          6           0       -0.194376   -5.254616    1.226572
     47          6           0        4.164191   -1.313507    0.216716
     48          6           0        5.477917   -1.110397   -0.501079
     49          6           0        6.770148   -0.994171    0.004653
     50          6           0        7.038645   -1.044912    1.503230
     51          6           0        7.980198   -0.752376   -0.914805
     52          6           0        8.342700    0.766872   -1.053834
     53          6           0        8.408318    1.133742   -2.545566
     54          6           0        9.458125    2.189058   -2.871250
     55          6           0        9.177322    3.144530   -4.017737
     56          6           0       10.831096    1.618611   -3.101020
     57          6           0       11.846533    2.194599   -2.141261
     58          6           0       13.085738    1.263522   -2.143711
     59          6           0       13.591281    1.080195   -0.702893
     60          6           0       15.089621    0.637610   -0.740805
     61          6           0       12.690582    0.040152    0.072120
     62          6           0       11.766106    0.673276    1.137259
     63          6           0       12.368020    0.632691    2.549331
     64          6           0       11.712670   -0.512392    3.454437
     65          6           0       11.460675    0.012699    4.956059
     66          6           0       12.325416   -1.932745    3.422959
     67          1           0       -2.657129    3.388024    0.663228
     68          1           0       -9.136011    3.340317    0.792649
     69          1           0       -9.191749   -2.809169   -0.485448
     70          1           0       -1.090924   -1.159572    0.920284
     71          1           0       -0.825823    1.550459    0.076538
     72          1           0       -2.326451    1.343662    2.607259
     73          1           0       -0.671456    1.927431    2.269449
     74          1           0       -1.026337    0.211158    2.583403
     75          1           0        0.067678    0.213410   -1.229742
     76          1           0       -0.927416   -0.757409   -2.161346
     77          1           0        1.054035   -1.902218   -1.909924
     78          1           0        0.232879   -2.638627   -0.426450
     79          1           0       -3.788320    5.806189    1.571435
     80          1           0       -4.337827    6.839985    0.320832
     81          1           0       -3.171625    5.644849   -0.033609
     82          1           0       -6.074266    7.051533    1.635671
     83          1           0       -7.687688    7.759750    1.224508
     84          1           0       -6.624608    7.380008   -0.098763
     85          1           0      -10.835408    1.719976   -0.414014
     86          1           0      -10.704586   -1.121821    0.623204
     87          1           0       -9.985085    1.668368    2.364672
     88          1           0      -11.339581    0.545318    2.152643
     89          1           0      -11.513875    2.264880    1.634653
     90          1           0      -10.108617   -0.975137   -2.201742
     91          1           0      -11.228309    0.321074   -1.910757
     92          1           0      -12.965422   -1.206913   -1.944213
     93          1           0      -12.162507   -2.406248   -1.042290
     94          1           0      -11.687790   -2.271598   -2.715730
     95          1           0       -7.686820   -5.223663   -1.654299
     96          1           0       -8.139455   -4.870580    0.024857
     97          1           0       -6.718054   -5.882037   -0.238537
     98          1           0       -2.217954   -3.496650   -1.556698
     99          1           0       -0.726774   -5.754146    2.036001
    100          1           0        0.401549   -4.426301    1.609296
    101          1           0        0.465563   -6.048639    0.878076
    102          1           0        4.325038   -2.261757    0.728858
    103          1           0        3.956398   -0.425585    0.814660
    104          1           0        5.400808   -0.842093   -1.553986
    105          1           0        7.736580   -0.269589    1.821034
    106          1           0        7.538604   -1.989542    1.716426
    107          1           0        6.174145   -0.927792    2.156724
    108          1           0        7.893962   -1.288953   -1.859430
    109          1           0        8.775143   -1.245410   -0.355564
    110          1           0        9.303355    1.007602   -0.597919
    111          1           0        7.595267    1.374802   -0.544356
    112          1           0        7.400185    1.470774   -2.786165
    113          1           0        8.590210    0.347870   -3.278105
    114          1           0        9.433157    2.835612   -1.994061
    115          1           0        9.655553    3.017687   -4.988646
    116          1           0        9.399737    4.110793   -3.564961
    117          1           0        8.190257    3.265673   -4.464244
    118          1           0       11.174657    1.935549   -4.085770
    119          1           0       11.070143    0.560621   -3.212298
    120          1           0       11.487949    2.466866   -1.148661
    121          1           0       12.303917    3.113618   -2.506969
    122          1           0       13.725769    1.671853   -2.925498
    123          1           0       12.846026    0.269076   -2.520608
    124          1           0       13.659476    2.028915   -0.169288
    125          1           0       15.556639    1.146756   -1.583877
    126          1           0       15.288241   -0.428376   -0.853382
    127          1           0       15.647219    1.045647    0.102107
    128          1           0       13.325536   -0.675294    0.594731
    129          1           0       12.067417   -0.461000   -0.669779
    130          1           0       10.755603    0.313946    0.942662
    131          1           0       11.599726    1.734295    0.946848
    132          1           0       12.160135    1.633800    2.927692
    133          1           0       13.448681    0.485933    2.553236
    134          1           0       10.694625   -0.722517    3.125843
    135          1           0       11.885957   -0.482704    5.828912
    136          1           0       10.382154   -0.089542    5.071009
    137          1           0       11.730175    1.065116    5.045260
    138          1           0       13.412220   -1.978587    3.344316
    139          1           0       11.873863   -2.475281    2.592602
    140          1           0       12.051098   -2.463626    4.334845
 ---------------------------------------------------------------------

 SCF Done:  E(RZINDO/S) =  -474.492823401     A.U. after   19 cycles

 Excitation energies and oscillator strengths:

 Excited State   1:      Singlet-A      1.2264 eV 1010.94 nm  f=0.5987  <S**2>=0.000
     175 ->178        -0.17935
     176 ->177         0.66479
 This state for optimization and/or second-order correction.
 Total Energy, E(CIS/TDA) =  -474.447753102
 Copying the excited state density for this state as the 1-particle RhoCI density.

 Excited State   2:      Singlet-A      1.9826 eV  625.38 nm  f=0.0414  <S**2>=0.000
     175 ->177         0.53691
     176 ->178         0.43370

 Excited State   3:      Singlet-A      2.8970 eV  427.97 nm  f=0.0092  <S**2>=0.000
     168 ->177         0.35178
     168 ->178        -0.21635
     168 ->179        -0.28850
     168 ->180        -0.29269
     168 ->184         0.14326
     168 ->186        -0.22606
     168 ->187         0.12365
     168 ->194        -0.11496

 Excited State   4:      Singlet-A      2.9360 eV  422.28 nm  f=0.8311  <S**2>=0.000
     169 ->179        -0.10139
     175 ->177        -0.33527
     176 ->178         0.45845
     176 ->179         0.30527
     176 ->181         0.13219

 Excited State   5:      Singlet-A      2.9996 eV  413.33 nm  f=0.2385  <S**2>=0.000
     169 ->177        -0.18166
     169 ->179        -0.29123
     169 ->180         0.19738
     169 ->186        -0.11561
     169 ->187        -0.10008
     175 ->177         0.20721
     176 ->178        -0.23298
     176 ->179         0.35179

 The electronic state is 1-A.
 Alpha  occ. eigenvalues --   -1.85467  -1.82569  -1.80357  -1.76699  -1.72920
 Alpha  occ. eigenvalues --   -1.71914  -1.67734  -1.63067  -1.59526  -1.57239
 Alpha  occ. eigenvalues --   -1.53673  -1.50473  -1.48721  -1.48115  -1.46405
 Alpha  occ. eigenvalues --   -1.43495  -1.41666  -1.40222  -1.38545  -1.38136
 Alpha  occ. eigenvalues --   -1.36632  -1.33490  -1.32816  -1.32330  -1.29803
 Alpha  occ. eigenvalues --   -1.28560  -1.25198  -1.22265  -1.21172  -1.18422
 Alpha  occ. eigenvalues --   -1.17309  -1.16166  -1.14994  -1.14071  -1.13404
 Alpha  occ. eigenvalues --   -1.12344  -1.11463  -1.09206  -1.05033  -1.03399
 Alpha  occ. eigenvalues --   -1.02432  -1.01339  -0.99594  -0.97394  -0.97222
 Alpha  occ. eigenvalues --   -0.96107  -0.94921  -0.94442  -0.92983  -0.92214
 Alpha  occ. eigenvalues --   -0.91254  -0.90534  -0.89457  -0.88383  -0.87205
 Alpha  occ. eigenvalues --   -0.86228  -0.83885  -0.82432  -0.81803  -0.80394
 Alpha  occ. eigenvalues --   -0.79452  -0.78781  -0.78200  -0.76788  -0.75697
 Alpha  occ. eigenvalues --   -0.75263  -0.74870  -0.74616  -0.74089  -0.72824
 Alpha  occ. eigenvalues --   -0.72274  -0.71623  -0.71402  -0.70895  -0.70217
 Alpha  occ. eigenvalues --   -0.69902  -0.69114  -0.68876  -0.68318  -0.68130
 Alpha  occ. eigenvalues --   -0.67431  -0.67309  -0.66811  -0.66295  -0.65515
 Alpha  occ. eigenvalues --   -0.65164  -0.64807  -0.64308  -0.63986  -0.63408
 Alpha  occ. eigenvalues --   -0.63027  -0.62927  -0.62507  -0.61944  -0.61673
 Alpha  occ. eigenvalues --   -0.61352  -0.61217  -0.60911  -0.60135  -0.60016
 Alpha  occ. eigenvalues --   -0.59584  -0.59304  -0.58916  -0.58314  -0.58200
 Alpha  occ. eigenvalues --   -0.57857  -0.57614  -0.57460  -0.56613  -0.56013
 Alpha  occ. eigenvalues --   -0.55755  -0.55644  -0.55388  -0.55295  -0.55098
 Alpha  occ. eigenvalues --   -0.54686  -0.54348  -0.53956  -0.53440  -0.53128
 Alpha  occ. eigenvalues --   -0.52936  -0.52556  -0.52229  -0.51784  -0.51465
 Alpha  occ. eigenvalues --   -0.51302  -0.51092  -0.50857  -0.50620  -0.50109
 Alpha  occ. eigenvalues --   -0.49824  -0.49654  -0.49454  -0.49004  -0.48515
 Alpha  occ. eigenvalues --   -0.48397  -0.48330  -0.48192  -0.47924  -0.47512
 Alpha  occ. eigenvalues --   -0.47240  -0.47116  -0.46871  -0.46462  -0.46054
 Alpha  occ. eigenvalues --   -0.45818  -0.45721  -0.45661  -0.45326  -0.45204
 Alpha  occ. eigenvalues --   -0.45137  -0.44608  -0.44517  -0.44182  -0.43490
 Alpha  occ. eigenvalues --   -0.43374  -0.43002  -0.42331  -0.41949  -0.41814
 Alpha  occ. eigenvalues --   -0.41168  -0.40758  -0.40253  -0.38250  -0.38222
 Alpha  occ. eigenvalues --   -0.37822  -0.36580  -0.35173  -0.34413  -0.34228
 Alpha  occ. eigenvalues --   -0.33127  -0.32459  -0.32225  -0.31136  -0.26644
 Alpha  occ. eigenvalues --   -0.21534
 Alpha virt. eigenvalues --   -0.08390  -0.01847  -0.00379   0.01116   0.01818
 Alpha virt. eigenvalues --    0.02874   0.03054   0.03474   0.04208   0.05407
 Alpha virt. eigenvalues --    0.06711   0.06958   0.07643   0.08110   0.08323

 Mulliken charges:
               1
     1  Mg   0.430014
     2  C   -0.047579
     3  C   -0.115543
     4  C   -0.053453
     5  C   -0.064694
     6  N   -0.305615
     7  C    0.104649
     8  C   -0.005360
     9  C    0.015177
    10  C    0.171215
    11  C   -0.041528
    12  C   -0.026611
    13  C    0.006901
    14  C    0.469040
    15  O   -0.517219
    16  O   -0.268272
    17  N   -0.329855
    18  C    0.159362
    19  C   -0.010971
    20  C   -0.032232
    21  C    0.134148
    22  C   -0.043832
    23  C    0.337174
    24  O   -0.518796
    25  C   -0.032467
    26  N   -0.232219
    27  C    0.130852
    28  C   -0.006625
    29  C    0.003039
    30  C    0.108590
    31  C   -0.052040
    32  C   -0.028234
    33  C   -0.054524
    34  N   -0.323842
    35  C    0.056055
    36  C    0.029201
    37  C   -0.047490
    38  C    0.120020
    39  C   -0.048641
    40  C    0.327761
    41  O   -0.524638
    42  C    0.062332
    43  C    0.494697
    44  O   -0.540302
    45  O   -0.265203
    46  C    0.072805
    47  C    0.110050
    48  C   -0.103067
    49  C   -0.017396
    50  C   -0.042185
    51  C   -0.020088
    52  C   -0.025268
    53  C   -0.032883
    54  C    0.004444
    55  C   -0.065025
    56  C   -0.033149
    57  C   -0.045630
    58  C   -0.038097
    59  C   -0.009076
    60  C   -0.067199
    61  C   -0.034512
    62  C   -0.041265
    63  C   -0.024902
    64  C   -0.017812
    65  C   -0.069627
    66  C   -0.051623
    67  H    0.020612
    68  H    0.048655
    69  H    0.037072
    70  H    0.049172
    71  H    0.026728
    72  H    0.024009
    73  H    0.018213
    74  H    0.029921
    75  H    0.011330
    76  H    0.040262
    77  H    0.029087
    78  H    0.052010
    79  H    0.028633
    80  H    0.029879
    81  H    0.024143
    82  H    0.041902
    83  H    0.032514
    84  H    0.041119
    85  H    0.035183
    86  H    0.033890
    87  H    0.029243
    88  H    0.021916
    89  H    0.026775
    90  H    0.018372
    91  H    0.019048
    92  H    0.019644
    93  H    0.015813
    94  H    0.024681
    95  H    0.032339
    96  H    0.019134
    97  H    0.039560
    98  H    0.058075
    99  H    0.044972
   100  H    0.049108
   101  H    0.025542
   102  H    0.051725
   103  H    0.061512
   104  H    0.024095
   105  H    0.021732
   106  H    0.027108
   107  H    0.025492
   108  H    0.032715
   109  H    0.014454
   110  H    0.023745
   111  H    0.026794
   112  H    0.009921
   113  H    0.020703
   114  H    0.016564
   115  H    0.021300
   116  H    0.013751
   117  H    0.009565
   118  H    0.009466
   119  H    0.030173
   120  H    0.026514
   121  H    0.011472
   122  H    0.020603
   123  H    0.015271
   124  H    0.024011
   125  H    0.008370
   126  H    0.023610
   127  H    0.013098
   128  H    0.022911
   129  H    0.018595
   130  H    0.023996
   131  H    0.008193
   132  H    0.019365
   133  H    0.027356
   134  H    0.016664
   135  H    0.025719
   136  H    0.012779
   137  H    0.016365
   138  H    0.021281
   139  H    0.015737
   140  H    0.017781
 Sum of Mulliken charges =  -0.00000

 Dipole moment (field-independent basis, Debye):
    X=              3.5621    Y=              7.3384    Z=             -3.3750  Tot=              8.8279
 N-N= 4.288281051068D+03 E-N= 0.000000000000D+00  KE=-9.251436625421D+03
 Leave Link  601 at Thu May  5 15:15:02 2022, MaxMem=  6710886400 cpu:               0.8 elap:               0.0
 (Enter /sw/apps/gaussian-16.0/g16/l9999.exe)
 1\1\GINC-BP1-COMPUTE168\SP\RZINDO CIS\STO-3G\C55H74Mg1N4O6\OF15641\05-
 May-2022\0\\#p ZINDO=(nstates=5)\\step_951_chromophore_19 ZINDO\\0,1\M
 g,0,26.021,50.006,26.079\C,0,23.912,51.415,28.664\C,0,28.304,49.354,28
 .415\C,0,28.254,49.653,23.589\C,0,23.888,51.774,23.693\N,0,25.974,50.1
 88,28.308\C,0,25.094,50.902,29.116\C,0,25.562,50.844,30.618\C,0,27.044
 ,50.434,30.43\C,0,27.148,49.95,28.941\C,0,28.045,51.518,30.635\C,0,24.
 646,49.882,31.516\C,0,23.987,50.611,32.668\C,0,24.813,51.125,33.888\O,

 Normal termination of Gaussian 16 at Thu May  5 15:15:02 2022.
