 Gaussian 16, Revision A.03,
 Gaussian 16:  ES64L-G16RevA.03 25-Dec-2016

 ------------------------------
 #p blyp/Def2SVP td=(nstates=5)
 ------------------------------

 ---------------------------------------------------
 step_1651_chromophore_11 TDDFT with blyp functional
 ---------------------------------------------------
 Symbolic Z-matrix:
 Charge =  0 Multiplicity = 1

                         Standard orientation:
 ---------------------------------------------------------------------
 Center     Atomic      Atomic             Coordinates (Angstroms)
 Number     Number       Type             X           Y           Z
 ---------------------------------------------------------------------
      1         12           0       -4.724745    1.524920    0.611175
      2          6           0       -5.727870   -1.866315    0.236003
      3          6           0       -2.453971    0.417879    3.094272
      4          6           0       -3.384727    4.545858    0.684869
      5          6           0       -6.589051    2.418661   -2.189406
      6          7           0       -4.071655   -0.569964    1.475521
      7          6           0       -4.720948   -1.752457    1.247818
      8          6           0       -4.224493   -2.854945    2.268285
      9          6           0       -3.211720   -2.097233    3.197848
     10          6           0       -3.240695   -0.617112    2.591789
     11          6           0       -3.570823   -2.096252    4.714913
     12          6           0       -3.667696   -4.159282    1.562388
     13          6           0       -2.502078   -4.082832    0.490732
     14          6           0       -1.124547   -4.527818    0.969381
     15          8           0       -0.758390   -4.899780    2.048957
     16          8           0       -0.257791   -4.428724   -0.089546
     17          7           0       -3.079348    2.369899    1.593852
     18          6           0       -2.296288    1.750265    2.601892
     19          6           0       -1.436006    2.722382    3.222939
     20          6           0       -1.711978    3.988618    2.553646
     21          6           0       -2.719686    3.758794    1.572757
     22          6           0       -0.379205    2.429035    4.219703
     23          6           0       -0.952280    5.277635    2.790367
     24          8           0       -0.106385    5.330155    3.672590
     25          6           0       -1.184652    6.464857    1.952235
     26          7           0       -4.845207    3.142106   -0.651579
     27          6           0       -4.274548    4.319515   -0.326179
     28          6           0       -4.740956    5.404481   -1.289872
     29          6           0       -5.639444    4.755079   -2.336097
     30          6           0       -5.679323    3.344483   -1.674834
     31          6           0       -5.491680    6.650297   -0.710310
     32          6           0       -5.161341    4.758881   -3.830841
     33          6           0       -4.123481    3.652925   -4.379986
     34          7           0       -5.985536    0.557916   -0.748660
     35          6           0       -6.784984    1.043541   -1.725604
     36          6           0       -7.641185    0.018463   -2.239990
     37          6           0       -7.183441   -1.135933   -1.542324
     38          6           0       -6.187643   -0.770385   -0.684276
     39          6           0       -8.649180    0.110705   -3.357359
     40          6           0       -7.484446   -2.572215   -1.467712
     41          8           0       -8.228773   -3.191352   -2.211607
     42          6           0       -6.509388   -3.075530   -0.322669
     43          6           0       -5.637668   -3.975819   -1.018370
     44          8           0       -4.674619   -3.654086   -1.742654
     45          8           0       -6.041794   -5.330669   -0.845556
     46          6           0       -5.279659   -6.311179   -1.636580
     47          6           0        1.170342   -4.775077    0.230395
     48          6           0        2.042781   -3.984592   -0.720569
     49          6           0        3.272375   -3.557245   -0.421576
     50          6           0        4.169974   -4.151977    0.682333
     51          6           0        4.069047   -2.684680   -1.460950
     52          6           0        4.563151   -1.345204   -0.963691
     53          6           0        6.123057   -1.161221   -0.932430
     54          6           0        6.615097    0.235137   -1.232494
     55          6           0        7.516798    0.306131   -2.503604
     56          6           0        7.292715    0.930488   -0.035888
     57          6           0        8.415099    0.057924    0.603855
     58          6           0        9.715183    0.795368    0.732085
     59          6           0       10.942722   -0.116072    0.662092
     60          6           0       11.027885   -0.831651    2.096846
     61          6           0       12.298932    0.671062    0.365616
     62          6           0       12.970846   -0.048910   -0.788031
     63          6           0       14.475042    0.222663   -0.618489
     64          6           0       15.057903    0.898813   -1.851372
     65          6           0       16.360411    0.229469   -2.211288
     66          6           0       15.045631    2.407347   -1.941200
     67          1           0       -2.005711    0.200371    4.066461
     68          1           0       -3.216679    5.623722    0.719272
     69          1           0       -7.150143    2.646862   -3.098472
     70          1           0       -5.156185   -3.060759    2.796435
     71          1           0       -2.264019   -2.608058    3.028012
     72          1           0       -3.500800   -1.047014    4.999079
     73          1           0       -2.891723   -2.707348    5.310209
     74          1           0       -4.593350   -2.410775    4.925827
     75          1           0       -4.534020   -4.552576    1.030967
     76          1           0       -3.382999   -4.819273    2.381365
     77          1           0       -2.306715   -3.023169    0.328340
     78          1           0       -2.704090   -4.630325   -0.429457
     79          1           0       -0.233428    1.358507    4.364099
     80          1           0       -0.551501    3.012803    5.122956
     81          1           0        0.613186    2.764605    3.917992
     82          1           0       -0.448142    7.237364    2.172643
     83          1           0       -2.203158    6.784682    2.175000
     84          1           0       -1.069278    6.091612    0.934860
     85          1           0       -3.872610    5.707597   -1.874260
     86          1           0       -6.641147    5.180932   -2.271068
     87          1           0       -6.136186    6.328310    0.107914
     88          1           0       -6.062115    7.135454   -1.502138
     89          1           0       -4.720161    7.343678   -0.375187
     90          1           0       -4.735254    5.742565   -4.026098
     91          1           0       -6.081023    4.709938   -4.414880
     92          1           0       -3.969447    2.886111   -3.619973
     93          1           0       -3.154475    4.100348   -4.602003
     94          1           0       -4.587337    3.085602   -5.186279
     95          1           0       -8.668462   -0.798332   -3.958492
     96          1           0       -8.472584    0.950954   -4.027995
     97          1           0       -9.658071    0.271693   -2.975344
     98          1           0       -7.049568   -3.596153    0.467882
     99          1           0       -4.650492   -5.823159   -2.379980
    100          1           0       -5.981541   -7.003594   -2.102989
    101          1           0       -4.594919   -6.954042   -1.083946
    102          1           0        1.329998   -5.822487   -0.023549
    103          1           0        1.537226   -4.589810    1.239507
    104          1           0        1.522498   -3.431969   -1.501950
    105          1           0        5.054096   -3.514730    0.684922
    106          1           0        4.195418   -5.228929    0.512057
    107          1           0        3.816275   -3.907849    1.683005
    108          1           0        3.439548   -2.526594   -2.336603
    109          1           0        4.914816   -3.294133   -1.777798
    110          1           0        4.305561   -1.220767    0.087992
    111          1           0        4.116690   -0.637735   -1.663818
    112          1           0        6.582045   -1.928558   -1.556179
    113          1           0        6.452447   -1.448788    0.065989
    114          1           0        5.747005    0.856996   -1.450264
    115          1           0        7.625275   -0.699518   -2.910570
    116          1           0        8.512159    0.584303   -2.156801
    117          1           0        7.074668    1.036390   -3.181219
    118          1           0        6.572619    1.278585    0.704571
    119          1           0        7.738648    1.883663   -0.319300
    120          1           0        8.708395   -0.865209    0.103648
    121          1           0        8.230342   -0.129772    1.661801
    122          1           0        9.696089    1.287729    1.704388
    123          1           0        9.770008    1.566573   -0.036447
    124          1           0       10.683990   -0.845522   -0.105100
    125          1           0       10.839643   -1.899657    1.978573
    126          1           0       10.297171   -0.417170    2.791158
    127          1           0       12.009321   -0.647394    2.533092
    128          1           0       12.872905    0.906659    1.261635
    129          1           0       11.949578    1.657239    0.061813
    130          1           0       12.611685    0.381654   -1.722352
    131          1           0       12.795079   -1.124069   -0.749242
    132          1           0       14.893586   -0.760444   -0.404398
    133          1           0       14.696889    0.826717    0.260659
    134          1           0       14.444375    0.594625   -2.698640
    135          1           0       16.678475   -0.362796   -1.353312
    136          1           0       17.176898    0.878181   -2.529678
    137          1           0       16.251906   -0.450981   -3.056586
    138          1           0       15.225493    2.796975   -0.938761
    139          1           0       14.113611    2.775924   -2.369545
    140          1           0       15.795438    2.701538   -2.675371
 ---------------------------------------------------------------------

 SCF Done:  E(RB-LYP) =  -3007.35751359     A.U. after   21 cycles

 Excitation energies and oscillator strengths:

 Excited State   1:      Singlet-A      1.6660 eV  744.20 nm  f=0.0001  <S**2>=0.000
     244 -> 247        0.70479
 This state for optimization and/or second-order correction.
 Total Energy, E(TD-HF/TD-DFT) =  -3007.29628871
 Copying the excited state density for this state as the 1-particle RhoCI density.

 Excited State   2:      Singlet-A      1.8181 eV  681.94 nm  f=0.2909  <S**2>=0.000
     245 -> 248        0.19725
     246 -> 247        0.68897
     246 <- 247       -0.15093

 Excited State   3:      Singlet-A      1.9664 eV  630.53 nm  f=0.1031  <S**2>=0.000
     240 -> 247        0.11610
     245 -> 247        0.65423
     246 -> 248       -0.19878
     245 <- 247       -0.10415

 Excited State   4:      Singlet-A      2.0843 eV  594.84 nm  f=0.0024  <S**2>=0.000
     243 -> 247        0.69978

 Excited State   5:      Singlet-A      2.1503 eV  576.59 nm  f=0.0001  <S**2>=0.000
     241 -> 247        0.70624

 The electronic state is 1-A.
 Alpha  occ. eigenvalues --  -46.27655 -18.81991 -18.81264 -18.77120 -18.76996
 Alpha  occ. eigenvalues --  -18.76573 -18.75019 -14.03675 -14.03415 -14.01148
 Alpha  occ. eigenvalues --  -14.00727 -10.04243 -10.03363 -10.00697  -9.99283
 Alpha  occ. eigenvalues --   -9.97493  -9.97475  -9.97018  -9.96978  -9.96594
 Alpha  occ. eigenvalues --   -9.96383  -9.95975  -9.95943  -9.95442  -9.95238
 Alpha  occ. eigenvalues --   -9.95054  -9.94840  -9.94407  -9.94190  -9.93923
 Alpha  occ. eigenvalues --   -9.93741  -9.93712  -9.93575  -9.93498  -9.93392
 Alpha  occ. eigenvalues --   -9.93272  -9.93258  -9.93091  -9.92946  -9.92628
 Alpha  occ. eigenvalues --   -9.92418  -9.92413  -9.92368  -9.92333  -9.92328
 Alpha  occ. eigenvalues --   -9.92317  -9.92033  -9.91743  -9.91490  -9.91420
 Alpha  occ. eigenvalues --   -9.91377  -9.91237  -9.90987  -9.90795  -9.90762
 Alpha  occ. eigenvalues --   -9.90744  -9.90720  -9.90710  -9.90709  -9.90705
 Alpha  occ. eigenvalues --   -9.90652  -9.90616  -9.90476  -9.90306  -9.89870
 Alpha  occ. eigenvalues --   -9.89766  -2.92268  -1.72666  -1.72180  -1.71966
 Alpha  occ. eigenvalues --   -0.97586  -0.96162  -0.92290  -0.91295  -0.89532
 Alpha  occ. eigenvalues --   -0.88831  -0.87780  -0.86677  -0.84603  -0.83190
 Alpha  occ. eigenvalues --   -0.75493  -0.73491  -0.72961  -0.72756  -0.72639
 Alpha  occ. eigenvalues --   -0.72294  -0.71535  -0.70876  -0.70637  -0.69656
 Alpha  occ. eigenvalues --   -0.69248  -0.68889  -0.68280  -0.67614  -0.67281
 Alpha  occ. eigenvalues --   -0.66618  -0.66422  -0.65129  -0.64815  -0.64150
 Alpha  occ. eigenvalues --   -0.63549  -0.62239  -0.61932  -0.61668  -0.60754
 Alpha  occ. eigenvalues --   -0.60448  -0.60262  -0.60086  -0.58891  -0.58673
 Alpha  occ. eigenvalues --   -0.58219  -0.57627  -0.56796  -0.55852  -0.55461
 Alpha  occ. eigenvalues --   -0.54175  -0.53485  -0.52533  -0.51606  -0.51543
 Alpha  occ. eigenvalues --   -0.51361  -0.50752  -0.50583  -0.50452  -0.49376
 Alpha  occ. eigenvalues --   -0.48763  -0.48497  -0.48026  -0.47913  -0.46638
 Alpha  occ. eigenvalues --   -0.46125  -0.45949  -0.45416  -0.45169  -0.44351
 Alpha  occ. eigenvalues --   -0.44215  -0.43526  -0.43110  -0.42801  -0.42455
 Alpha  occ. eigenvalues --   -0.41998  -0.41864  -0.41321  -0.41189  -0.40935
 Alpha  occ. eigenvalues --   -0.40856  -0.40281  -0.40163  -0.40115  -0.39981
 Alpha  occ. eigenvalues --   -0.39936  -0.39772  -0.39431  -0.39281  -0.38927
 Alpha  occ. eigenvalues --   -0.38779  -0.38700  -0.38405  -0.38270  -0.37942
 Alpha  occ. eigenvalues --   -0.37787  -0.37623  -0.37516  -0.37182  -0.37093
 Alpha  occ. eigenvalues --   -0.37004  -0.36829  -0.36674  -0.36663  -0.36322
 Alpha  occ. eigenvalues --   -0.36088  -0.35988  -0.35775  -0.35532  -0.35350
 Alpha  occ. eigenvalues --   -0.35230  -0.35116  -0.34892  -0.34712  -0.34487
 Alpha  occ. eigenvalues --   -0.34302  -0.34189  -0.34112  -0.33996  -0.33913
 Alpha  occ. eigenvalues --   -0.33783  -0.33619  -0.33594  -0.33298  -0.33192
 Alpha  occ. eigenvalues --   -0.33105  -0.32991  -0.32829  -0.32567  -0.32449
 Alpha  occ. eigenvalues --   -0.32150  -0.31991  -0.31785  -0.31474  -0.31257
 Alpha  occ. eigenvalues --   -0.31217  -0.31103  -0.30909  -0.30827  -0.30654
 Alpha  occ. eigenvalues --   -0.30326  -0.30274  -0.30117  -0.29841  -0.29696
 Alpha  occ. eigenvalues --   -0.29526  -0.29448  -0.29197  -0.29024  -0.28807
 Alpha  occ. eigenvalues --   -0.28694  -0.28473  -0.27929  -0.27484  -0.27411
 Alpha  occ. eigenvalues --   -0.27376  -0.27138  -0.26922  -0.26709  -0.26652
 Alpha  occ. eigenvalues --   -0.26599  -0.25862  -0.25493  -0.25234  -0.24770
 Alpha  occ. eigenvalues --   -0.24658  -0.24495  -0.24012  -0.23971  -0.23486
 Alpha  occ. eigenvalues --   -0.22390  -0.22376  -0.22326  -0.21668  -0.20566
 Alpha  occ. eigenvalues --   -0.20125  -0.19950  -0.19753  -0.18288  -0.17464
 Alpha  occ. eigenvalues --   -0.16503
 Alpha virt. eigenvalues --   -0.12223  -0.06972  -0.06462  -0.04641  -0.03744
 Alpha virt. eigenvalues --   -0.02997  -0.01688  -0.01536  -0.00835   0.00044
 Alpha virt. eigenvalues --    0.01027   0.01743   0.02591   0.02671   0.03243

 Mulliken charges:
               1
     1  Mg   0.695143
     2  C   -0.006141
     3  C   -0.063118
     4  C   -0.067016
     5  C   -0.060203
     6  N   -0.191573
     7  C   -0.094796
     8  C    0.053024
     9  C   -0.019157
    10  C    0.011679
    11  C    0.126581
    12  C    0.114329
    13  C    0.097621
    14  C    0.055720
    15  O   -0.175673
    16  O   -0.288559
    17  N   -0.349212
    18  C    0.156610
    19  C   -0.148326
    20  C    0.072307
    21  C    0.173222
    22  C    0.200781
    23  C   -0.134324
    24  O   -0.169427
    25  C    0.172069
    26  N   -0.206565
    27  C   -0.009627
    28  C    0.059931
    29  C    0.014296
    30  C    0.008509
    31  C    0.120265
    32  C    0.066156
    33  C    0.057835
    34  N   -0.247920
    35  C    0.064721
    36  C   -0.150144
    37  C    0.055926
    38  C    0.082246
    39  C    0.172313
    40  C   -0.030743
    41  O   -0.114822
    42  C    0.086512
    43  C    0.126671
    44  O   -0.197523
    45  O   -0.297479
    46  C    0.202098
    47  C    0.325973
    48  C   -0.105140
    49  C   -0.184956
    50  C    0.147462
    51  C    0.125188
    52  C    0.078699
    53  C    0.074786
    54  C   -0.065887
    55  C    0.121338
    56  C    0.113800
    57  C    0.068174
    58  C    0.058354
    59  C   -0.112205
    60  C    0.097213
    61  C    0.120759
    62  C    0.073677
    63  C    0.119094
    64  C   -0.106570
    65  C    0.104418
    66  C    0.139457
    67  H   -0.037459
    68  H   -0.092294
    69  H   -0.068841
    70  H   -0.027574
    71  H   -0.003394
    72  H   -0.013066
    73  H    0.004349
    74  H   -0.013518
    75  H   -0.014783
    76  H   -0.008948
    77  H    0.022146
    78  H    0.027847
    79  H   -0.020439
    80  H    0.004632
    81  H   -0.000923
    82  H   -0.007792
    83  H    0.023573
    84  H    0.008619
    85  H   -0.036276
    86  H   -0.029798
    87  H    0.000699
    88  H   -0.001805
    89  H   -0.000622
    90  H   -0.022302
    91  H   -0.018054
    92  H    0.009621
    93  H    0.004902
    94  H    0.000047
    95  H    0.011070
    96  H   -0.019924
    97  H   -0.000339
    98  H   -0.006201
    99  H    0.025687
   100  H    0.015579
   101  H    0.006919
   102  H   -0.004476
   103  H    0.012735
   104  H   -0.026292
   105  H   -0.019791
   106  H    0.026145
   107  H   -0.007555
   108  H   -0.040306
   109  H   -0.023300
   110  H   -0.019456
   111  H   -0.017334
   112  H   -0.042258
   113  H   -0.017617
   114  H   -0.044416
   115  H   -0.024188
   116  H   -0.017768
   117  H   -0.003214
   118  H   -0.042245
   119  H   -0.043065
   120  H   -0.025205
   121  H   -0.031804
   122  H   -0.041846
   123  H   -0.037735
   124  H   -0.030613
   125  H   -0.012477
   126  H   -0.015841
   127  H   -0.019010
   128  H   -0.027960
   129  H   -0.049669
   130  H   -0.016834
   131  H   -0.020256
   132  H   -0.040144
   133  H   -0.033041
   134  H   -0.046034
   135  H   -0.023721
   136  H   -0.034127
   137  H   -0.022989
   138  H   -0.013301
   139  H   -0.019702
   140  H   -0.022475
 Sum of Mulliken charges =  -0.00000

 Dipole moment (field-independent basis, Debye):
    X=             -0.6427    Y=              2.8278    Z=             -0.5845  Tot=              2.9582
 Quadrupole moment (field-independent basis, Debye-Ang):
   XX=           -404.7893   YY=           -393.3512   ZZ=           -409.0742
   XY=            -38.7467   XZ=            -13.7544   YZ=            -21.4935

 Normal termination of Gaussian 16 at Wed May  4 11:13:12 2022.
