 Gaussian 16, Revision A.03,
 Gaussian 16:  ES64L-G16RevA.03 25-Dec-2016

 -----------------------------------
 #p cam-b3lyp/Def2SVP td=(nstates=5)
 -----------------------------------

 --------------------------------------------------------
 step_1651_chromophore_11 TDDFT with cam-b3lyp functional
 --------------------------------------------------------
 Symbolic Z-matrix:
 Charge =  0 Multiplicity = 1

                         Standard orientation:
 ---------------------------------------------------------------------
 Center     Atomic      Atomic             Coordinates (Angstroms)
 Number     Number       Type             X           Y           Z
 ---------------------------------------------------------------------
      1         12           0       -4.724745    1.524920    0.611175
      2          6           0       -5.727870   -1.866315    0.236003
      3          6           0       -2.453971    0.417879    3.094272
      4          6           0       -3.384727    4.545858    0.684869
      5          6           0       -6.589051    2.418661   -2.189406
      6          7           0       -4.071655   -0.569964    1.475521
      7          6           0       -4.720948   -1.752457    1.247818
      8          6           0       -4.224493   -2.854945    2.268285
      9          6           0       -3.211720   -2.097233    3.197848
     10          6           0       -3.240695   -0.617112    2.591789
     11          6           0       -3.570823   -2.096252    4.714913
     12          6           0       -3.667696   -4.159282    1.562388
     13          6           0       -2.502078   -4.082832    0.490732
     14          6           0       -1.124547   -4.527818    0.969381
     15          8           0       -0.758390   -4.899780    2.048957
     16          8           0       -0.257791   -4.428724   -0.089546
     17          7           0       -3.079348    2.369899    1.593852
     18          6           0       -2.296288    1.750265    2.601892
     19          6           0       -1.436006    2.722382    3.222939
     20          6           0       -1.711978    3.988618    2.553646
     21          6           0       -2.719686    3.758794    1.572757
     22          6           0       -0.379205    2.429035    4.219703
     23          6           0       -0.952280    5.277635    2.790367
     24          8           0       -0.106385    5.330155    3.672590
     25          6           0       -1.184652    6.464857    1.952235
     26          7           0       -4.845207    3.142106   -0.651579
     27          6           0       -4.274548    4.319515   -0.326179
     28          6           0       -4.740956    5.404481   -1.289872
     29          6           0       -5.639444    4.755079   -2.336097
     30          6           0       -5.679323    3.344483   -1.674834
     31          6           0       -5.491680    6.650297   -0.710310
     32          6           0       -5.161341    4.758881   -3.830841
     33          6           0       -4.123481    3.652925   -4.379986
     34          7           0       -5.985536    0.557916   -0.748660
     35          6           0       -6.784984    1.043541   -1.725604
     36          6           0       -7.641185    0.018463   -2.239990
     37          6           0       -7.183441   -1.135933   -1.542324
     38          6           0       -6.187643   -0.770385   -0.684276
     39          6           0       -8.649180    0.110705   -3.357359
     40          6           0       -7.484446   -2.572215   -1.467712
     41          8           0       -8.228773   -3.191352   -2.211607
     42          6           0       -6.509388   -3.075530   -0.322669
     43          6           0       -5.637668   -3.975819   -1.018370
     44          8           0       -4.674619   -3.654086   -1.742654
     45          8           0       -6.041794   -5.330669   -0.845556
     46          6           0       -5.279659   -6.311179   -1.636580
     47          6           0        1.170342   -4.775077    0.230395
     48          6           0        2.042781   -3.984592   -0.720569
     49          6           0        3.272375   -3.557245   -0.421576
     50          6           0        4.169974   -4.151977    0.682333
     51          6           0        4.069047   -2.684680   -1.460950
     52          6           0        4.563151   -1.345204   -0.963691
     53          6           0        6.123057   -1.161221   -0.932430
     54          6           0        6.615097    0.235137   -1.232494
     55          6           0        7.516798    0.306131   -2.503604
     56          6           0        7.292715    0.930488   -0.035888
     57          6           0        8.415099    0.057924    0.603855
     58          6           0        9.715183    0.795368    0.732085
     59          6           0       10.942722   -0.116072    0.662092
     60          6           0       11.027885   -0.831651    2.096846
     61          6           0       12.298932    0.671062    0.365616
     62          6           0       12.970846   -0.048910   -0.788031
     63          6           0       14.475042    0.222663   -0.618489
     64          6           0       15.057903    0.898813   -1.851372
     65          6           0       16.360411    0.229469   -2.211288
     66          6           0       15.045631    2.407347   -1.941200
     67          1           0       -2.005711    0.200371    4.066461
     68          1           0       -3.216679    5.623722    0.719272
     69          1           0       -7.150143    2.646862   -3.098472
     70          1           0       -5.156185   -3.060759    2.796435
     71          1           0       -2.264019   -2.608058    3.028012
     72          1           0       -3.500800   -1.047014    4.999079
     73          1           0       -2.891723   -2.707348    5.310209
     74          1           0       -4.593350   -2.410775    4.925827
     75          1           0       -4.534020   -4.552576    1.030967
     76          1           0       -3.382999   -4.819273    2.381365
     77          1           0       -2.306715   -3.023169    0.328340
     78          1           0       -2.704090   -4.630325   -0.429457
     79          1           0       -0.233428    1.358507    4.364099
     80          1           0       -0.551501    3.012803    5.122956
     81          1           0        0.613186    2.764605    3.917992
     82          1           0       -0.448142    7.237364    2.172643
     83          1           0       -2.203158    6.784682    2.175000
     84          1           0       -1.069278    6.091612    0.934860
     85          1           0       -3.872610    5.707597   -1.874260
     86          1           0       -6.641147    5.180932   -2.271068
     87          1           0       -6.136186    6.328310    0.107914
     88          1           0       -6.062115    7.135454   -1.502138
     89          1           0       -4.720161    7.343678   -0.375187
     90          1           0       -4.735254    5.742565   -4.026098
     91          1           0       -6.081023    4.709938   -4.414880
     92          1           0       -3.969447    2.886111   -3.619973
     93          1           0       -3.154475    4.100348   -4.602003
     94          1           0       -4.587337    3.085602   -5.186279
     95          1           0       -8.668462   -0.798332   -3.958492
     96          1           0       -8.472584    0.950954   -4.027995
     97          1           0       -9.658071    0.271693   -2.975344
     98          1           0       -7.049568   -3.596153    0.467882
     99          1           0       -4.650492   -5.823159   -2.379980
    100          1           0       -5.981541   -7.003594   -2.102989
    101          1           0       -4.594919   -6.954042   -1.083946
    102          1           0        1.329998   -5.822487   -0.023549
    103          1           0        1.537226   -4.589810    1.239507
    104          1           0        1.522498   -3.431969   -1.501950
    105          1           0        5.054096   -3.514730    0.684922
    106          1           0        4.195418   -5.228929    0.512057
    107          1           0        3.816275   -3.907849    1.683005
    108          1           0        3.439548   -2.526594   -2.336603
    109          1           0        4.914816   -3.294133   -1.777798
    110          1           0        4.305561   -1.220767    0.087992
    111          1           0        4.116690   -0.637735   -1.663818
    112          1           0        6.582045   -1.928558   -1.556179
    113          1           0        6.452447   -1.448788    0.065989
    114          1           0        5.747005    0.856996   -1.450264
    115          1           0        7.625275   -0.699518   -2.910570
    116          1           0        8.512159    0.584303   -2.156801
    117          1           0        7.074668    1.036390   -3.181219
    118          1           0        6.572619    1.278585    0.704571
    119          1           0        7.738648    1.883663   -0.319300
    120          1           0        8.708395   -0.865209    0.103648
    121          1           0        8.230342   -0.129772    1.661801
    122          1           0        9.696089    1.287729    1.704388
    123          1           0        9.770008    1.566573   -0.036447
    124          1           0       10.683990   -0.845522   -0.105100
    125          1           0       10.839643   -1.899657    1.978573
    126          1           0       10.297171   -0.417170    2.791158
    127          1           0       12.009321   -0.647394    2.533092
    128          1           0       12.872905    0.906659    1.261635
    129          1           0       11.949578    1.657239    0.061813
    130          1           0       12.611685    0.381654   -1.722352
    131          1           0       12.795079   -1.124069   -0.749242
    132          1           0       14.893586   -0.760444   -0.404398
    133          1           0       14.696889    0.826717    0.260659
    134          1           0       14.444375    0.594625   -2.698640
    135          1           0       16.678475   -0.362796   -1.353312
    136          1           0       17.176898    0.878181   -2.529678
    137          1           0       16.251906   -0.450981   -3.056586
    138          1           0       15.225493    2.796975   -0.938761
    139          1           0       14.113611    2.775924   -2.369545
    140          1           0       15.795438    2.701538   -2.675371
 ---------------------------------------------------------------------

 SCF Done:  E(RCAM-B3LYP) =  -3007.14862741     A.U. after   19 cycles

 Excitation energies and oscillator strengths:

 Excited State   1:      Singlet-A      1.7089 eV  725.50 nm  f=0.3793  <S**2>=0.000
     245 -> 248       -0.17770
     246 -> 247        0.68625
     245 <- 248       -0.10771
 This state for optimization and/or second-order correction.
 Total Energy, E(TD-HF/TD-DFT) =  -3007.08582488
 Copying the excited state density for this state as the 1-particle RhoCI density.

 Excited State   2:      Singlet-A      2.1362 eV  580.39 nm  f=0.1705  <S**2>=0.000
     245 -> 247        0.66186
     246 -> 248        0.23148

 Excited State   3:      Singlet-A      3.0261 eV  409.72 nm  f=0.0037  <S**2>=0.000
     243 -> 247       -0.14509
     244 -> 247        0.67714

 Excited State   4:      Singlet-A      3.2186 eV  385.21 nm  f=0.0144  <S**2>=0.000
     243 -> 247        0.67285
     244 -> 247        0.14897

 Excited State   5:      Singlet-A      3.4984 eV  354.41 nm  f=0.0000  <S**2>=0.000
     241 -> 247        0.58646
     241 -> 248       -0.15300
     241 -> 249        0.20808
     241 -> 251       -0.24581

 The electronic state is 1-A.
 Alpha  occ. eigenvalues --  -46.89245 -19.25023 -19.24115 -19.20346 -19.20059
 Alpha  occ. eigenvalues --  -19.19541 -19.18331 -14.42631 -14.42286 -14.39739
 Alpha  occ. eigenvalues --  -14.38945 -10.39953 -10.38583 -10.35990 -10.34506
 Alpha  occ. eigenvalues --  -10.32005 -10.31739 -10.31544 -10.31241 -10.30996
 Alpha  occ. eigenvalues --  -10.30639 -10.30613 -10.30604 -10.29645 -10.29396
 Alpha  occ. eigenvalues --  -10.29393 -10.28976 -10.28785 -10.28543 -10.28337
 Alpha  occ. eigenvalues --  -10.27674 -10.27667 -10.27663 -10.27589 -10.27327
 Alpha  occ. eigenvalues --  -10.27277 -10.27158 -10.27148 -10.27043 -10.26984
 Alpha  occ. eigenvalues --  -10.26559 -10.26458 -10.26167 -10.26125 -10.25985
 Alpha  occ. eigenvalues --  -10.25936 -10.25907 -10.25632 -10.25290 -10.25139
 Alpha  occ. eigenvalues --  -10.25069 -10.24880 -10.24684 -10.24682 -10.24614
 Alpha  occ. eigenvalues --  -10.24345 -10.24336 -10.24328 -10.24322 -10.24308
 Alpha  occ. eigenvalues --  -10.24305 -10.24300 -10.24140 -10.23926 -10.23432
 Alpha  occ. eigenvalues --  -10.23415  -3.17755  -1.92629  -1.92234  -1.92038
 Alpha  occ. eigenvalues --   -1.16076  -1.14753  -1.10568  -1.09806  -1.07344
 Alpha  occ. eigenvalues --   -1.06778  -1.05529  -1.04115  -1.02273  -1.00833
 Alpha  occ. eigenvalues --   -0.92605  -0.90376  -0.89778  -0.89581  -0.89368
 Alpha  occ. eigenvalues --   -0.89056  -0.88291  -0.87493  -0.87251  -0.86090
 Alpha  occ. eigenvalues --   -0.85859  -0.85285  -0.84597  -0.83849  -0.83504
 Alpha  occ. eigenvalues --   -0.82809  -0.82544  -0.81033  -0.80650  -0.79959
 Alpha  occ. eigenvalues --   -0.79294  -0.77881  -0.77575  -0.77125  -0.76116
 Alpha  occ. eigenvalues --   -0.75843  -0.75630  -0.75415  -0.74157  -0.73930
 Alpha  occ. eigenvalues --   -0.73217  -0.72686  -0.71746  -0.70594  -0.70231
 Alpha  occ. eigenvalues --   -0.68737  -0.68122  -0.67092  -0.65825  -0.65643
 Alpha  occ. eigenvalues --   -0.65587  -0.64769  -0.64740  -0.64558  -0.63456
 Alpha  occ. eigenvalues --   -0.62681  -0.62230  -0.61841  -0.61589  -0.60336
 Alpha  occ. eigenvalues --   -0.59754  -0.59455  -0.59131  -0.58575  -0.57774
 Alpha  occ. eigenvalues --   -0.57465  -0.56750  -0.56381  -0.56142  -0.55559
 Alpha  occ. eigenvalues --   -0.55061  -0.54749  -0.54556  -0.54011  -0.53817
 Alpha  occ. eigenvalues --   -0.53501  -0.53440  -0.53140  -0.53015  -0.52793
 Alpha  occ. eigenvalues --   -0.52594  -0.52493  -0.52245  -0.51985  -0.51622
 Alpha  occ. eigenvalues --   -0.51250  -0.51075  -0.51059  -0.50815  -0.50339
 Alpha  occ. eigenvalues --   -0.50267  -0.50026  -0.49951  -0.49609  -0.49526
 Alpha  occ. eigenvalues --   -0.49356  -0.49231  -0.49169  -0.48992  -0.48658
 Alpha  occ. eigenvalues --   -0.48391  -0.48072  -0.47865  -0.47592  -0.47519
 Alpha  occ. eigenvalues --   -0.47364  -0.46981  -0.46785  -0.46523  -0.46350
 Alpha  occ. eigenvalues --   -0.46275  -0.46119  -0.45943  -0.45774  -0.45688
 Alpha  occ. eigenvalues --   -0.45624  -0.45492  -0.45383  -0.45100  -0.44868
 Alpha  occ. eigenvalues --   -0.44811  -0.44647  -0.44427  -0.44257  -0.44035
 Alpha  occ. eigenvalues --   -0.43829  -0.43718  -0.43366  -0.43082  -0.42874
 Alpha  occ. eigenvalues --   -0.42675  -0.42622  -0.42469  -0.42103  -0.42066
 Alpha  occ. eigenvalues --   -0.41859  -0.41778  -0.41559  -0.41422  -0.41364
 Alpha  occ. eigenvalues --   -0.40899  -0.40636  -0.40327  -0.40001  -0.39891
 Alpha  occ. eigenvalues --   -0.39874  -0.39528  -0.38871  -0.38626  -0.38432
 Alpha  occ. eigenvalues --   -0.38316  -0.38020  -0.37954  -0.37750  -0.37586
 Alpha  occ. eigenvalues --   -0.37132  -0.36690  -0.36427  -0.36332  -0.36210
 Alpha  occ. eigenvalues --   -0.35551  -0.35242  -0.34868  -0.34527  -0.34474
 Alpha  occ. eigenvalues --   -0.33770  -0.33209  -0.32667  -0.31691  -0.31378
 Alpha  occ. eigenvalues --   -0.30759  -0.29798  -0.29673  -0.29312  -0.24123
 Alpha  occ. eigenvalues --   -0.21984
 Alpha virt. eigenvalues --   -0.09572  -0.01791   0.00206   0.01244   0.02351
 Alpha virt. eigenvalues --    0.04596   0.05688   0.05790   0.06850   0.07214
 Alpha virt. eigenvalues --    0.08113   0.08395   0.08906   0.08947   0.09511

 Mulliken charges:
               1
     1  Mg   0.824125
     2  C   -0.023883
     3  C   -0.078910
     4  C   -0.093099
     5  C   -0.059318
     6  N   -0.257147
     7  C   -0.060362
     8  C    0.013150
     9  C   -0.069816
    10  C    0.029722
    11  C    0.068074
    12  C    0.059933
    13  C    0.028853
    14  C    0.139879
    15  O   -0.218390
    16  O   -0.353063
    17  N   -0.433173
    18  C    0.167786
    19  C   -0.147435
    20  C    0.000598
    21  C    0.200049
    22  C    0.137544
    23  C   -0.049302
    24  O   -0.209728
    25  C    0.082740
    26  N   -0.280378
    27  C    0.021514
    28  C   -0.007064
    29  C   -0.030330
    30  C    0.016231
    31  C    0.063054
    32  C    0.011715
    33  C   -0.001242
    34  N   -0.337961
    35  C    0.067667
    36  C   -0.150820
    37  C   -0.021029
    38  C    0.120997
    39  C    0.122085
    40  C    0.061227
    41  O   -0.154465
    42  C    0.003947
    43  C    0.210885
    44  O   -0.232384
    45  O   -0.359959
    46  C    0.164738
    47  C    0.291530
    48  C   -0.123163
    49  C   -0.199617
    50  C    0.082214
    51  C    0.062643
    52  C    0.022607
    53  C    0.021966
    54  C   -0.125588
    55  C    0.066321
    56  C    0.064352
    57  C    0.007244
    58  C    0.012423
    59  C   -0.166186
    60  C    0.041053
    61  C    0.069134
    62  C    0.019418
    63  C    0.058408
    64  C   -0.170577
    65  C    0.044540
    66  C    0.083516
    67  H   -0.003435
    68  H   -0.055721
    69  H   -0.034020
    70  H    0.008051
    71  H    0.029916
    72  H    0.010500
    73  H    0.029618
    74  H    0.012535
    75  H    0.010342
    76  H    0.025434
    77  H    0.052960
    78  H    0.059196
    79  H    0.007109
    80  H    0.034283
    81  H    0.029802
    82  H    0.029348
    83  H    0.048860
    84  H    0.036532
    85  H    0.000613
    86  H    0.007015
    87  H    0.025501
    88  H    0.023234
    89  H    0.021296
    90  H    0.004949
    91  H    0.009177
    92  H    0.032350
    93  H    0.027102
    94  H    0.023722
    95  H    0.037290
    96  H    0.003157
    97  H    0.025094
    98  H    0.039525
    99  H    0.052051
   100  H    0.038988
   101  H    0.026416
   102  H    0.023006
   103  H    0.041874
   104  H    0.009052
   105  H    0.003520
   106  H    0.050000
   107  H    0.017924
   108  H   -0.007851
   109  H    0.006303
   110  H    0.008547
   111  H    0.011248
   112  H   -0.013839
   113  H    0.008381
   114  H   -0.010185
   115  H    0.000368
   116  H    0.002193
   117  H    0.020653
   118  H   -0.011633
   119  H   -0.012165
   120  H    0.000277
   121  H   -0.003258
   122  H   -0.013116
   123  H   -0.012411
   124  H   -0.001227
   125  H    0.011166
   126  H    0.006653
   127  H    0.005080
   128  H   -0.000110
   129  H   -0.019533
   130  H    0.009773
   131  H    0.008096
   132  H   -0.008221
   133  H   -0.005529
   134  H   -0.012597
   135  H    0.000536
   136  H   -0.008058
   137  H    0.001970
   138  H    0.008712
   139  H    0.003911
   140  H    0.002206
 Sum of Mulliken charges =  -0.00000

 Dipole moment (field-independent basis, Debye):
    X=             -0.3392    Y=              3.2000    Z=             -0.1907  Tot=              3.2236
 Quadrupole moment (field-independent basis, Debye-Ang):
   XX=           -406.8336   YY=           -388.6653   ZZ=           -407.9838
   XY=            -39.5260   XZ=            -14.9704   YZ=            -21.8464

 Normal termination of Gaussian 16 at Wed May  4 10:15:13 2022.
