 Gaussian 16, Revision A.03,
 Gaussian 16:  ES64L-G16RevA.03 25-Dec-2016

 ---------------------------------
 #p PBE1PBE/Def2SVP td=(nstates=5)
 ---------------------------------

 ------------------------------------------------------
 step_1651_chromophore_11 TDDFT with PBE1PBE functional
 ------------------------------------------------------
 Symbolic Z-matrix:
 Charge =  0 Multiplicity = 1

                         Standard orientation:
 ---------------------------------------------------------------------
 Center     Atomic      Atomic             Coordinates (Angstroms)
 Number     Number       Type             X           Y           Z
 ---------------------------------------------------------------------
      1         12           0       -4.724745    1.524920    0.611175
      2          6           0       -5.727870   -1.866315    0.236003
      3          6           0       -2.453971    0.417879    3.094272
      4          6           0       -3.384727    4.545858    0.684869
      5          6           0       -6.589051    2.418661   -2.189406
      6          7           0       -4.071655   -0.569964    1.475521
      7          6           0       -4.720948   -1.752457    1.247818
      8          6           0       -4.224493   -2.854945    2.268285
      9          6           0       -3.211720   -2.097233    3.197848
     10          6           0       -3.240695   -0.617112    2.591789
     11          6           0       -3.570823   -2.096252    4.714913
     12          6           0       -3.667696   -4.159282    1.562388
     13          6           0       -2.502078   -4.082832    0.490732
     14          6           0       -1.124547   -4.527818    0.969381
     15          8           0       -0.758390   -4.899780    2.048957
     16          8           0       -0.257791   -4.428724   -0.089546
     17          7           0       -3.079348    2.369899    1.593852
     18          6           0       -2.296288    1.750265    2.601892
     19          6           0       -1.436006    2.722382    3.222939
     20          6           0       -1.711978    3.988618    2.553646
     21          6           0       -2.719686    3.758794    1.572757
     22          6           0       -0.379205    2.429035    4.219703
     23          6           0       -0.952280    5.277635    2.790367
     24          8           0       -0.106385    5.330155    3.672590
     25          6           0       -1.184652    6.464857    1.952235
     26          7           0       -4.845207    3.142106   -0.651579
     27          6           0       -4.274548    4.319515   -0.326179
     28          6           0       -4.740956    5.404481   -1.289872
     29          6           0       -5.639444    4.755079   -2.336097
     30          6           0       -5.679323    3.344483   -1.674834
     31          6           0       -5.491680    6.650297   -0.710310
     32          6           0       -5.161341    4.758881   -3.830841
     33          6           0       -4.123481    3.652925   -4.379986
     34          7           0       -5.985536    0.557916   -0.748660
     35          6           0       -6.784984    1.043541   -1.725604
     36          6           0       -7.641185    0.018463   -2.239990
     37          6           0       -7.183441   -1.135933   -1.542324
     38          6           0       -6.187643   -0.770385   -0.684276
     39          6           0       -8.649180    0.110705   -3.357359
     40          6           0       -7.484446   -2.572215   -1.467712
     41          8           0       -8.228773   -3.191352   -2.211607
     42          6           0       -6.509388   -3.075530   -0.322669
     43          6           0       -5.637668   -3.975819   -1.018370
     44          8           0       -4.674619   -3.654086   -1.742654
     45          8           0       -6.041794   -5.330669   -0.845556
     46          6           0       -5.279659   -6.311179   -1.636580
     47          6           0        1.170342   -4.775077    0.230395
     48          6           0        2.042781   -3.984592   -0.720569
     49          6           0        3.272375   -3.557245   -0.421576
     50          6           0        4.169974   -4.151977    0.682333
     51          6           0        4.069047   -2.684680   -1.460950
     52          6           0        4.563151   -1.345204   -0.963691
     53          6           0        6.123057   -1.161221   -0.932430
     54          6           0        6.615097    0.235137   -1.232494
     55          6           0        7.516798    0.306131   -2.503604
     56          6           0        7.292715    0.930488   -0.035888
     57          6           0        8.415099    0.057924    0.603855
     58          6           0        9.715183    0.795368    0.732085
     59          6           0       10.942722   -0.116072    0.662092
     60          6           0       11.027885   -0.831651    2.096846
     61          6           0       12.298932    0.671062    0.365616
     62          6           0       12.970846   -0.048910   -0.788031
     63          6           0       14.475042    0.222663   -0.618489
     64          6           0       15.057903    0.898813   -1.851372
     65          6           0       16.360411    0.229469   -2.211288
     66          6           0       15.045631    2.407347   -1.941200
     67          1           0       -2.005711    0.200371    4.066461
     68          1           0       -3.216679    5.623722    0.719272
     69          1           0       -7.150143    2.646862   -3.098472
     70          1           0       -5.156185   -3.060759    2.796435
     71          1           0       -2.264019   -2.608058    3.028012
     72          1           0       -3.500800   -1.047014    4.999079
     73          1           0       -2.891723   -2.707348    5.310209
     74          1           0       -4.593350   -2.410775    4.925827
     75          1           0       -4.534020   -4.552576    1.030967
     76          1           0       -3.382999   -4.819273    2.381365
     77          1           0       -2.306715   -3.023169    0.328340
     78          1           0       -2.704090   -4.630325   -0.429457
     79          1           0       -0.233428    1.358507    4.364099
     80          1           0       -0.551501    3.012803    5.122956
     81          1           0        0.613186    2.764605    3.917992
     82          1           0       -0.448142    7.237364    2.172643
     83          1           0       -2.203158    6.784682    2.175000
     84          1           0       -1.069278    6.091612    0.934860
     85          1           0       -3.872610    5.707597   -1.874260
     86          1           0       -6.641147    5.180932   -2.271068
     87          1           0       -6.136186    6.328310    0.107914
     88          1           0       -6.062115    7.135454   -1.502138
     89          1           0       -4.720161    7.343678   -0.375187
     90          1           0       -4.735254    5.742565   -4.026098
     91          1           0       -6.081023    4.709938   -4.414880
     92          1           0       -3.969447    2.886111   -3.619973
     93          1           0       -3.154475    4.100348   -4.602003
     94          1           0       -4.587337    3.085602   -5.186279
     95          1           0       -8.668462   -0.798332   -3.958492
     96          1           0       -8.472584    0.950954   -4.027995
     97          1           0       -9.658071    0.271693   -2.975344
     98          1           0       -7.049568   -3.596153    0.467882
     99          1           0       -4.650492   -5.823159   -2.379980
    100          1           0       -5.981541   -7.003594   -2.102989
    101          1           0       -4.594919   -6.954042   -1.083946
    102          1           0        1.329998   -5.822487   -0.023549
    103          1           0        1.537226   -4.589810    1.239507
    104          1           0        1.522498   -3.431969   -1.501950
    105          1           0        5.054096   -3.514730    0.684922
    106          1           0        4.195418   -5.228929    0.512057
    107          1           0        3.816275   -3.907849    1.683005
    108          1           0        3.439548   -2.526594   -2.336603
    109          1           0        4.914816   -3.294133   -1.777798
    110          1           0        4.305561   -1.220767    0.087992
    111          1           0        4.116690   -0.637735   -1.663818
    112          1           0        6.582045   -1.928558   -1.556179
    113          1           0        6.452447   -1.448788    0.065989
    114          1           0        5.747005    0.856996   -1.450264
    115          1           0        7.625275   -0.699518   -2.910570
    116          1           0        8.512159    0.584303   -2.156801
    117          1           0        7.074668    1.036390   -3.181219
    118          1           0        6.572619    1.278585    0.704571
    119          1           0        7.738648    1.883663   -0.319300
    120          1           0        8.708395   -0.865209    0.103648
    121          1           0        8.230342   -0.129772    1.661801
    122          1           0        9.696089    1.287729    1.704388
    123          1           0        9.770008    1.566573   -0.036447
    124          1           0       10.683990   -0.845522   -0.105100
    125          1           0       10.839643   -1.899657    1.978573
    126          1           0       10.297171   -0.417170    2.791158
    127          1           0       12.009321   -0.647394    2.533092
    128          1           0       12.872905    0.906659    1.261635
    129          1           0       11.949578    1.657239    0.061813
    130          1           0       12.611685    0.381654   -1.722352
    131          1           0       12.795079   -1.124069   -0.749242
    132          1           0       14.893586   -0.760444   -0.404398
    133          1           0       14.696889    0.826717    0.260659
    134          1           0       14.444375    0.594625   -2.698640
    135          1           0       16.678475   -0.362796   -1.353312
    136          1           0       17.176898    0.878181   -2.529678
    137          1           0       16.251906   -0.450981   -3.056586
    138          1           0       15.225493    2.796975   -0.938761
    139          1           0       14.113611    2.775924   -2.369545
    140          1           0       15.795438    2.701538   -2.675371
 ---------------------------------------------------------------------

 SCF Done:  E(RPBE1PBE) =  -3005.33752559     A.U. after   16 cycles

 Excitation energies and oscillator strengths:

 Excited State   1:      Singlet-A      1.8651 eV  664.77 nm  f=0.3623  <S**2>=0.000
     245 -> 248       -0.17448
     246 -> 247        0.69282
     246 <- 247       -0.10916
 This state for optimization and/or second-order correction.
 Total Energy, E(TD-HF/TD-DFT) =  -3005.26898575
 Copying the excited state density for this state as the 1-particle RhoCI density.

 Excited State   2:      Singlet-A      2.1586 eV  574.39 nm  f=0.1532  <S**2>=0.000
     245 -> 247        0.66795
     246 -> 248        0.21265

 Excited State   3:      Singlet-A      2.7259 eV  454.84 nm  f=0.0067  <S**2>=0.000
     244 -> 247        0.69935

 Excited State   4:      Singlet-A      2.8611 eV  433.35 nm  f=0.0002  <S**2>=0.000
     242 -> 247        0.68515
     242 -> 249        0.10012
     242 -> 250        0.10893

 Excited State   5:      Singlet-A      2.9011 eV  427.36 nm  f=0.0182  <S**2>=0.000
     241 -> 247        0.69430

 The electronic state is 1-A.
 Alpha  occ. eigenvalues --  -46.92651 -19.25671 -19.24804 -19.20565 -19.20396
 Alpha  occ. eigenvalues --  -19.19780 -19.18449 -14.42114 -14.41773 -14.39389
 Alpha  occ. eigenvalues --  -14.38703 -10.36948 -10.35590 -10.33257 -10.31547
 Alpha  occ. eigenvalues --  -10.29835 -10.29374 -10.28946 -10.28798 -10.28475
 Alpha  occ. eigenvalues --  -10.28226 -10.28139 -10.28123 -10.27546 -10.27309
 Alpha  occ. eigenvalues --  -10.27058 -10.26835 -10.26364 -10.26268 -10.26087
 Alpha  occ. eigenvalues --  -10.25530 -10.25509 -10.25438 -10.25230 -10.25027
 Alpha  occ. eigenvalues --  -10.24791 -10.24768 -10.24745 -10.24707 -10.24506
 Alpha  occ. eigenvalues --  -10.24143 -10.24106 -10.23605 -10.23498 -10.23368
 Alpha  occ. eigenvalues --  -10.23361 -10.23358 -10.23038 -10.22966 -10.22755
 Alpha  occ. eigenvalues --  -10.22688 -10.22523 -10.22416 -10.22245 -10.22216
 Alpha  occ. eigenvalues --  -10.21970 -10.21897 -10.21892 -10.21861 -10.21765
 Alpha  occ. eigenvalues --  -10.21691 -10.21677 -10.21659 -10.21496 -10.20969
 Alpha  occ. eigenvalues --  -10.20806  -3.14742  -1.87554  -1.87138  -1.86946
 Alpha  occ. eigenvalues --   -1.10864  -1.09445  -1.05422  -1.04445  -1.02208
 Alpha  occ. eigenvalues --   -1.01562  -1.00166  -0.98959  -0.96820  -0.95331
 Alpha  occ. eigenvalues --   -0.86985  -0.84461  -0.83890  -0.83841  -0.83660
 Alpha  occ. eigenvalues --   -0.83178  -0.82474  -0.81631  -0.81546  -0.80441
 Alpha  occ. eigenvalues --   -0.80139  -0.79519  -0.78792  -0.78079  -0.77735
 Alpha  occ. eigenvalues --   -0.76955  -0.76733  -0.75322  -0.74985  -0.74205
 Alpha  occ. eigenvalues --   -0.73472  -0.72199  -0.71815  -0.71411  -0.70415
 Alpha  occ. eigenvalues --   -0.69928  -0.69852  -0.69668  -0.68283  -0.68082
 Alpha  occ. eigenvalues --   -0.67694  -0.66979  -0.66149  -0.64911  -0.64588
 Alpha  occ. eigenvalues --   -0.63295  -0.62300  -0.61508  -0.60098  -0.60072
 Alpha  occ. eigenvalues --   -0.59792  -0.59272  -0.59251  -0.59005  -0.57616
 Alpha  occ. eigenvalues --   -0.56852  -0.56729  -0.56191  -0.56065  -0.54829
 Alpha  occ. eigenvalues --   -0.54315  -0.54122  -0.53502  -0.53061  -0.52374
 Alpha  occ. eigenvalues --   -0.51982  -0.51240  -0.50769  -0.50611  -0.50063
 Alpha  occ. eigenvalues --   -0.49600  -0.49108  -0.49059  -0.48455  -0.48330
 Alpha  occ. eigenvalues --   -0.48098  -0.47866  -0.47746  -0.47411  -0.47270
 Alpha  occ. eigenvalues --   -0.47078  -0.46989  -0.46743  -0.46571  -0.46192
 Alpha  occ. eigenvalues --   -0.45758  -0.45578  -0.45545  -0.45377  -0.44958
 Alpha  occ. eigenvalues --   -0.44812  -0.44623  -0.44534  -0.44221  -0.44056
 Alpha  occ. eigenvalues --   -0.43973  -0.43798  -0.43743  -0.43587  -0.43274
 Alpha  occ. eigenvalues --   -0.43032  -0.42666  -0.42451  -0.42272  -0.42114
 Alpha  occ. eigenvalues --   -0.42017  -0.41609  -0.41439  -0.41296  -0.41005
 Alpha  occ. eigenvalues --   -0.40984  -0.40849  -0.40596  -0.40494  -0.40349
 Alpha  occ. eigenvalues --   -0.40315  -0.40177  -0.40054  -0.39836  -0.39666
 Alpha  occ. eigenvalues --   -0.39510  -0.39374  -0.39094  -0.39039  -0.38849
 Alpha  occ. eigenvalues --   -0.38606  -0.38469  -0.38175  -0.37917  -0.37696
 Alpha  occ. eigenvalues --   -0.37502  -0.37276  -0.37267  -0.36984  -0.36817
 Alpha  occ. eigenvalues --   -0.36612  -0.36547  -0.36422  -0.36237  -0.36146
 Alpha  occ. eigenvalues --   -0.35801  -0.35389  -0.35087  -0.34928  -0.34833
 Alpha  occ. eigenvalues --   -0.34651  -0.34282  -0.33686  -0.33593  -0.33399
 Alpha  occ. eigenvalues --   -0.33115  -0.32941  -0.32782  -0.32545  -0.32400
 Alpha  occ. eigenvalues --   -0.32219  -0.31544  -0.31476  -0.31230  -0.31112
 Alpha  occ. eigenvalues --   -0.30417  -0.30042  -0.29746  -0.29538  -0.29419
 Alpha  occ. eigenvalues --   -0.28893  -0.28570  -0.27656  -0.27297  -0.26483
 Alpha  occ. eigenvalues --   -0.25396  -0.25381  -0.25047  -0.24886  -0.21114
 Alpha  occ. eigenvalues --   -0.19540
 Alpha virt. eigenvalues --   -0.11935  -0.05311  -0.04091  -0.02077  -0.01490
 Alpha virt. eigenvalues --   -0.00025   0.01283   0.01415   0.02612   0.03091
 Alpha virt. eigenvalues --    0.03931   0.04842   0.05182   0.05632   0.06138

 Mulliken charges:
               1
     1  Mg   0.966908
     2  C   -0.033388
     3  C   -0.072112
     4  C   -0.105315
     5  C   -0.045523
     6  N   -0.354683
     7  C    0.008323
     8  C   -0.047966
     9  C   -0.145156
    10  C    0.059850
    11  C    0.010620
    12  C   -0.001947
    13  C   -0.046465
    14  C    0.209093
    15  O   -0.253178
    16  O   -0.382989
    17  N   -0.536438
    18  C    0.194493
    19  C   -0.175284
    20  C   -0.046491
    21  C    0.226256
    22  C    0.078612
    23  C    0.008438
    24  O   -0.246218
    25  C    0.003275
    26  N   -0.392784
    27  C    0.065156
    28  C   -0.089172
    29  C   -0.094291
    30  C    0.047485
    31  C   -0.000237
    32  C   -0.049686
    33  C   -0.073896
    34  N   -0.463037
    35  C    0.094963
    36  C   -0.168413
    37  C   -0.071246
    38  C    0.182664
    39  C    0.068997
    40  C    0.146003
    41  O   -0.199213
    42  C   -0.100268
    43  C    0.292160
    44  O   -0.264380
    45  O   -0.389140
    46  C    0.111268
    47  C    0.247842
    48  C   -0.135902
    49  C   -0.233774
    50  C    0.012708
    51  C   -0.003424
    52  C   -0.042371
    53  C   -0.027493
    54  C   -0.214518
    55  C    0.004769
    56  C    0.009346
    57  C   -0.056856
    58  C   -0.041911
    59  C   -0.251529
    60  C   -0.014490
    61  C    0.017826
    62  C   -0.045483
    63  C    0.003041
    64  C   -0.266682
    65  C   -0.014503
    66  C    0.023748
    67  H    0.025818
    68  H   -0.019535
    69  H   -0.001702
    70  H    0.045803
    71  H    0.069137
    72  H    0.038601
    73  H    0.056302
    74  H    0.039543
    75  H    0.052513
    76  H    0.058186
    77  H    0.087365
    78  H    0.090470
    79  H    0.032960
    80  H    0.061583
    81  H    0.057246
    82  H    0.057033
    83  H    0.074910
    84  H    0.064437
    85  H    0.040251
    86  H    0.044025
    87  H    0.053889
    88  H    0.050824
    89  H    0.048506
    90  H    0.038468
    91  H    0.040671
    92  H    0.062626
    93  H    0.054200
    94  H    0.050757
    95  H    0.064843
    96  H    0.030910
    97  H    0.054196
    98  H    0.074328
    99  H    0.072104
   100  H    0.061174
   101  H    0.048109
   102  H    0.051188
   103  H    0.067837
   104  H    0.038913
   105  H    0.034584
   106  H    0.077005
   107  H    0.045321
   108  H    0.024069
   109  H    0.039981
   110  H    0.043055
   111  H    0.043410
   112  H    0.016774
   113  H    0.042187
   114  H    0.028768
   115  H    0.027604
   116  H    0.032587
   117  H    0.047548
   118  H    0.021428
   119  H    0.020526
   120  H    0.031634
   121  H    0.030456
   122  H    0.022080
   123  H    0.018628
   124  H    0.034827
   125  H    0.038689
   126  H    0.032831
   127  H    0.032341
   128  H    0.029053
   129  H    0.014842
   130  H    0.042008
   131  H    0.040709
   132  H    0.024545
   133  H    0.026804
   134  H    0.027708
   135  H    0.028081
   136  H    0.019118
   137  H    0.029501
   138  H    0.035681
   139  H    0.031365
   140  H    0.029774
 Sum of Mulliken charges =  -0.00000

 Dipole moment (field-independent basis, Debye):
    X=             -0.5376    Y=              3.1788    Z=             -0.4311  Tot=              3.2526
 Quadrupole moment (field-independent basis, Debye-Ang):
   XX=           -401.4983   YY=           -385.7631   ZZ=           -404.3664
   XY=            -39.9879   XZ=            -13.1583   YZ=            -23.1856

 Normal termination of Gaussian 16 at Wed May  4 10:32:45 2022.
