 Gaussian 16, Revision A.03,
 Gaussian 16:  ES64L-G16RevA.03 25-Dec-2016

 --------------------------------
 #p wB97XD/Def2SVP td=(nstates=5)
 --------------------------------

 -----------------------------------------------------
 step_1651_chromophore_11 TDDFT with wB97XD functional
 -----------------------------------------------------
 Symbolic Z-matrix:
 Charge =  0 Multiplicity = 1

                         Standard orientation:
 ---------------------------------------------------------------------
 Center     Atomic      Atomic             Coordinates (Angstroms)
 Number     Number       Type             X           Y           Z
 ---------------------------------------------------------------------
      1         12           0       -4.724745    1.524920    0.611175
      2          6           0       -5.727870   -1.866315    0.236003
      3          6           0       -2.453971    0.417879    3.094272
      4          6           0       -3.384727    4.545858    0.684869
      5          6           0       -6.589051    2.418661   -2.189406
      6          7           0       -4.071655   -0.569964    1.475521
      7          6           0       -4.720948   -1.752457    1.247818
      8          6           0       -4.224493   -2.854945    2.268285
      9          6           0       -3.211720   -2.097233    3.197848
     10          6           0       -3.240695   -0.617112    2.591789
     11          6           0       -3.570823   -2.096252    4.714913
     12          6           0       -3.667696   -4.159282    1.562388
     13          6           0       -2.502078   -4.082832    0.490732
     14          6           0       -1.124547   -4.527818    0.969381
     15          8           0       -0.758390   -4.899780    2.048957
     16          8           0       -0.257791   -4.428724   -0.089546
     17          7           0       -3.079348    2.369899    1.593852
     18          6           0       -2.296288    1.750265    2.601892
     19          6           0       -1.436006    2.722382    3.222939
     20          6           0       -1.711978    3.988618    2.553646
     21          6           0       -2.719686    3.758794    1.572757
     22          6           0       -0.379205    2.429035    4.219703
     23          6           0       -0.952280    5.277635    2.790367
     24          8           0       -0.106385    5.330155    3.672590
     25          6           0       -1.184652    6.464857    1.952235
     26          7           0       -4.845207    3.142106   -0.651579
     27          6           0       -4.274548    4.319515   -0.326179
     28          6           0       -4.740956    5.404481   -1.289872
     29          6           0       -5.639444    4.755079   -2.336097
     30          6           0       -5.679323    3.344483   -1.674834
     31          6           0       -5.491680    6.650297   -0.710310
     32          6           0       -5.161341    4.758881   -3.830841
     33          6           0       -4.123481    3.652925   -4.379986
     34          7           0       -5.985536    0.557916   -0.748660
     35          6           0       -6.784984    1.043541   -1.725604
     36          6           0       -7.641185    0.018463   -2.239990
     37          6           0       -7.183441   -1.135933   -1.542324
     38          6           0       -6.187643   -0.770385   -0.684276
     39          6           0       -8.649180    0.110705   -3.357359
     40          6           0       -7.484446   -2.572215   -1.467712
     41          8           0       -8.228773   -3.191352   -2.211607
     42          6           0       -6.509388   -3.075530   -0.322669
     43          6           0       -5.637668   -3.975819   -1.018370
     44          8           0       -4.674619   -3.654086   -1.742654
     45          8           0       -6.041794   -5.330669   -0.845556
     46          6           0       -5.279659   -6.311179   -1.636580
     47          6           0        1.170342   -4.775077    0.230395
     48          6           0        2.042781   -3.984592   -0.720569
     49          6           0        3.272375   -3.557245   -0.421576
     50          6           0        4.169974   -4.151977    0.682333
     51          6           0        4.069047   -2.684680   -1.460950
     52          6           0        4.563151   -1.345204   -0.963691
     53          6           0        6.123057   -1.161221   -0.932430
     54          6           0        6.615097    0.235137   -1.232494
     55          6           0        7.516798    0.306131   -2.503604
     56          6           0        7.292715    0.930488   -0.035888
     57          6           0        8.415099    0.057924    0.603855
     58          6           0        9.715183    0.795368    0.732085
     59          6           0       10.942722   -0.116072    0.662092
     60          6           0       11.027885   -0.831651    2.096846
     61          6           0       12.298932    0.671062    0.365616
     62          6           0       12.970846   -0.048910   -0.788031
     63          6           0       14.475042    0.222663   -0.618489
     64          6           0       15.057903    0.898813   -1.851372
     65          6           0       16.360411    0.229469   -2.211288
     66          6           0       15.045631    2.407347   -1.941200
     67          1           0       -2.005711    0.200371    4.066461
     68          1           0       -3.216679    5.623722    0.719272
     69          1           0       -7.150143    2.646862   -3.098472
     70          1           0       -5.156185   -3.060759    2.796435
     71          1           0       -2.264019   -2.608058    3.028012
     72          1           0       -3.500800   -1.047014    4.999079
     73          1           0       -2.891723   -2.707348    5.310209
     74          1           0       -4.593350   -2.410775    4.925827
     75          1           0       -4.534020   -4.552576    1.030967
     76          1           0       -3.382999   -4.819273    2.381365
     77          1           0       -2.306715   -3.023169    0.328340
     78          1           0       -2.704090   -4.630325   -0.429457
     79          1           0       -0.233428    1.358507    4.364099
     80          1           0       -0.551501    3.012803    5.122956
     81          1           0        0.613186    2.764605    3.917992
     82          1           0       -0.448142    7.237364    2.172643
     83          1           0       -2.203158    6.784682    2.175000
     84          1           0       -1.069278    6.091612    0.934860
     85          1           0       -3.872610    5.707597   -1.874260
     86          1           0       -6.641147    5.180932   -2.271068
     87          1           0       -6.136186    6.328310    0.107914
     88          1           0       -6.062115    7.135454   -1.502138
     89          1           0       -4.720161    7.343678   -0.375187
     90          1           0       -4.735254    5.742565   -4.026098
     91          1           0       -6.081023    4.709938   -4.414880
     92          1           0       -3.969447    2.886111   -3.619973
     93          1           0       -3.154475    4.100348   -4.602003
     94          1           0       -4.587337    3.085602   -5.186279
     95          1           0       -8.668462   -0.798332   -3.958492
     96          1           0       -8.472584    0.950954   -4.027995
     97          1           0       -9.658071    0.271693   -2.975344
     98          1           0       -7.049568   -3.596153    0.467882
     99          1           0       -4.650492   -5.823159   -2.379980
    100          1           0       -5.981541   -7.003594   -2.102989
    101          1           0       -4.594919   -6.954042   -1.083946
    102          1           0        1.329998   -5.822487   -0.023549
    103          1           0        1.537226   -4.589810    1.239507
    104          1           0        1.522498   -3.431969   -1.501950
    105          1           0        5.054096   -3.514730    0.684922
    106          1           0        4.195418   -5.228929    0.512057
    107          1           0        3.816275   -3.907849    1.683005
    108          1           0        3.439548   -2.526594   -2.336603
    109          1           0        4.914816   -3.294133   -1.777798
    110          1           0        4.305561   -1.220767    0.087992
    111          1           0        4.116690   -0.637735   -1.663818
    112          1           0        6.582045   -1.928558   -1.556179
    113          1           0        6.452447   -1.448788    0.065989
    114          1           0        5.747005    0.856996   -1.450264
    115          1           0        7.625275   -0.699518   -2.910570
    116          1           0        8.512159    0.584303   -2.156801
    117          1           0        7.074668    1.036390   -3.181219
    118          1           0        6.572619    1.278585    0.704571
    119          1           0        7.738648    1.883663   -0.319300
    120          1           0        8.708395   -0.865209    0.103648
    121          1           0        8.230342   -0.129772    1.661801
    122          1           0        9.696089    1.287729    1.704388
    123          1           0        9.770008    1.566573   -0.036447
    124          1           0       10.683990   -0.845522   -0.105100
    125          1           0       10.839643   -1.899657    1.978573
    126          1           0       10.297171   -0.417170    2.791158
    127          1           0       12.009321   -0.647394    2.533092
    128          1           0       12.872905    0.906659    1.261635
    129          1           0       11.949578    1.657239    0.061813
    130          1           0       12.611685    0.381654   -1.722352
    131          1           0       12.795079   -1.124069   -0.749242
    132          1           0       14.893586   -0.760444   -0.404398
    133          1           0       14.696889    0.826717    0.260659
    134          1           0       14.444375    0.594625   -2.698640
    135          1           0       16.678475   -0.362796   -1.353312
    136          1           0       17.176898    0.878181   -2.529678
    137          1           0       16.251906   -0.450981   -3.056586
    138          1           0       15.225493    2.796975   -0.938761
    139          1           0       14.113611    2.775924   -2.369545
    140          1           0       15.795438    2.701538   -2.675371
 ---------------------------------------------------------------------

 SCF Done:  E(RwB97XD) =  -3007.84691415     A.U. after   20 cycles

 Excitation energies and oscillator strengths:

 Excited State   1:      Singlet-A      1.6524 eV  750.31 nm  f=0.3797  <S**2>=0.000
     245 -> 248       -0.18273
     246 -> 247        0.68425
     245 <- 248       -0.11686
 This state for optimization and/or second-order correction.
 Total Energy, E(TD-HF/TD-DFT) =  -3007.78618849
 Copying the excited state density for this state as the 1-particle RhoCI density.

 Excited State   2:      Singlet-A      2.0790 eV  596.37 nm  f=0.1648  <S**2>=0.000
     245 -> 247        0.65864
     246 -> 248        0.23542

 Excited State   3:      Singlet-A      3.0426 eV  407.50 nm  f=0.0035  <S**2>=0.000
     242 -> 247       -0.20375
     244 -> 247        0.65407

 Excited State   4:      Singlet-A      3.2540 eV  381.03 nm  f=0.0123  <S**2>=0.000
     242 -> 247        0.62099
     243 -> 247       -0.18121
     244 -> 247        0.21466
     246 -> 248       -0.10015

 Excited State   5:      Singlet-A      3.5143 eV  352.80 nm  f=0.0000  <S**2>=0.000
     241 -> 247        0.56732
     241 -> 248       -0.15553
     241 -> 249        0.23911
     241 -> 250       -0.17832
     241 -> 251        0.20085

 The electronic state is 1-A.
 Alpha  occ. eigenvalues --  -46.95607 -19.30234 -19.29357 -19.25267 -19.25082
 Alpha  occ. eigenvalues --  -19.24448 -19.23363 -14.47245 -14.46874 -14.44413
 Alpha  occ. eigenvalues --  -14.43509 -10.43790 -10.42362 -10.39995 -10.38468
 Alpha  occ. eigenvalues --  -10.36044 -10.35827 -10.35442 -10.35274 -10.34722
 Alpha  occ. eigenvalues --  -10.34721 -10.34710 -10.34591 -10.33816 -10.33407
 Alpha  occ. eigenvalues --  -10.33367 -10.32980 -10.32953 -10.32607 -10.32396
 Alpha  occ. eigenvalues --  -10.31752 -10.31709 -10.31697 -10.31670 -10.31285
 Alpha  occ. eigenvalues --  -10.31274 -10.31202 -10.31162 -10.31010 -10.30926
 Alpha  occ. eigenvalues --  -10.30591 -10.30467 -10.30045 -10.30004 -10.29819
 Alpha  occ. eigenvalues --  -10.29781 -10.29718 -10.29583 -10.29295 -10.29068
 Alpha  occ. eigenvalues --  -10.29043 -10.28797 -10.28623 -10.28619 -10.28604
 Alpha  occ. eigenvalues --  -10.28275 -10.28249 -10.28247 -10.28225 -10.28188
 Alpha  occ. eigenvalues --  -10.28115 -10.28100 -10.28076 -10.27840 -10.27336
 Alpha  occ. eigenvalues --  -10.27232  -3.21572  -1.95130  -1.94714  -1.94521
 Alpha  occ. eigenvalues --   -1.18228  -1.16871  -1.12785  -1.12029  -1.09541
 Alpha  occ. eigenvalues --   -1.08949  -1.07530  -1.06134  -1.04281  -1.02902
 Alpha  occ. eigenvalues --   -0.94562  -0.92133  -0.91555  -0.91529  -0.91235
 Alpha  occ. eigenvalues --   -0.90845  -0.90137  -0.89288  -0.89186  -0.88063
 Alpha  occ. eigenvalues --   -0.87803  -0.87172  -0.86459  -0.85719  -0.85404
 Alpha  occ. eigenvalues --   -0.84664  -0.84417  -0.82943  -0.82604  -0.81847
 Alpha  occ. eigenvalues --   -0.81134  -0.79842  -0.79495  -0.79014  -0.78024
 Alpha  occ. eigenvalues --   -0.77622  -0.77494  -0.77337  -0.75978  -0.75754
 Alpha  occ. eigenvalues --   -0.75186  -0.74605  -0.73730  -0.72505  -0.72166
 Alpha  occ. eigenvalues --   -0.70745  -0.69966  -0.69112  -0.67715  -0.67528
 Alpha  occ. eigenvalues --   -0.67466  -0.66788  -0.66719  -0.66522  -0.65281
 Alpha  occ. eigenvalues --   -0.64492  -0.64190  -0.63691  -0.63579  -0.62328
 Alpha  occ. eigenvalues --   -0.61753  -0.61429  -0.61042  -0.60521  -0.59785
 Alpha  occ. eigenvalues --   -0.59428  -0.58686  -0.58268  -0.58092  -0.57490
 Alpha  occ. eigenvalues --   -0.57005  -0.56596  -0.56500  -0.55900  -0.55725
 Alpha  occ. eigenvalues --   -0.55440  -0.55298  -0.55090  -0.54958  -0.54736
 Alpha  occ. eigenvalues --   -0.54470  -0.54371  -0.54116  -0.53925  -0.53546
 Alpha  occ. eigenvalues --   -0.53115  -0.52961  -0.52918  -0.52726  -0.52266
 Alpha  occ. eigenvalues --   -0.52156  -0.51953  -0.51898  -0.51551  -0.51453
 Alpha  occ. eigenvalues --   -0.51264  -0.51100  -0.51053  -0.50864  -0.50594
 Alpha  occ. eigenvalues --   -0.50340  -0.49970  -0.49742  -0.49545  -0.49447
 Alpha  occ. eigenvalues --   -0.49302  -0.48869  -0.48684  -0.48450  -0.48267
 Alpha  occ. eigenvalues --   -0.48181  -0.48046  -0.47809  -0.47650  -0.47572
 Alpha  occ. eigenvalues --   -0.47518  -0.47363  -0.47280  -0.47040  -0.46822
 Alpha  occ. eigenvalues --   -0.46681  -0.46539  -0.46291  -0.46170  -0.45954
 Alpha  occ. eigenvalues --   -0.45716  -0.45651  -0.45277  -0.45024  -0.44816
 Alpha  occ. eigenvalues --   -0.44610  -0.44477  -0.44385  -0.44068  -0.43940
 Alpha  occ. eigenvalues --   -0.43880  -0.43728  -0.43494  -0.43297  -0.43257
 Alpha  occ. eigenvalues --   -0.42792  -0.42494  -0.42185  -0.41883  -0.41787
 Alpha  occ. eigenvalues --   -0.41734  -0.41358  -0.40726  -0.40536  -0.40352
 Alpha  occ. eigenvalues --   -0.40170  -0.39892  -0.39853  -0.39600  -0.39463
 Alpha  occ. eigenvalues --   -0.39319  -0.38591  -0.38327  -0.38256  -0.38164
 Alpha  occ. eigenvalues --   -0.37409  -0.37082  -0.36753  -0.36470  -0.36370
 Alpha  occ. eigenvalues --   -0.35669  -0.35476  -0.34492  -0.33885  -0.33383
 Alpha  occ. eigenvalues --   -0.32692  -0.31842  -0.31834  -0.31509  -0.26033
 Alpha  occ. eigenvalues --   -0.23787
 Alpha virt. eigenvalues --   -0.07934   0.00125   0.02291   0.04330   0.04490
 Alpha virt. eigenvalues --    0.06749   0.08045   0.08118   0.09517   0.09720
 Alpha virt. eigenvalues --    0.10656   0.11568   0.11696   0.12359   0.12827

 Mulliken charges:
               1
     1  Mg   0.957470
     2  C   -0.033146
     3  C   -0.089500
     4  C   -0.110050
     5  C   -0.061725
     6  N   -0.321233
     7  C   -0.024507
     8  C   -0.027685
     9  C   -0.120853
    10  C    0.051848
    11  C    0.022408
    12  C    0.020440
    13  C   -0.029670
    14  C    0.198064
    15  O   -0.249953
    16  O   -0.382446
    17  N   -0.510680
    18  C    0.186861
    19  C   -0.162622
    20  C   -0.042943
    21  C    0.224962
    22  C    0.086669
    23  C    0.001928
    24  O   -0.240702
    25  C    0.018711
    26  N   -0.355807
    27  C    0.050230
    28  C   -0.063851
    29  C   -0.071763
    30  C    0.033685
    31  C    0.012772
    32  C   -0.037151
    33  C   -0.055092
    34  N   -0.425754
    35  C    0.082399
    36  C   -0.165961
    37  C   -0.066184
    38  C    0.159284
    39  C    0.080183
    40  C    0.129099
    41  O   -0.190345
    42  C   -0.065400
    43  C    0.271412
    44  O   -0.258628
    45  O   -0.389216
    46  C    0.126821
    47  C    0.263017
    48  C   -0.143281
    49  C   -0.224873
    50  C    0.028883
    51  C    0.018366
    52  C   -0.026752
    53  C   -0.012784
    54  C   -0.185246
    55  C    0.019031
    56  C    0.027507
    57  C   -0.041319
    58  C   -0.018693
    59  C   -0.220832
    60  C   -0.003345
    61  C    0.031596
    62  C   -0.027314
    63  C    0.017118
    64  C   -0.234409
    65  C   -0.002364
    66  C    0.034999
    67  H    0.018826
    68  H   -0.034224
    69  H   -0.008701
    70  H    0.035200
    71  H    0.057299
    72  H    0.029698
    73  H    0.052312
    74  H    0.034823
    75  H    0.034878
    76  H    0.051360
    77  H    0.078300
    78  H    0.084350
    79  H    0.029156
    80  H    0.059040
    81  H    0.054151
    82  H    0.056718
    83  H    0.069375
    84  H    0.057309
    85  H    0.028863
    86  H    0.033653
    87  H    0.047916
    88  H    0.045249
    89  H    0.042773
    90  H    0.029667
    91  H    0.033640
    92  H    0.052316
    93  H    0.049165
    94  H    0.045778
    95  H    0.060381
    96  H    0.024359
    97  H    0.048317
    98  H    0.070570
    99  H    0.067876
   100  H    0.057835
   101  H    0.043513
   102  H    0.046505
   103  H    0.061284
   104  H    0.035872
   105  H    0.024939
   106  H    0.072547
   107  H    0.039815
   108  H    0.017998
   109  H    0.029836
   110  H    0.033798
   111  H    0.035749
   112  H    0.005809
   113  H    0.029122
   114  H    0.016970
   115  H    0.021624
   116  H    0.022237
   117  H    0.043377
   118  H    0.014609
   119  H    0.010648
   120  H    0.018495
   121  H    0.020922
   122  H    0.011079
   123  H    0.005377
   124  H    0.019832
   125  H    0.033482
   126  H    0.025179
   127  H    0.026223
   128  H    0.020328
   129  H    0.004795
   130  H    0.032210
   131  H    0.032310
   132  H    0.016677
   133  H    0.015796
   134  H    0.013981
   135  H    0.020738
   136  H    0.013513
   137  H    0.024117
   138  H    0.029344
   139  H    0.025778
   140  H    0.023661
 Sum of Mulliken charges =  -0.00000

 Dipole moment (field-independent basis, Debye):
    X=             -0.2618    Y=              3.3266    Z=             -0.1286  Tot=              3.3394
 Quadrupole moment (field-independent basis, Debye-Ang):
   XX=           -403.4050   YY=           -384.3674   ZZ=           -404.0588
   XY=            -39.7821   XZ=            -14.6459   YZ=            -22.2193

 Normal termination of Gaussian 16 at Wed May  4 10:59:45 2022.
