 Gaussian 16, Revision A.03,
 Gaussian 16:  ES64L-G16RevA.03 25-Dec-2016

 --------------------
 #p ZINDO=(nstates=5)
 --------------------

 ------------------------------
 step_1651_chromophore_11 ZINDO
 ------------------------------
 Symbolic Z-matrix:
 Charge =  0 Multiplicity = 1

                         Standard orientation:
 ---------------------------------------------------------------------
 Center     Atomic      Atomic             Coordinates (Angstroms)
 Number     Number       Type             X           Y           Z
 ---------------------------------------------------------------------
      1         12           0       -4.724745    1.524920    0.611175
      2          6           0       -5.727870   -1.866315    0.236003
      3          6           0       -2.453971    0.417879    3.094272
      4          6           0       -3.384727    4.545858    0.684869
      5          6           0       -6.589051    2.418661   -2.189406
      6          7           0       -4.071655   -0.569964    1.475521
      7          6           0       -4.720948   -1.752457    1.247818
      8          6           0       -4.224493   -2.854945    2.268285
      9          6           0       -3.211720   -2.097233    3.197848
     10          6           0       -3.240695   -0.617112    2.591789
     11          6           0       -3.570823   -2.096252    4.714913
     12          6           0       -3.667696   -4.159282    1.562388
     13          6           0       -2.502078   -4.082832    0.490732
     14          6           0       -1.124547   -4.527818    0.969381
     15          8           0       -0.758390   -4.899780    2.048957
     16          8           0       -0.257791   -4.428724   -0.089546
     17          7           0       -3.079348    2.369899    1.593852
     18          6           0       -2.296288    1.750265    2.601892
     19          6           0       -1.436006    2.722382    3.222939
     20          6           0       -1.711978    3.988618    2.553646
     21          6           0       -2.719686    3.758794    1.572757
     22          6           0       -0.379205    2.429035    4.219703
     23          6           0       -0.952280    5.277635    2.790367
     24          8           0       -0.106385    5.330155    3.672590
     25          6           0       -1.184652    6.464857    1.952235
     26          7           0       -4.845207    3.142106   -0.651579
     27          6           0       -4.274548    4.319515   -0.326179
     28          6           0       -4.740956    5.404481   -1.289872
     29          6           0       -5.639444    4.755079   -2.336097
     30          6           0       -5.679323    3.344483   -1.674834
     31          6           0       -5.491680    6.650297   -0.710310
     32          6           0       -5.161341    4.758881   -3.830841
     33          6           0       -4.123481    3.652925   -4.379986
     34          7           0       -5.985536    0.557916   -0.748660
     35          6           0       -6.784984    1.043541   -1.725604
     36          6           0       -7.641185    0.018463   -2.239990
     37          6           0       -7.183441   -1.135933   -1.542324
     38          6           0       -6.187643   -0.770385   -0.684276
     39          6           0       -8.649180    0.110705   -3.357359
     40          6           0       -7.484446   -2.572215   -1.467712
     41          8           0       -8.228773   -3.191352   -2.211607
     42          6           0       -6.509388   -3.075530   -0.322669
     43          6           0       -5.637668   -3.975819   -1.018370
     44          8           0       -4.674619   -3.654086   -1.742654
     45          8           0       -6.041794   -5.330669   -0.845556
     46          6           0       -5.279659   -6.311179   -1.636580
     47          6           0        1.170342   -4.775077    0.230395
     48          6           0        2.042781   -3.984592   -0.720569
     49          6           0        3.272375   -3.557245   -0.421576
     50          6           0        4.169974   -4.151977    0.682333
     51          6           0        4.069047   -2.684680   -1.460950
     52          6           0        4.563151   -1.345204   -0.963691
     53          6           0        6.123057   -1.161221   -0.932430
     54          6           0        6.615097    0.235137   -1.232494
     55          6           0        7.516798    0.306131   -2.503604
     56          6           0        7.292715    0.930488   -0.035888
     57          6           0        8.415099    0.057924    0.603855
     58          6           0        9.715183    0.795368    0.732085
     59          6           0       10.942722   -0.116072    0.662092
     60          6           0       11.027885   -0.831651    2.096846
     61          6           0       12.298932    0.671062    0.365616
     62          6           0       12.970846   -0.048910   -0.788031
     63          6           0       14.475042    0.222663   -0.618489
     64          6           0       15.057903    0.898813   -1.851372
     65          6           0       16.360411    0.229469   -2.211288
     66          6           0       15.045631    2.407347   -1.941200
     67          1           0       -2.005711    0.200371    4.066461
     68          1           0       -3.216679    5.623722    0.719272
     69          1           0       -7.150143    2.646862   -3.098472
     70          1           0       -5.156185   -3.060759    2.796435
     71          1           0       -2.264019   -2.608058    3.028012
     72          1           0       -3.500800   -1.047014    4.999079
     73          1           0       -2.891723   -2.707348    5.310209
     74          1           0       -4.593350   -2.410775    4.925827
     75          1           0       -4.534020   -4.552576    1.030967
     76          1           0       -3.382999   -4.819273    2.381365
     77          1           0       -2.306715   -3.023169    0.328340
     78          1           0       -2.704090   -4.630325   -0.429457
     79          1           0       -0.233428    1.358507    4.364099
     80          1           0       -0.551501    3.012803    5.122956
     81          1           0        0.613186    2.764605    3.917992
     82          1           0       -0.448142    7.237364    2.172643
     83          1           0       -2.203158    6.784682    2.175000
     84          1           0       -1.069278    6.091612    0.934860
     85          1           0       -3.872610    5.707597   -1.874260
     86          1           0       -6.641147    5.180932   -2.271068
     87          1           0       -6.136186    6.328310    0.107914
     88          1           0       -6.062115    7.135454   -1.502138
     89          1           0       -4.720161    7.343678   -0.375187
     90          1           0       -4.735254    5.742565   -4.026098
     91          1           0       -6.081023    4.709938   -4.414880
     92          1           0       -3.969447    2.886111   -3.619973
     93          1           0       -3.154475    4.100348   -4.602003
     94          1           0       -4.587337    3.085602   -5.186279
     95          1           0       -8.668462   -0.798332   -3.958492
     96          1           0       -8.472584    0.950954   -4.027995
     97          1           0       -9.658071    0.271693   -2.975344
     98          1           0       -7.049568   -3.596153    0.467882
     99          1           0       -4.650492   -5.823159   -2.379980
    100          1           0       -5.981541   -7.003594   -2.102989
    101          1           0       -4.594919   -6.954042   -1.083946
    102          1           0        1.329998   -5.822487   -0.023549
    103          1           0        1.537226   -4.589810    1.239507
    104          1           0        1.522498   -3.431969   -1.501950
    105          1           0        5.054096   -3.514730    0.684922
    106          1           0        4.195418   -5.228929    0.512057
    107          1           0        3.816275   -3.907849    1.683005
    108          1           0        3.439548   -2.526594   -2.336603
    109          1           0        4.914816   -3.294133   -1.777798
    110          1           0        4.305561   -1.220767    0.087992
    111          1           0        4.116690   -0.637735   -1.663818
    112          1           0        6.582045   -1.928558   -1.556179
    113          1           0        6.452447   -1.448788    0.065989
    114          1           0        5.747005    0.856996   -1.450264
    115          1           0        7.625275   -0.699518   -2.910570
    116          1           0        8.512159    0.584303   -2.156801
    117          1           0        7.074668    1.036390   -3.181219
    118          1           0        6.572619    1.278585    0.704571
    119          1           0        7.738648    1.883663   -0.319300
    120          1           0        8.708395   -0.865209    0.103648
    121          1           0        8.230342   -0.129772    1.661801
    122          1           0        9.696089    1.287729    1.704388
    123          1           0        9.770008    1.566573   -0.036447
    124          1           0       10.683990   -0.845522   -0.105100
    125          1           0       10.839643   -1.899657    1.978573
    126          1           0       10.297171   -0.417170    2.791158
    127          1           0       12.009321   -0.647394    2.533092
    128          1           0       12.872905    0.906659    1.261635
    129          1           0       11.949578    1.657239    0.061813
    130          1           0       12.611685    0.381654   -1.722352
    131          1           0       12.795079   -1.124069   -0.749242
    132          1           0       14.893586   -0.760444   -0.404398
    133          1           0       14.696889    0.826717    0.260659
    134          1           0       14.444375    0.594625   -2.698640
    135          1           0       16.678475   -0.362796   -1.353312
    136          1           0       17.176898    0.878181   -2.529678
    137          1           0       16.251906   -0.450981   -3.056586
    138          1           0       15.225493    2.796975   -0.938761
    139          1           0       14.113611    2.775924   -2.369545
    140          1           0       15.795438    2.701538   -2.675371
 ---------------------------------------------------------------------

 SCF Done:  E(RZINDO/S) =  -474.172249540     A.U. after   20 cycles

 Excitation energies and oscillator strengths:

 Excited State   1:      Singlet-A      1.2635 eV  981.24 nm  f=0.5968  <S**2>=0.000
     175 ->178         0.18647
     176 ->177         0.66308
 This state for optimization and/or second-order correction.
 Total Energy, E(CIS/TDA) =  -474.125814954
 Copying the excited state density for this state as the 1-particle RhoCI density.

 Excited State   2:      Singlet-A      1.8506 eV  669.96 nm  f=0.1384  <S**2>=0.000
     175 ->177         0.59849
     176 ->178        -0.34289

 Excited State   3:      Singlet-A      2.9637 eV  418.34 nm  f=0.0036  <S**2>=0.000
     168 ->177         0.30637
     168 ->178         0.18463
     168 ->179        -0.28222
     168 ->180        -0.26278
     168 ->181        -0.24037
     168 ->183         0.11819
     168 ->184        -0.13270
     168 ->185         0.23770
     168 ->187         0.13361

 Excited State   4:      Singlet-A      2.9827 eV  415.68 nm  f=0.0179  <S**2>=0.000
     169 ->177         0.23018
     169 ->179         0.31732
     169 ->181        -0.10354
     169 ->185        -0.14594
     171 ->177        -0.25562
     174 ->177         0.36248

 Excited State   5:      Singlet-A      2.9935 eV  414.17 nm  f=0.0403  <S**2>=0.000
     169 ->177        -0.16746
     169 ->179        -0.25337
     169 ->185         0.10971
     170 ->177         0.11105
     171 ->177        -0.31796
     172 ->177        -0.10922
     174 ->177         0.37816
     176 ->178        -0.14650
     176 ->179        -0.13422

 The electronic state is 1-A.
 Alpha  occ. eigenvalues --   -1.85133  -1.81878  -1.76685  -1.72463  -1.70902
 Alpha  occ. eigenvalues --   -1.68895  -1.67069  -1.62528  -1.60109  -1.57135
 Alpha  occ. eigenvalues --   -1.56845  -1.51338  -1.48328  -1.47363  -1.46209
 Alpha  occ. eigenvalues --   -1.42657  -1.41409  -1.39866  -1.39602  -1.38307
 Alpha  occ. eigenvalues --   -1.35626  -1.33845  -1.32123  -1.30321  -1.28729
 Alpha  occ. eigenvalues --   -1.27596  -1.25593  -1.23719  -1.20556  -1.17384
 Alpha  occ. eigenvalues --   -1.16970  -1.16435  -1.15646  -1.14030  -1.12898
 Alpha  occ. eigenvalues --   -1.11787  -1.10656  -1.09465  -1.05429  -1.03963
 Alpha  occ. eigenvalues --   -1.02155  -1.01757  -0.99447  -0.98678  -0.97845
 Alpha  occ. eigenvalues --   -0.96519  -0.95334  -0.93829  -0.93000  -0.90725
 Alpha  occ. eigenvalues --   -0.90098  -0.89560  -0.88522  -0.87395  -0.85293
 Alpha  occ. eigenvalues --   -0.85076  -0.84106  -0.83160  -0.81163  -0.79966
 Alpha  occ. eigenvalues --   -0.79182  -0.78321  -0.77249  -0.77048  -0.76335
 Alpha  occ. eigenvalues --   -0.75716  -0.75026  -0.74828  -0.74155  -0.73977
 Alpha  occ. eigenvalues --   -0.73497  -0.73066  -0.71777  -0.70883  -0.70551
 Alpha  occ. eigenvalues --   -0.69780  -0.69042  -0.68670  -0.68558  -0.67968
 Alpha  occ. eigenvalues --   -0.67217  -0.66762  -0.66305  -0.66132  -0.65320
 Alpha  occ. eigenvalues --   -0.64348  -0.64293  -0.63935  -0.63135  -0.62820
 Alpha  occ. eigenvalues --   -0.62535  -0.62321  -0.62079  -0.61656  -0.61572
 Alpha  occ. eigenvalues --   -0.61101  -0.61041  -0.60965  -0.60167  -0.59862
 Alpha  occ. eigenvalues --   -0.59246  -0.59191  -0.58907  -0.58163  -0.57909
 Alpha  occ. eigenvalues --   -0.57646  -0.57398  -0.57272  -0.56973  -0.56566
 Alpha  occ. eigenvalues --   -0.56143  -0.55977  -0.55774  -0.55247  -0.54695
 Alpha  occ. eigenvalues --   -0.54215  -0.53966  -0.53486  -0.53214  -0.52879
 Alpha  occ. eigenvalues --   -0.52610  -0.52209  -0.51929  -0.51616  -0.51470
 Alpha  occ. eigenvalues --   -0.50827  -0.50481  -0.50377  -0.50032  -0.49887
 Alpha  occ. eigenvalues --   -0.49798  -0.49680  -0.49584  -0.49300  -0.48759
 Alpha  occ. eigenvalues --   -0.48714  -0.48519  -0.48378  -0.48234  -0.47983
 Alpha  occ. eigenvalues --   -0.47437  -0.47040  -0.46930  -0.46859  -0.46354
 Alpha  occ. eigenvalues --   -0.46279  -0.46171  -0.45569  -0.45423  -0.45151
 Alpha  occ. eigenvalues --   -0.44880  -0.44782  -0.44635  -0.44470  -0.43737
 Alpha  occ. eigenvalues --   -0.43140  -0.43059  -0.42349  -0.41805  -0.41735
 Alpha  occ. eigenvalues --   -0.41523  -0.41342  -0.39462  -0.39245  -0.38440
 Alpha  occ. eigenvalues --   -0.38306  -0.37391  -0.35415  -0.34738  -0.34583
 Alpha  occ. eigenvalues --   -0.33320  -0.32777  -0.32363  -0.31823  -0.26508
 Alpha  occ. eigenvalues --   -0.22526
 Alpha virt. eigenvalues --   -0.09287  -0.02261  -0.00801   0.00968   0.01038
 Alpha virt. eigenvalues --    0.02961   0.03175   0.03286   0.04815   0.05088
 Alpha virt. eigenvalues --    0.06098   0.06592   0.07108   0.07638   0.08092

 Mulliken charges:
               1
     1  Mg   0.436673
     2  C   -0.053837
     3  C   -0.063580
     4  C   -0.067581
     5  C   -0.076583
     6  N   -0.287009
     7  C    0.110320
     8  C    0.001303
     9  C    0.000553
    10  C    0.138391
    11  C   -0.053170
    12  C   -0.026159
    13  C    0.007905
    14  C    0.467113
    15  O   -0.522946
    16  O   -0.277325
    17  N   -0.367793
    18  C    0.122507
    19  C    0.053551
    20  C   -0.049751
    21  C    0.137701
    22  C   -0.032394
    23  C    0.327197
    24  O   -0.532452
    25  C   -0.025163
    26  N   -0.252493
    27  C    0.158344
    28  C    0.002078
    29  C   -0.007335
    30  C    0.113322
    31  C   -0.048896
    32  C   -0.032063
    33  C   -0.059371
    34  N   -0.313147
    35  C    0.084352
    36  C    0.009009
    37  C   -0.052068
    38  C    0.101889
    39  C   -0.034434
    40  C    0.334228
    41  O   -0.510103
    42  C    0.074991
    43  C    0.496876
    44  O   -0.544875
    45  O   -0.281159
    46  C    0.070384
    47  C    0.102078
    48  C   -0.087705
    49  C   -0.023474
    50  C   -0.054466
    51  C   -0.025608
    52  C   -0.033946
    53  C   -0.034281
    54  C   -0.007253
    55  C   -0.062174
    56  C   -0.029398
    57  C   -0.043466
    58  C   -0.036474
    59  C   -0.031798
    60  C   -0.066037
    61  C   -0.039222
    62  C   -0.032723
    63  C   -0.032954
    64  C   -0.007986
    65  C   -0.057456
    66  C   -0.050098
    67  H    0.035057
    68  H    0.010634
    69  H    0.028701
    70  H    0.029992
    71  H    0.045814
    72  H    0.021302
    73  H    0.027548
    74  H    0.022994
    75  H    0.024090
    76  H    0.031544
    77  H    0.052592
    78  H    0.065920
    79  H    0.022689
    80  H    0.045873
    81  H    0.038374
    82  H    0.040733
    83  H    0.043566
    84  H    0.037926
    85  H    0.027176
    86  H    0.029445
    87  H    0.029643
    88  H    0.025322
    89  H    0.015564
    90  H    0.014386
    91  H    0.017621
    92  H    0.023536
    93  H    0.027992
    94  H    0.028287
    95  H    0.036069
    96  H    0.018605
    97  H    0.029173
    98  H    0.052209
    99  H    0.052478
   100  H    0.035676
   101  H    0.032424
   102  H    0.044449
   103  H    0.062539
   104  H    0.035669
   105  H    0.027244
   106  H    0.044117
   107  H    0.023378
   108  H    0.016410
   109  H    0.021421
   110  H    0.026192
   111  H    0.025870
   112  H    0.017231
   113  H    0.012868
   114  H    0.010092
   115  H    0.021198
   116  H    0.020325
   117  H    0.026630
   118  H    0.014275
   119  H    0.013656
   120  H    0.029270
   121  H    0.018465
   122  H    0.012630
   123  H    0.008390
   124  H    0.028075
   125  H    0.017102
   126  H    0.021794
   127  H    0.018306
   128  H    0.032379
   129  H    0.010833
   130  H    0.026449
   131  H    0.024254
   132  H    0.015148
   133  H    0.020104
   134  H    0.007587
   135  H    0.015444
   136  H    0.013619
   137  H    0.012810
   138  H    0.024051
   139  H    0.017574
   140  H    0.018639
 Sum of Mulliken charges =  -0.00000

 Dipole moment (field-independent basis, Debye):
    X=             -0.5494    Y=              4.7416    Z=              1.8908  Tot=              5.1342
 N-N= 4.368005540438D+03 E-N= 0.000000000000D+00  KE=-9.410692835709D+03
 Leave Link  601 at Wed May  4 11:13:19 2022, MaxMem=  6710886400 cpu:               0.8 elap:               0.0
 (Enter /sw/apps/gaussian-16.0/g16/l9999.exe)
 1\1\GINC-BP1-COMPUTE069\SP\RZINDO CIS\STO-3G\C55H74Mg1N4O6\OF15641\04-
 May-2022\0\\#p ZINDO=(nstates=5)\\step_1651_chromophore_11 ZINDO\\0,1\
 Mg,0,52.993,23.531,44.427\C,0,49.965,25.343,43.985\C,0,51.203,20.616,4
 3.507\C,0,55.84,21.854,44.33\C,0,54.758,26.509,44.793\N,0,50.803,23.07
 ,43.683\C,0,49.757,23.951,43.721\C,0,48.39,23.188,43.492\C,0,48.801,21
 .677,43.383\C,0,50.389,21.746,43.563\C,0,48.151,20.731,44.438\C,0,47.5
 46,23.761,42.28\C,0,48.165,23.874,40.825\C,0,47.702,22.826,39.819\O,0,

 Normal termination of Gaussian 16 at Wed May  4 11:13:19 2022.
