 Gaussian 16, Revision A.03,
 Gaussian 16:  ES64L-G16RevA.03 25-Dec-2016

 ------------------------------
 #p blyp/Def2SVP td=(nstates=5)
 ------------------------------

 ------------------------------------------------
 step_51_chromophore_9 TDDFT with blyp functional
 ------------------------------------------------
 Symbolic Z-matrix:
 Charge =  0 Multiplicity = 1

                         Standard orientation:
 ---------------------------------------------------------------------
 Center     Atomic      Atomic             Coordinates (Angstroms)
 Number     Number       Type             X           Y           Z
 ---------------------------------------------------------------------
      1         12           0       -5.055990    0.847238   -0.189468
      2          6           0       -3.803047   -2.467801   -0.276981
      3          6           0       -1.888862    1.991907   -0.492526
      4          6           0       -6.279467    3.944420    0.373183
      5          6           0       -8.245678   -0.478488    0.486140
      6          7           0       -3.156498   -0.123030   -0.371448
      7          6           0       -2.822262   -1.474478   -0.451235
      8          6           0       -1.361449   -1.687670   -0.569465
      9          6           0       -0.711576   -0.236155   -0.564030
     10          6           0       -1.996584    0.612755   -0.444697
     11          6           0        0.266246    0.040328    0.636070
     12          6           0       -1.021663   -2.538354   -1.887847
     13          6           0       -0.075765   -3.733328   -1.772485
     14          6           0        0.988493   -3.744404   -0.718519
     15          8           0        0.963190   -4.380708    0.306161
     16          8           0        2.120432   -3.015960   -1.133514
     17          7           0       -4.175752    2.735832   -0.021802
     18          6           0       -2.843783    2.996970   -0.267077
     19          6           0       -2.659901    4.432163   -0.313901
     20          6           0       -3.912145    4.980769   -0.068855
     21          6           0       -4.875950    3.865784    0.176066
     22          6           0       -1.346540    5.105867   -0.568856
     23          6           0       -4.316987    6.456859   -0.005805
     24          8           0       -5.460872    6.780360    0.312643
     25          6           0       -3.401797    7.583588   -0.305202
     26          7           0       -6.954634    1.621104    0.216813
     27          6           0       -7.232364    2.960991    0.304864
     28          6           0       -8.734220    3.182291    0.554150
     29          6           0       -9.383472    1.797676    0.386839
     30          6           0       -8.135072    0.901554    0.351105
     31          6           0       -9.086436    3.975422    1.781895
     32          6           0      -10.497128    1.411817   -0.648183
     33          6           0       -9.917762    0.797989   -2.038419
     34          7           0       -5.932941   -1.103194   -0.016202
     35          6           0       -7.236552   -1.460714    0.391022
     36          6           0       -7.287157   -2.880674    0.516498
     37          6           0       -5.960302   -3.307257    0.343406
     38          6           0       -5.169796   -2.196972   -0.113851
     39          6           0       -8.514802   -3.541873    1.070347
     40          6           0       -5.116164   -4.496639    0.512234
     41          8           0       -5.457805   -5.584294    0.997751
     42          6           0       -3.698144   -4.033524    0.029109
     43          6           0       -2.872562   -4.375307    1.209501
     44          8           0       -2.861425   -3.759740    2.273905
     45          8           0       -2.282389   -5.645923    0.991180
     46          6           0       -1.476228   -6.168847    2.123200
     47          6           0        3.294301   -3.152864   -0.288101
     48          6           0        4.313087   -2.164216   -0.891861
     49          6           0        5.482084   -2.506993   -1.501444
     50          6           0        5.915822   -3.869579   -1.815182
     51          6           0        6.514193   -1.452849   -1.679090
     52          6           0        7.032603   -1.320733   -3.179438
     53          6           0        8.485525   -0.966546   -3.258684
     54          6           0        8.704089    0.591787   -3.343652
     55          6           0        8.473985    1.092764   -4.768167
     56          6           0       10.059420    0.997869   -2.813069
     57          6           0        9.824429    1.346658   -1.364350
     58          6           0       11.260100    1.333043   -0.647623
     59          6           0       11.432527    2.621529    0.271005
     60          6           0       12.231729    3.769146   -0.468671
     61          6           0       12.024901    2.230548    1.629902
     62          6           0       11.056038    2.428715    2.775460
     63          6           0       10.261382    1.187190    3.234690
     64          6           0       10.922069    0.419286    4.414898
     65          6           0       10.921848   -1.060196    4.168247
     66          6           0       10.539232    1.008924    5.755404
     67          1           0       -0.869908    2.307174   -0.724205
     68          1           0       -6.658341    4.966790    0.437594
     69          1           0       -9.173910   -1.043889    0.587712
     70          1           0       -0.861592   -2.154532    0.278970
     71          1           0       -0.167686   -0.038197   -1.487961
     72          1           0        0.106511    1.007999    1.111763
     73          1           0        1.215368    0.121506    0.106683
     74          1           0        0.257179   -0.726383    1.410374
     75          1           0       -0.731246   -1.897270   -2.720192
     76          1           0       -1.983684   -3.005414   -2.097846
     77          1           0        0.264829   -3.868121   -2.799167
     78          1           0       -0.671644   -4.634560   -1.634456
     79          1           0       -1.288910    5.963408   -1.240312
     80          1           0       -0.691996    4.400154   -1.081563
     81          1           0       -1.003041    5.455784    0.404680
     82          1           0       -2.944307    7.411805   -1.278894
     83          1           0       -2.657496    7.605991    0.491363
     84          1           0       -3.950274    8.521450   -0.216840
     85          1           0       -9.005161    3.672379   -0.380794
     86          1           0       -9.912076    1.580427    1.314667
     87          1           0       -9.420139    4.973774    1.499483
     88          1           0       -8.270992    4.040907    2.501132
     89          1           0       -9.866443    3.456137    2.339599
     90          1           0      -11.162747    2.262331   -0.800327
     91          1           0      -11.045213    0.701716   -0.030244
     92          1           0       -8.850333    0.632345   -2.183185
     93          1           0      -10.320694    1.344919   -2.891729
     94          1           0      -10.250029   -0.221872   -2.229582
     95          1           0       -8.831344   -3.155605    2.039445
     96          1           0       -8.327958   -4.615549    1.094869
     97          1           0       -9.333693   -3.298210    0.393313
     98          1           0       -3.349453   -4.645408   -0.803958
     99          1           0       -2.032028   -6.709106    2.890040
    100          1           0       -0.910797   -5.381123    2.620874
    101          1           0       -0.620891   -6.730199    1.748404
    102          1           0        3.584785   -4.202587   -0.268243
    103          1           0        3.094780   -2.812400    0.727333
    104          1           0        4.257744   -1.107174   -0.630320
    105          1           0        5.788059   -4.088610   -2.875906
    106          1           0        5.327898   -4.596458   -1.253602
    107          1           0        6.934091   -4.011517   -1.455346
    108          1           0        7.342489   -1.706708   -1.017823
    109          1           0        6.116111   -0.500793   -1.328299
    110          1           0        6.455090   -0.496402   -3.597358
    111          1           0        6.734783   -2.243203   -3.675865
    112          1           0        8.896427   -1.382996   -4.177921
    113          1           0        9.035089   -1.431598   -2.440248
    114          1           0        7.838846    1.024622   -2.841549
    115          1           0        7.633249    1.786592   -4.774009
    116          1           0        8.249598    0.268558   -5.445439
    117          1           0        9.466670    1.493735   -4.973202
    118          1           0       10.539566    1.881586   -3.233261
    119          1           0       10.766118    0.168258   -2.774505
    120          1           0        9.153014    0.719510   -0.778355
    121          1           0        9.421195    2.358341   -1.328615
    122          1           0       11.986633    1.461220   -1.450466
    123          1           0       11.375760    0.358941   -0.173850
    124          1           0       10.463958    3.097008    0.421894
    125          1           0       13.298236    3.588834   -0.333234
    126          1           0       11.982663    4.783168   -0.154438
    127          1           0       12.072355    3.697626   -1.544574
    128          1           0       12.921988    2.826266    1.796169
    129          1           0       12.380856    1.203396    1.553961
    130          1           0       10.373648    3.233443    2.501993
    131          1           0       11.646543    2.795237    3.614958
    132          1           0       10.048250    0.539661    2.384550
    133          1           0        9.259975    1.455142    3.571994
    134          1           0       11.975171    0.669043    4.280518
    135          1           0       10.893310   -1.547468    5.143520
    136          1           0       11.793392   -1.376604    3.594737
    137          1           0       10.014423   -1.425237    3.687949
    138          1           0       11.480837    1.185419    6.274766
    139          1           0        9.950421    0.306855    6.346014
    140          1           0       10.072816    1.993119    5.785627
 ---------------------------------------------------------------------

 SCF Done:  E(RB-LYP) =  -3007.38674800     A.U. after   21 cycles

 Excitation energies and oscillator strengths:

 Excited State   1:      Singlet-A      1.7892 eV  692.94 nm  f=0.3121  <S**2>=0.000
     245 -> 248       -0.18593
     246 -> 247        0.69527
     246 <- 247       -0.15739
 This state for optimization and/or second-order correction.
 Total Energy, E(TD-HF/TD-DFT) =  -3007.32099446
 Copying the excited state density for this state as the 1-particle RhoCI density.

 Excited State   2:      Singlet-A      1.8798 eV  659.58 nm  f=0.0011  <S**2>=0.000
     244 -> 247        0.70119

 Excited State   3:      Singlet-A      1.9537 eV  634.63 nm  f=0.0016  <S**2>=0.000
     243 -> 247        0.70094

 Excited State   4:      Singlet-A      2.0468 eV  605.76 nm  f=0.0751  <S**2>=0.000
     242 -> 247        0.10225
     245 -> 247        0.63248
     246 -> 248        0.25906

 Excited State   5:      Singlet-A      2.4312 eV  509.97 nm  f=0.0072  <S**2>=0.000
     242 -> 247        0.68113

 The electronic state is 1-A.
 Alpha  occ. eigenvalues --  -46.26324 -18.81493 -18.80809 -18.77963 -18.76098
 Alpha  occ. eigenvalues --  -18.75662 -18.75185 -14.03698 -14.02919 -14.00938
 Alpha  occ. eigenvalues --  -13.99973 -10.04408 -10.03125  -9.99605  -9.99569
 Alpha  occ. eigenvalues --   -9.97988  -9.96869  -9.96378  -9.96345  -9.95853
 Alpha  occ. eigenvalues --   -9.95808  -9.95747  -9.95556  -9.94564  -9.94540
 Alpha  occ. eigenvalues --   -9.94251  -9.94113  -9.94092  -9.94026  -9.93853
 Alpha  occ. eigenvalues --   -9.93803  -9.93642  -9.93588  -9.93383  -9.93150
 Alpha  occ. eigenvalues --   -9.93021  -9.92902  -9.92765  -9.92690  -9.92515
 Alpha  occ. eigenvalues --   -9.92403  -9.92376  -9.92345  -9.92072  -9.92061
 Alpha  occ. eigenvalues --   -9.92026  -9.91979  -9.91931  -9.91890  -9.91799
 Alpha  occ. eigenvalues --   -9.91789  -9.91659  -9.91450  -9.91414  -9.91399
 Alpha  occ. eigenvalues --   -9.91213  -9.91184  -9.91142  -9.91047  -9.90910
 Alpha  occ. eigenvalues --   -9.90869  -9.90814  -9.90791  -9.90670  -9.90637
 Alpha  occ. eigenvalues --   -9.90486  -2.90988  -1.71431  -1.70835  -1.70720
 Alpha  occ. eigenvalues --   -0.97770  -0.95000  -0.91217  -0.90593  -0.90180
 Alpha  occ. eigenvalues --   -0.88125  -0.86041  -0.85323  -0.85071  -0.84240
 Alpha  occ. eigenvalues --   -0.74593  -0.74522  -0.73472  -0.72819  -0.72669
 Alpha  occ. eigenvalues --   -0.72101  -0.71587  -0.70959  -0.70838  -0.70557
 Alpha  occ. eigenvalues --   -0.69635  -0.69274  -0.68507  -0.67093  -0.66734
 Alpha  occ. eigenvalues --   -0.66366  -0.65789  -0.65236  -0.64615  -0.64338
 Alpha  occ. eigenvalues --   -0.64153  -0.62480  -0.62385  -0.61387  -0.61302
 Alpha  occ. eigenvalues --   -0.61006  -0.60051  -0.59733  -0.59456  -0.58920
 Alpha  occ. eigenvalues --   -0.58134  -0.57619  -0.56914  -0.56064  -0.55753
 Alpha  occ. eigenvalues --   -0.53593  -0.53382  -0.52418  -0.52224  -0.51314
 Alpha  occ. eigenvalues --   -0.51230  -0.50811  -0.50364  -0.50081  -0.49960
 Alpha  occ. eigenvalues --   -0.49497  -0.49263  -0.48582  -0.47017  -0.46689
 Alpha  occ. eigenvalues --   -0.46385  -0.45938  -0.45342  -0.45012  -0.44044
 Alpha  occ. eigenvalues --   -0.43660  -0.43567  -0.43359  -0.42751  -0.42170
 Alpha  occ. eigenvalues --   -0.42050  -0.41896  -0.41752  -0.41403  -0.41283
 Alpha  occ. eigenvalues --   -0.41010  -0.40675  -0.40637  -0.40256  -0.40113
 Alpha  occ. eigenvalues --   -0.39846  -0.39690  -0.39331  -0.39134  -0.39104
 Alpha  occ. eigenvalues --   -0.39073  -0.38811  -0.38431  -0.38320  -0.38157
 Alpha  occ. eigenvalues --   -0.38045  -0.37773  -0.37597  -0.37283  -0.37127
 Alpha  occ. eigenvalues --   -0.37083  -0.37072  -0.36474  -0.36353  -0.36122
 Alpha  occ. eigenvalues --   -0.36047  -0.35915  -0.35868  -0.35431  -0.35358
 Alpha  occ. eigenvalues --   -0.35169  -0.35001  -0.34969  -0.34847  -0.34537
 Alpha  occ. eigenvalues --   -0.34474  -0.34425  -0.34303  -0.34187  -0.33693
 Alpha  occ. eigenvalues --   -0.33567  -0.33346  -0.33283  -0.33138  -0.33100
 Alpha  occ. eigenvalues --   -0.32996  -0.32518  -0.32315  -0.32270  -0.31988
 Alpha  occ. eigenvalues --   -0.31877  -0.31787  -0.31668  -0.31541  -0.31438
 Alpha  occ. eigenvalues --   -0.31360  -0.31217  -0.31016  -0.30961  -0.30548
 Alpha  occ. eigenvalues --   -0.30432  -0.30318  -0.30013  -0.29739  -0.29573
 Alpha  occ. eigenvalues --   -0.29503  -0.29280  -0.29261  -0.28931  -0.28673
 Alpha  occ. eigenvalues --   -0.28667  -0.28371  -0.28327  -0.28135  -0.27895
 Alpha  occ. eigenvalues --   -0.27825  -0.27624  -0.27354  -0.26669  -0.26376
 Alpha  occ. eigenvalues --   -0.26218  -0.26038  -0.25947  -0.25329  -0.25252
 Alpha  occ. eigenvalues --   -0.25064  -0.24800  -0.23939  -0.23570  -0.23106
 Alpha  occ. eigenvalues --   -0.22979  -0.22733  -0.22136  -0.21124  -0.20841
 Alpha  occ. eigenvalues --   -0.20544  -0.19826  -0.18558  -0.18312  -0.17334
 Alpha  occ. eigenvalues --   -0.15634
 Alpha virt. eigenvalues --   -0.11486  -0.06550  -0.06043  -0.04569  -0.03823
 Alpha virt. eigenvalues --   -0.02690  -0.02189  -0.01982  -0.00956   0.00406
 Alpha virt. eigenvalues --    0.01406   0.01865   0.02354   0.02533   0.02671

 Mulliken charges:
               1
     1  Mg   0.683388
     2  C    0.022380
     3  C   -0.071962
     4  C   -0.050238
     5  C   -0.031459
     6  N   -0.236755
     7  C   -0.026008
     8  C    0.008704
     9  C   -0.034709
    10  C    0.030530
    11  C    0.106256
    12  C    0.094008
    13  C    0.160272
    14  C    0.080164
    15  O   -0.173720
    16  O   -0.298929
    17  N   -0.277769
    18  C    0.145252
    19  C   -0.121491
    20  C    0.040030
    21  C    0.081542
    22  C    0.154094
    23  C   -0.097428
    24  O   -0.175727
    25  C    0.160514
    26  N   -0.249727
    27  C    0.018063
    28  C    0.077312
    29  C    0.008265
    30  C    0.064307
    31  C    0.171150
    32  C    0.091616
    33  C    0.052367
    34  N   -0.257034
    35  C    0.028278
    36  C   -0.149434
    37  C    0.056595
    38  C    0.078525
    39  C    0.162506
    40  C   -0.031690
    41  O   -0.142309
    42  C    0.053971
    43  C    0.131352
    44  O   -0.188808
    45  O   -0.297921
    46  C    0.225324
    47  C    0.307319
    48  C   -0.058862
    49  C   -0.191208
    50  C    0.184489
    51  C    0.124065
    52  C    0.069592
    53  C    0.123504
    54  C   -0.115316
    55  C    0.141897
    56  C    0.140098
    57  C    0.001145
    58  C    0.094101
    59  C   -0.086968
    60  C    0.087477
    61  C    0.142864
    62  C    0.078867
    63  C    0.100036
    64  C   -0.097214
    65  C    0.122044
    66  C    0.136728
    67  H   -0.068635
    68  H   -0.043376
    69  H   -0.075158
    70  H    0.010924
    71  H   -0.015630
    72  H   -0.003825
    73  H   -0.007012
    74  H    0.013309
    75  H   -0.011953
    76  H   -0.016893
    77  H   -0.011690
    78  H   -0.005472
    79  H   -0.011233
    80  H   -0.007894
    81  H    0.013066
    82  H    0.012712
    83  H   -0.000282
    84  H   -0.006901
    85  H   -0.033462
    86  H   -0.040811
    87  H    0.003374
    88  H   -0.003146
    89  H   -0.020247
    90  H   -0.016479
    91  H   -0.011145
    92  H    0.014337
    93  H   -0.009062
    94  H   -0.018990
    95  H    0.009346
    96  H    0.008969
    97  H   -0.006877
    98  H    0.000058
    99  H    0.020796
   100  H    0.003405
   101  H    0.006250
   102  H   -0.008005
   103  H   -0.006070
   104  H   -0.041681
   105  H    0.016885
   106  H   -0.031825
   107  H   -0.010313
   108  H   -0.015307
   109  H   -0.038081
   110  H   -0.030476
   111  H   -0.033546
   112  H   -0.042290
   113  H   -0.041210
   114  H   -0.038202
   115  H   -0.012539
   116  H   -0.026723
   117  H   -0.023737
   118  H   -0.023160
   119  H   -0.024243
   120  H   -0.019836
   121  H   -0.029533
   122  H   -0.036349
   123  H   -0.019249
   124  H   -0.030304
   125  H   -0.017619
   126  H   -0.008010
   127  H   -0.024207
   128  H   -0.051727
   129  H   -0.041286
   130  H   -0.040288
   131  H   -0.041852
   132  H   -0.048184
   133  H   -0.047184
   134  H   -0.041522
   135  H   -0.035216
   136  H   -0.006771
   137  H   -0.021588
   138  H   -0.023851
   139  H   -0.017873
   140  H   -0.015709
 Sum of Mulliken charges =  -0.00000

 Dipole moment (field-independent basis, Debye):
    X=              4.1076    Y=              3.1301    Z=             -3.7739  Tot=              6.3963
 Quadrupole moment (field-independent basis, Debye-Ang):
   XX=           -373.5267   YY=           -432.8598   ZZ=           -406.0735
   XY=            -15.6083   XZ=             10.0816   YZ=              8.2778

 Normal termination of Gaussian 16 at Thu May  5 03:37:56 2022.
