 Gaussian 16, Revision A.03,
 Gaussian 16:  ES64L-G16RevA.03 25-Dec-2016

 -----------------------------------
 #p cam-b3lyp/Def2SVP td=(nstates=5)
 -----------------------------------

 -----------------------------------------------------
 step_51_chromophore_9 TDDFT with cam-b3lyp functional
 -----------------------------------------------------
 Symbolic Z-matrix:
 Charge =  0 Multiplicity = 1

                         Standard orientation:
 ---------------------------------------------------------------------
 Center     Atomic      Atomic             Coordinates (Angstroms)
 Number     Number       Type             X           Y           Z
 ---------------------------------------------------------------------
      1         12           0       -5.055990    0.847238   -0.189468
      2          6           0       -3.803047   -2.467801   -0.276981
      3          6           0       -1.888862    1.991907   -0.492526
      4          6           0       -6.279467    3.944420    0.373183
      5          6           0       -8.245678   -0.478488    0.486140
      6          7           0       -3.156498   -0.123030   -0.371448
      7          6           0       -2.822262   -1.474478   -0.451235
      8          6           0       -1.361449   -1.687670   -0.569465
      9          6           0       -0.711576   -0.236155   -0.564030
     10          6           0       -1.996584    0.612755   -0.444697
     11          6           0        0.266246    0.040328    0.636070
     12          6           0       -1.021663   -2.538354   -1.887847
     13          6           0       -0.075765   -3.733328   -1.772485
     14          6           0        0.988493   -3.744404   -0.718519
     15          8           0        0.963190   -4.380708    0.306161
     16          8           0        2.120432   -3.015960   -1.133514
     17          7           0       -4.175752    2.735832   -0.021802
     18          6           0       -2.843783    2.996970   -0.267077
     19          6           0       -2.659901    4.432163   -0.313901
     20          6           0       -3.912145    4.980769   -0.068855
     21          6           0       -4.875950    3.865784    0.176066
     22          6           0       -1.346540    5.105867   -0.568856
     23          6           0       -4.316987    6.456859   -0.005805
     24          8           0       -5.460872    6.780360    0.312643
     25          6           0       -3.401797    7.583588   -0.305202
     26          7           0       -6.954634    1.621104    0.216813
     27          6           0       -7.232364    2.960991    0.304864
     28          6           0       -8.734220    3.182291    0.554150
     29          6           0       -9.383472    1.797676    0.386839
     30          6           0       -8.135072    0.901554    0.351105
     31          6           0       -9.086436    3.975422    1.781895
     32          6           0      -10.497128    1.411817   -0.648183
     33          6           0       -9.917762    0.797989   -2.038419
     34          7           0       -5.932941   -1.103194   -0.016202
     35          6           0       -7.236552   -1.460714    0.391022
     36          6           0       -7.287157   -2.880674    0.516498
     37          6           0       -5.960302   -3.307257    0.343406
     38          6           0       -5.169796   -2.196972   -0.113851
     39          6           0       -8.514802   -3.541873    1.070347
     40          6           0       -5.116164   -4.496639    0.512234
     41          8           0       -5.457805   -5.584294    0.997751
     42          6           0       -3.698144   -4.033524    0.029109
     43          6           0       -2.872562   -4.375307    1.209501
     44          8           0       -2.861425   -3.759740    2.273905
     45          8           0       -2.282389   -5.645923    0.991180
     46          6           0       -1.476228   -6.168847    2.123200
     47          6           0        3.294301   -3.152864   -0.288101
     48          6           0        4.313087   -2.164216   -0.891861
     49          6           0        5.482084   -2.506993   -1.501444
     50          6           0        5.915822   -3.869579   -1.815182
     51          6           0        6.514193   -1.452849   -1.679090
     52          6           0        7.032603   -1.320733   -3.179438
     53          6           0        8.485525   -0.966546   -3.258684
     54          6           0        8.704089    0.591787   -3.343652
     55          6           0        8.473985    1.092764   -4.768167
     56          6           0       10.059420    0.997869   -2.813069
     57          6           0        9.824429    1.346658   -1.364350
     58          6           0       11.260100    1.333043   -0.647623
     59          6           0       11.432527    2.621529    0.271005
     60          6           0       12.231729    3.769146   -0.468671
     61          6           0       12.024901    2.230548    1.629902
     62          6           0       11.056038    2.428715    2.775460
     63          6           0       10.261382    1.187190    3.234690
     64          6           0       10.922069    0.419286    4.414898
     65          6           0       10.921848   -1.060196    4.168247
     66          6           0       10.539232    1.008924    5.755404
     67          1           0       -0.869908    2.307174   -0.724205
     68          1           0       -6.658341    4.966790    0.437594
     69          1           0       -9.173910   -1.043889    0.587712
     70          1           0       -0.861592   -2.154532    0.278970
     71          1           0       -0.167686   -0.038197   -1.487961
     72          1           0        0.106511    1.007999    1.111763
     73          1           0        1.215368    0.121506    0.106683
     74          1           0        0.257179   -0.726383    1.410374
     75          1           0       -0.731246   -1.897270   -2.720192
     76          1           0       -1.983684   -3.005414   -2.097846
     77          1           0        0.264829   -3.868121   -2.799167
     78          1           0       -0.671644   -4.634560   -1.634456
     79          1           0       -1.288910    5.963408   -1.240312
     80          1           0       -0.691996    4.400154   -1.081563
     81          1           0       -1.003041    5.455784    0.404680
     82          1           0       -2.944307    7.411805   -1.278894
     83          1           0       -2.657496    7.605991    0.491363
     84          1           0       -3.950274    8.521450   -0.216840
     85          1           0       -9.005161    3.672379   -0.380794
     86          1           0       -9.912076    1.580427    1.314667
     87          1           0       -9.420139    4.973774    1.499483
     88          1           0       -8.270992    4.040907    2.501132
     89          1           0       -9.866443    3.456137    2.339599
     90          1           0      -11.162747    2.262331   -0.800327
     91          1           0      -11.045213    0.701716   -0.030244
     92          1           0       -8.850333    0.632345   -2.183185
     93          1           0      -10.320694    1.344919   -2.891729
     94          1           0      -10.250029   -0.221872   -2.229582
     95          1           0       -8.831344   -3.155605    2.039445
     96          1           0       -8.327958   -4.615549    1.094869
     97          1           0       -9.333693   -3.298210    0.393313
     98          1           0       -3.349453   -4.645408   -0.803958
     99          1           0       -2.032028   -6.709106    2.890040
    100          1           0       -0.910797   -5.381123    2.620874
    101          1           0       -0.620891   -6.730199    1.748404
    102          1           0        3.584785   -4.202587   -0.268243
    103          1           0        3.094780   -2.812400    0.727333
    104          1           0        4.257744   -1.107174   -0.630320
    105          1           0        5.788059   -4.088610   -2.875906
    106          1           0        5.327898   -4.596458   -1.253602
    107          1           0        6.934091   -4.011517   -1.455346
    108          1           0        7.342489   -1.706708   -1.017823
    109          1           0        6.116111   -0.500793   -1.328299
    110          1           0        6.455090   -0.496402   -3.597358
    111          1           0        6.734783   -2.243203   -3.675865
    112          1           0        8.896427   -1.382996   -4.177921
    113          1           0        9.035089   -1.431598   -2.440248
    114          1           0        7.838846    1.024622   -2.841549
    115          1           0        7.633249    1.786592   -4.774009
    116          1           0        8.249598    0.268558   -5.445439
    117          1           0        9.466670    1.493735   -4.973202
    118          1           0       10.539566    1.881586   -3.233261
    119          1           0       10.766118    0.168258   -2.774505
    120          1           0        9.153014    0.719510   -0.778355
    121          1           0        9.421195    2.358341   -1.328615
    122          1           0       11.986633    1.461220   -1.450466
    123          1           0       11.375760    0.358941   -0.173850
    124          1           0       10.463958    3.097008    0.421894
    125          1           0       13.298236    3.588834   -0.333234
    126          1           0       11.982663    4.783168   -0.154438
    127          1           0       12.072355    3.697626   -1.544574
    128          1           0       12.921988    2.826266    1.796169
    129          1           0       12.380856    1.203396    1.553961
    130          1           0       10.373648    3.233443    2.501993
    131          1           0       11.646543    2.795237    3.614958
    132          1           0       10.048250    0.539661    2.384550
    133          1           0        9.259975    1.455142    3.571994
    134          1           0       11.975171    0.669043    4.280518
    135          1           0       10.893310   -1.547468    5.143520
    136          1           0       11.793392   -1.376604    3.594737
    137          1           0       10.014423   -1.425237    3.687949
    138          1           0       11.480837    1.185419    6.274766
    139          1           0        9.950421    0.306855    6.346014
    140          1           0       10.072816    1.993119    5.785627
 ---------------------------------------------------------------------

 SCF Done:  E(RCAM-B3LYP) =  -3007.18079243     A.U. after   16 cycles

 Excitation energies and oscillator strengths:

 Excited State   1:      Singlet-A      1.6660 eV  744.19 nm  f=0.3862  <S**2>=0.000
     245 -> 248       -0.17169
     246 -> 247        0.68914
     245 <- 248       -0.10892
 This state for optimization and/or second-order correction.
 Total Energy, E(TD-HF/TD-DFT) =  -3007.11956713
 Copying the excited state density for this state as the 1-particle RhoCI density.

 Excited State   2:      Singlet-A      2.2508 eV  550.86 nm  f=0.1060  <S**2>=0.000
     245 -> 247        0.63563
     246 -> 248        0.29811

 Excited State   3:      Singlet-A      3.2506 eV  381.41 nm  f=0.0004  <S**2>=0.000
     244 -> 247        0.67965

 Excited State   4:      Singlet-A      3.4716 eV  357.14 nm  f=0.0059  <S**2>=0.000
     241 -> 247        0.47606
     241 -> 249       -0.28969
     241 -> 250       -0.15108
     242 -> 247       -0.34107

 Excited State   5:      Singlet-A      3.5253 eV  351.70 nm  f=0.3633  <S**2>=0.000
     241 -> 247       -0.19858
     242 -> 247       -0.36956
     245 -> 247       -0.20729
     246 -> 248        0.51162

 The electronic state is 1-A.
 Alpha  occ. eigenvalues --  -46.87810 -19.24342 -19.23749 -19.21033 -19.19264
 Alpha  occ. eigenvalues --  -19.18796 -19.18504 -14.42697 -14.41703 -14.39465
 Alpha  occ. eigenvalues --  -14.38275 -10.39775 -10.38725 -10.34958 -10.34847
 Alpha  occ. eigenvalues --  -10.32093 -10.31341 -10.30896 -10.30669 -10.30310
 Alpha  occ. eigenvalues --  -10.30284 -10.30008 -10.29769 -10.28993 -10.28616
 Alpha  occ. eigenvalues --  -10.28467 -10.28360 -10.28324 -10.28184 -10.28177
 Alpha  occ. eigenvalues --  -10.27827 -10.27542 -10.27531 -10.27416 -10.27048
 Alpha  occ. eigenvalues --  -10.27031 -10.26985 -10.26975 -10.26880 -10.26815
 Alpha  occ. eigenvalues --  -10.26318 -10.26156 -10.26098 -10.25998 -10.25983
 Alpha  occ. eigenvalues --  -10.25828 -10.25652 -10.25628 -10.25597 -10.25484
 Alpha  occ. eigenvalues --  -10.25395 -10.25374 -10.25355 -10.25135 -10.25069
 Alpha  occ. eigenvalues --  -10.24964 -10.24868 -10.24787 -10.24778 -10.24761
 Alpha  occ. eigenvalues --  -10.24481 -10.24457 -10.24449 -10.24335 -10.24226
 Alpha  occ. eigenvalues --  -10.24125  -3.16382  -1.91301  -1.90817  -1.90698
 Alpha  occ. eigenvalues --   -1.16289  -1.13547  -1.09723  -1.08472  -1.08455
 Alpha  occ. eigenvalues --   -1.06018  -1.03796  -1.02981  -1.02623  -1.01663
 Alpha  occ. eigenvalues --   -0.91613  -0.91535  -0.90319  -0.89611  -0.89438
 Alpha  occ. eigenvalues --   -0.88849  -0.88171  -0.87565  -0.87461  -0.87220
 Alpha  occ. eigenvalues --   -0.86087  -0.85655  -0.84819  -0.83302  -0.82826
 Alpha  occ. eigenvalues --   -0.82439  -0.82064  -0.81127  -0.80520  -0.80138
 Alpha  occ. eigenvalues --   -0.79931  -0.78319  -0.78015  -0.76810  -0.76696
 Alpha  occ. eigenvalues --   -0.76422  -0.75350  -0.75026  -0.74753  -0.74192
 Alpha  occ. eigenvalues --   -0.73196  -0.72600  -0.71795  -0.70796  -0.70536
 Alpha  occ. eigenvalues --   -0.68230  -0.68001  -0.66868  -0.66612  -0.65589
 Alpha  occ. eigenvalues --   -0.65402  -0.64992  -0.64191  -0.64168  -0.63858
 Alpha  occ. eigenvalues --   -0.63294  -0.63218  -0.62457  -0.60681  -0.60305
 Alpha  occ. eigenvalues --   -0.60026  -0.59435  -0.58785  -0.58304  -0.57441
 Alpha  occ. eigenvalues --   -0.57002  -0.56869  -0.56838  -0.55919  -0.55240
 Alpha  occ. eigenvalues --   -0.55086  -0.54786  -0.54677  -0.54519  -0.54066
 Alpha  occ. eigenvalues --   -0.53894  -0.53468  -0.53428  -0.53122  -0.52951
 Alpha  occ. eigenvalues --   -0.52508  -0.52331  -0.52304  -0.52032  -0.51791
 Alpha  occ. eigenvalues --   -0.51606  -0.51426  -0.50961  -0.50636  -0.50610
 Alpha  occ. eigenvalues --   -0.50442  -0.50334  -0.49828  -0.49676  -0.49507
 Alpha  occ. eigenvalues --   -0.49500  -0.49248  -0.48851  -0.48657  -0.48497
 Alpha  occ. eigenvalues --   -0.48329  -0.48116  -0.48047  -0.47724  -0.47539
 Alpha  occ. eigenvalues --   -0.47354  -0.47106  -0.46975  -0.46782  -0.46511
 Alpha  occ. eigenvalues --   -0.46338  -0.46267  -0.46148  -0.45940  -0.45518
 Alpha  occ. eigenvalues --   -0.45415  -0.45124  -0.44973  -0.44857  -0.44764
 Alpha  occ. eigenvalues --   -0.44686  -0.44412  -0.44160  -0.43921  -0.43657
 Alpha  occ. eigenvalues --   -0.43486  -0.43310  -0.43231  -0.43158  -0.42896
 Alpha  occ. eigenvalues --   -0.42734  -0.42568  -0.42523  -0.42438  -0.42049
 Alpha  occ. eigenvalues --   -0.41942  -0.41637  -0.41531  -0.41211  -0.40883
 Alpha  occ. eigenvalues --   -0.40675  -0.40537  -0.40357  -0.40172  -0.40042
 Alpha  occ. eigenvalues --   -0.39659  -0.39629  -0.39346  -0.39285  -0.38900
 Alpha  occ. eigenvalues --   -0.38736  -0.38567  -0.38189  -0.37435  -0.37269
 Alpha  occ. eigenvalues --   -0.37097  -0.36819  -0.36755  -0.36637  -0.36360
 Alpha  occ. eigenvalues --   -0.35688  -0.35570  -0.35347  -0.35110  -0.34004
 Alpha  occ. eigenvalues --   -0.33540  -0.33060  -0.32825  -0.31474  -0.30745
 Alpha  occ. eigenvalues --   -0.30493  -0.30224  -0.30203  -0.28918  -0.24154
 Alpha  occ. eigenvalues --   -0.20844
 Alpha virt. eigenvalues --   -0.08612  -0.01355   0.00531   0.02391   0.03309
 Alpha virt. eigenvalues --    0.03849   0.04672   0.05486   0.05772   0.06925
 Alpha virt. eigenvalues --    0.08223   0.08521   0.08666   0.08946   0.09163

 Mulliken charges:
               1
     1  Mg   0.817741
     2  C    0.000299
     3  C   -0.086201
     4  C   -0.073199
     5  C   -0.041765
     6  N   -0.307798
     7  C    0.009404
     8  C   -0.046254
     9  C   -0.079112
    10  C    0.047504
    11  C    0.051108
    12  C    0.048471
    13  C    0.089336
    14  C    0.156118
    15  O   -0.213425
    16  O   -0.361379
    17  N   -0.366548
    18  C    0.154095
    19  C   -0.129892
    20  C   -0.030426
    21  C    0.111545
    22  C    0.100912
    23  C   -0.015922
    24  O   -0.217657
    25  C    0.077852
    26  N   -0.324062
    27  C    0.047422
    28  C    0.010651
    29  C   -0.031008
    30  C    0.072768
    31  C    0.103227
    32  C    0.038553
    33  C   -0.011183
    34  N   -0.342424
    35  C    0.037048
    36  C   -0.143800
    37  C   -0.020839
    38  C    0.115291
    39  C    0.104663
    40  C    0.062887
    41  O   -0.181071
    42  C   -0.016031
    43  C    0.216846
    44  O   -0.223342
    45  O   -0.361924
    46  C    0.187553
    47  C    0.271839
    48  C   -0.079472
    49  C   -0.204882
    50  C    0.116364
    51  C    0.070036
    52  C    0.009679
    53  C    0.069718
    54  C   -0.170422
    55  C    0.082513
    56  C    0.079080
    57  C   -0.041595
    58  C    0.039854
    59  C   -0.141211
    60  C    0.034864
    61  C    0.086471
    62  C    0.020073
    63  C    0.047026
    64  C   -0.156796
    65  C    0.062740
    66  C    0.071713
    67  H   -0.033476
    68  H   -0.000694
    69  H   -0.039516
    70  H    0.040027
    71  H    0.018537
    72  H    0.022333
    73  H    0.015226
    74  H    0.037273
    75  H    0.017750
    76  H    0.013496
    77  H    0.024776
    78  H    0.026039
    79  H    0.016743
    80  H    0.018553
    81  H    0.040151
    82  H    0.037868
    83  H    0.027517
    84  H    0.029807
    85  H    0.003247
    86  H   -0.003964
    87  H    0.027612
    88  H    0.023925
    89  H    0.005480
    90  H    0.011892
    91  H    0.014925
    92  H    0.036643
    93  H    0.014924
    94  H    0.005139
    95  H    0.035461
    96  H    0.037108
    97  H    0.016068
    98  H    0.042070
    99  H    0.042922
   100  H    0.027771
   101  H    0.029131
   102  H    0.020843
   103  H    0.022160
   104  H   -0.010231
   105  H    0.041000
   106  H   -0.005317
   107  H    0.015202
   108  H    0.011293
   109  H   -0.009189
   110  H   -0.001759
   111  H   -0.003619
   112  H   -0.011318
   113  H   -0.013021
   114  H   -0.007108
   115  H    0.011129
   116  H   -0.001589
   117  H    0.001446
   118  H    0.005164
   119  H    0.004749
   120  H    0.004051
   121  H   -0.002094
   122  H   -0.007273
   123  H    0.007517
   124  H   -0.000861
   125  H    0.005226
   126  H    0.016064
   127  H   -0.002276
   128  H   -0.019346
   129  H   -0.013470
   130  H   -0.010528
   131  H   -0.012819
   132  H   -0.021300
   133  H   -0.016515
   134  H   -0.009656
   135  H   -0.009307
   136  H    0.016706
   137  H    0.002291
   138  H    0.001017
   139  H    0.006528
   140  H    0.009820
 Sum of Mulliken charges =  -0.00000

 Dipole moment (field-independent basis, Debye):
    X=              4.6071    Y=              3.6953    Z=             -3.9797  Tot=              7.1218
 Quadrupole moment (field-independent basis, Debye-Ang):
   XX=           -375.0970   YY=           -428.2840   ZZ=           -406.2366
   XY=            -17.2148   XZ=             10.7451   YZ=              8.2528

 Normal termination of Gaussian 16 at Thu May  5 02:30:14 2022.
