 Gaussian 16, Revision A.03,
 Gaussian 16:  ES64L-G16RevA.03 25-Dec-2016

 ---------------------------------
 #p PBE1PBE/Def2SVP td=(nstates=5)
 ---------------------------------

 ---------------------------------------------------
 step_51_chromophore_9 TDDFT with PBE1PBE functional
 ---------------------------------------------------
 Symbolic Z-matrix:
 Charge =  0 Multiplicity = 1

                         Standard orientation:
 ---------------------------------------------------------------------
 Center     Atomic      Atomic             Coordinates (Angstroms)
 Number     Number       Type             X           Y           Z
 ---------------------------------------------------------------------
      1         12           0       -5.055990    0.847238   -0.189468
      2          6           0       -3.803047   -2.467801   -0.276981
      3          6           0       -1.888862    1.991907   -0.492526
      4          6           0       -6.279467    3.944420    0.373183
      5          6           0       -8.245678   -0.478488    0.486140
      6          7           0       -3.156498   -0.123030   -0.371448
      7          6           0       -2.822262   -1.474478   -0.451235
      8          6           0       -1.361449   -1.687670   -0.569465
      9          6           0       -0.711576   -0.236155   -0.564030
     10          6           0       -1.996584    0.612755   -0.444697
     11          6           0        0.266246    0.040328    0.636070
     12          6           0       -1.021663   -2.538354   -1.887847
     13          6           0       -0.075765   -3.733328   -1.772485
     14          6           0        0.988493   -3.744404   -0.718519
     15          8           0        0.963190   -4.380708    0.306161
     16          8           0        2.120432   -3.015960   -1.133514
     17          7           0       -4.175752    2.735832   -0.021802
     18          6           0       -2.843783    2.996970   -0.267077
     19          6           0       -2.659901    4.432163   -0.313901
     20          6           0       -3.912145    4.980769   -0.068855
     21          6           0       -4.875950    3.865784    0.176066
     22          6           0       -1.346540    5.105867   -0.568856
     23          6           0       -4.316987    6.456859   -0.005805
     24          8           0       -5.460872    6.780360    0.312643
     25          6           0       -3.401797    7.583588   -0.305202
     26          7           0       -6.954634    1.621104    0.216813
     27          6           0       -7.232364    2.960991    0.304864
     28          6           0       -8.734220    3.182291    0.554150
     29          6           0       -9.383472    1.797676    0.386839
     30          6           0       -8.135072    0.901554    0.351105
     31          6           0       -9.086436    3.975422    1.781895
     32          6           0      -10.497128    1.411817   -0.648183
     33          6           0       -9.917762    0.797989   -2.038419
     34          7           0       -5.932941   -1.103194   -0.016202
     35          6           0       -7.236552   -1.460714    0.391022
     36          6           0       -7.287157   -2.880674    0.516498
     37          6           0       -5.960302   -3.307257    0.343406
     38          6           0       -5.169796   -2.196972   -0.113851
     39          6           0       -8.514802   -3.541873    1.070347
     40          6           0       -5.116164   -4.496639    0.512234
     41          8           0       -5.457805   -5.584294    0.997751
     42          6           0       -3.698144   -4.033524    0.029109
     43          6           0       -2.872562   -4.375307    1.209501
     44          8           0       -2.861425   -3.759740    2.273905
     45          8           0       -2.282389   -5.645923    0.991180
     46          6           0       -1.476228   -6.168847    2.123200
     47          6           0        3.294301   -3.152864   -0.288101
     48          6           0        4.313087   -2.164216   -0.891861
     49          6           0        5.482084   -2.506993   -1.501444
     50          6           0        5.915822   -3.869579   -1.815182
     51          6           0        6.514193   -1.452849   -1.679090
     52          6           0        7.032603   -1.320733   -3.179438
     53          6           0        8.485525   -0.966546   -3.258684
     54          6           0        8.704089    0.591787   -3.343652
     55          6           0        8.473985    1.092764   -4.768167
     56          6           0       10.059420    0.997869   -2.813069
     57          6           0        9.824429    1.346658   -1.364350
     58          6           0       11.260100    1.333043   -0.647623
     59          6           0       11.432527    2.621529    0.271005
     60          6           0       12.231729    3.769146   -0.468671
     61          6           0       12.024901    2.230548    1.629902
     62          6           0       11.056038    2.428715    2.775460
     63          6           0       10.261382    1.187190    3.234690
     64          6           0       10.922069    0.419286    4.414898
     65          6           0       10.921848   -1.060196    4.168247
     66          6           0       10.539232    1.008924    5.755404
     67          1           0       -0.869908    2.307174   -0.724205
     68          1           0       -6.658341    4.966790    0.437594
     69          1           0       -9.173910   -1.043889    0.587712
     70          1           0       -0.861592   -2.154532    0.278970
     71          1           0       -0.167686   -0.038197   -1.487961
     72          1           0        0.106511    1.007999    1.111763
     73          1           0        1.215368    0.121506    0.106683
     74          1           0        0.257179   -0.726383    1.410374
     75          1           0       -0.731246   -1.897270   -2.720192
     76          1           0       -1.983684   -3.005414   -2.097846
     77          1           0        0.264829   -3.868121   -2.799167
     78          1           0       -0.671644   -4.634560   -1.634456
     79          1           0       -1.288910    5.963408   -1.240312
     80          1           0       -0.691996    4.400154   -1.081563
     81          1           0       -1.003041    5.455784    0.404680
     82          1           0       -2.944307    7.411805   -1.278894
     83          1           0       -2.657496    7.605991    0.491363
     84          1           0       -3.950274    8.521450   -0.216840
     85          1           0       -9.005161    3.672379   -0.380794
     86          1           0       -9.912076    1.580427    1.314667
     87          1           0       -9.420139    4.973774    1.499483
     88          1           0       -8.270992    4.040907    2.501132
     89          1           0       -9.866443    3.456137    2.339599
     90          1           0      -11.162747    2.262331   -0.800327
     91          1           0      -11.045213    0.701716   -0.030244
     92          1           0       -8.850333    0.632345   -2.183185
     93          1           0      -10.320694    1.344919   -2.891729
     94          1           0      -10.250029   -0.221872   -2.229582
     95          1           0       -8.831344   -3.155605    2.039445
     96          1           0       -8.327958   -4.615549    1.094869
     97          1           0       -9.333693   -3.298210    0.393313
     98          1           0       -3.349453   -4.645408   -0.803958
     99          1           0       -2.032028   -6.709106    2.890040
    100          1           0       -0.910797   -5.381123    2.620874
    101          1           0       -0.620891   -6.730199    1.748404
    102          1           0        3.584785   -4.202587   -0.268243
    103          1           0        3.094780   -2.812400    0.727333
    104          1           0        4.257744   -1.107174   -0.630320
    105          1           0        5.788059   -4.088610   -2.875906
    106          1           0        5.327898   -4.596458   -1.253602
    107          1           0        6.934091   -4.011517   -1.455346
    108          1           0        7.342489   -1.706708   -1.017823
    109          1           0        6.116111   -0.500793   -1.328299
    110          1           0        6.455090   -0.496402   -3.597358
    111          1           0        6.734783   -2.243203   -3.675865
    112          1           0        8.896427   -1.382996   -4.177921
    113          1           0        9.035089   -1.431598   -2.440248
    114          1           0        7.838846    1.024622   -2.841549
    115          1           0        7.633249    1.786592   -4.774009
    116          1           0        8.249598    0.268558   -5.445439
    117          1           0        9.466670    1.493735   -4.973202
    118          1           0       10.539566    1.881586   -3.233261
    119          1           0       10.766118    0.168258   -2.774505
    120          1           0        9.153014    0.719510   -0.778355
    121          1           0        9.421195    2.358341   -1.328615
    122          1           0       11.986633    1.461220   -1.450466
    123          1           0       11.375760    0.358941   -0.173850
    124          1           0       10.463958    3.097008    0.421894
    125          1           0       13.298236    3.588834   -0.333234
    126          1           0       11.982663    4.783168   -0.154438
    127          1           0       12.072355    3.697626   -1.544574
    128          1           0       12.921988    2.826266    1.796169
    129          1           0       12.380856    1.203396    1.553961
    130          1           0       10.373648    3.233443    2.501993
    131          1           0       11.646543    2.795237    3.614958
    132          1           0       10.048250    0.539661    2.384550
    133          1           0        9.259975    1.455142    3.571994
    134          1           0       11.975171    0.669043    4.280518
    135          1           0       10.893310   -1.547468    5.143520
    136          1           0       11.793392   -1.376604    3.594737
    137          1           0       10.014423   -1.425237    3.687949
    138          1           0       11.480837    1.185419    6.274766
    139          1           0        9.950421    0.306855    6.346014
    140          1           0       10.072816    1.993119    5.785627
 ---------------------------------------------------------------------

 SCF Done:  E(RPBE1PBE) =  -3005.36937747     A.U. after   15 cycles

 Excitation energies and oscillator strengths:

 Excited State   1:      Singlet-A      1.8263 eV  678.89 nm  f=0.3743  <S**2>=0.000
     245 -> 248       -0.16522
     246 -> 247        0.69687
     246 <- 247       -0.11467
 This state for optimization and/or second-order correction.
 Total Energy, E(TD-HF/TD-DFT) =  -3005.30226344
 Copying the excited state density for this state as the 1-particle RhoCI density.

 Excited State   2:      Singlet-A      2.2591 eV  548.81 nm  f=0.1046  <S**2>=0.000
     245 -> 247        0.64594
     246 -> 248        0.27365

 Excited State   3:      Singlet-A      2.8930 eV  428.56 nm  f=0.0049  <S**2>=0.000
     242 -> 247       -0.19503
     243 -> 247        0.10701
     244 -> 247        0.65194

 Excited State   4:      Singlet-A      3.0000 eV  413.28 nm  f=0.0002  <S**2>=0.000
     242 -> 247        0.48423
     242 -> 249       -0.12804
     243 -> 247       -0.41874
     244 -> 247        0.23487

 Excited State   5:      Singlet-A      3.0280 eV  409.45 nm  f=0.0008  <S**2>=0.000
     242 -> 247        0.43171
     243 -> 247        0.51908
     243 -> 249        0.12592

 The electronic state is 1-A.
 Alpha  occ. eigenvalues --  -46.91213 -19.25031 -19.24413 -19.21258 -19.19459
 Alpha  occ. eigenvalues --  -19.19073 -19.18657 -14.42190 -14.41287 -14.39073
 Alpha  occ. eigenvalues --  -14.38007 -10.36786 -10.35723 -10.32159 -10.31906
 Alpha  occ. eigenvalues --  -10.29487 -10.29125 -10.28564 -10.28528 -10.27986
 Alpha  occ. eigenvalues --  -10.27882 -10.27600 -10.27002 -10.26636 -10.26466
 Alpha  occ. eigenvalues --  -10.26292 -10.26123 -10.25993 -10.25959 -10.25883
 Alpha  occ. eigenvalues --  -10.25470 -10.25236 -10.25015 -10.24859 -10.24773
 Alpha  occ. eigenvalues --  -10.24750 -10.24667 -10.24657 -10.24606 -10.24449
 Alpha  occ. eigenvalues --  -10.24031 -10.23630 -10.23599 -10.23406 -10.23367
 Alpha  occ. eigenvalues --  -10.23324 -10.23299 -10.23210 -10.23123 -10.23109
 Alpha  occ. eigenvalues --  -10.23048 -10.22995 -10.22829 -10.22704 -10.22701
 Alpha  occ. eigenvalues --  -10.22618 -10.22581 -10.22353 -10.22316 -10.22275
 Alpha  occ. eigenvalues --  -10.21973 -10.21866 -10.21839 -10.21802 -10.21655
 Alpha  occ. eigenvalues --  -10.21628  -3.13364  -1.86226  -1.85720  -1.85603
 Alpha  occ. eigenvalues --   -1.11064  -1.08251  -1.04369  -1.03325  -1.03243
 Alpha  occ. eigenvalues --   -1.00828  -0.98378  -0.97590  -0.97273  -0.96376
 Alpha  occ. eigenvalues --   -0.85953  -0.85668  -0.84451  -0.83793  -0.83548
 Alpha  occ. eigenvalues --   -0.83131  -0.82498  -0.81752  -0.81667  -0.81505
 Alpha  occ. eigenvalues --   -0.80463  -0.79922  -0.78983  -0.77606  -0.77138
 Alpha  occ. eigenvalues --   -0.76614  -0.76176  -0.75353  -0.74823  -0.74431
 Alpha  occ. eigenvalues --   -0.74166  -0.72549  -0.72301  -0.71052  -0.70931
 Alpha  occ. eigenvalues --   -0.70503  -0.69717  -0.69331  -0.68887  -0.68352
 Alpha  occ. eigenvalues --   -0.67545  -0.67044  -0.66200  -0.65147  -0.64894
 Alpha  occ. eigenvalues --   -0.62604  -0.62272  -0.61322  -0.60844  -0.59909
 Alpha  occ. eigenvalues --   -0.59705  -0.59483  -0.58713  -0.58436  -0.58345
 Alpha  occ. eigenvalues --   -0.57784  -0.57413  -0.56631  -0.55261  -0.54757
 Alpha  occ. eigenvalues --   -0.54511  -0.53914  -0.53393  -0.52996  -0.51903
 Alpha  occ. eigenvalues --   -0.51609  -0.51328  -0.51165  -0.50518  -0.49782
 Alpha  occ. eigenvalues --   -0.49611  -0.49346  -0.49147  -0.49032  -0.48539
 Alpha  occ. eigenvalues --   -0.48369  -0.47929  -0.47868  -0.47522  -0.47357
 Alpha  occ. eigenvalues --   -0.47117  -0.46890  -0.46767  -0.46576  -0.46346
 Alpha  occ. eigenvalues --   -0.46193  -0.45926  -0.45539  -0.45160  -0.45131
 Alpha  occ. eigenvalues --   -0.45053  -0.44894  -0.44367  -0.44224  -0.44125
 Alpha  occ. eigenvalues --   -0.44110  -0.43823  -0.43481  -0.43232  -0.43102
 Alpha  occ. eigenvalues --   -0.42928  -0.42693  -0.42624  -0.42352  -0.42185
 Alpha  occ. eigenvalues --   -0.42002  -0.41741  -0.41662  -0.41429  -0.41247
 Alpha  occ. eigenvalues --   -0.41083  -0.40900  -0.40772  -0.40582  -0.40254
 Alpha  occ. eigenvalues --   -0.40128  -0.39875  -0.39706  -0.39604  -0.39513
 Alpha  occ. eigenvalues --   -0.39377  -0.39128  -0.38966  -0.38718  -0.38443
 Alpha  occ. eigenvalues --   -0.38264  -0.38003  -0.37960  -0.37903  -0.37689
 Alpha  occ. eigenvalues --   -0.37453  -0.37417  -0.37312  -0.37270  -0.36913
 Alpha  occ. eigenvalues --   -0.36728  -0.36455  -0.36286  -0.36103  -0.35731
 Alpha  occ. eigenvalues --   -0.35457  -0.35436  -0.35133  -0.34902  -0.34816
 Alpha  occ. eigenvalues --   -0.34603  -0.34473  -0.34245  -0.34158  -0.33889
 Alpha  occ. eigenvalues --   -0.33501  -0.33313  -0.33180  -0.32305  -0.32219
 Alpha  occ. eigenvalues --   -0.31990  -0.31865  -0.31659  -0.31440  -0.31434
 Alpha  occ. eigenvalues --   -0.30471  -0.30467  -0.30232  -0.29916  -0.29216
 Alpha  occ. eigenvalues --   -0.28633  -0.28132  -0.28056  -0.27074  -0.25884
 Alpha  occ. eigenvalues --   -0.25567  -0.25403  -0.25357  -0.24623  -0.21052
 Alpha  occ. eigenvalues --   -0.18522
 Alpha virt. eigenvalues --   -0.11077  -0.04876  -0.03713  -0.01985  -0.00696
 Alpha virt. eigenvalues --    0.00205   0.00379   0.01018   0.01578   0.03324
 Alpha virt. eigenvalues --    0.04337   0.04809   0.05284   0.05411   0.05568

 Mulliken charges:
               1
     1  Mg   0.969564
     2  C   -0.007353
     3  C   -0.078705
     4  C   -0.067410
     5  C   -0.037670
     6  N   -0.415808
     7  C    0.064192
     8  C   -0.112567
     9  C   -0.147027
    10  C    0.081908
    11  C   -0.004253
    12  C   -0.002751
    13  C    0.016752
    14  C    0.217691
    15  O   -0.247180
    16  O   -0.389346
    17  N   -0.485511
    18  C    0.178298
    19  C   -0.160907
    20  C   -0.088393
    21  C    0.154585
    22  C    0.047936
    23  C    0.037231
    24  O   -0.254651
    25  C    0.003772
    26  N   -0.429409
    27  C    0.084489
    28  C   -0.077156
    29  C   -0.081508
    30  C    0.093320
    31  C    0.040822
    32  C   -0.026600
    33  C   -0.083822
    34  N   -0.464169
    35  C    0.067349
    36  C   -0.157761
    37  C   -0.075057
    38  C    0.179159
    39  C    0.045522
    40  C    0.149665
    41  O   -0.225056
    42  C   -0.113989
    43  C    0.302858
    44  O   -0.256655
    45  O   -0.392286
    46  C    0.134135
    47  C    0.230292
    48  C   -0.096023
    49  C   -0.239941
    50  C    0.052434
    51  C    0.009224
    52  C   -0.057831
    53  C    0.014752
    54  C   -0.256989
    55  C    0.024382
    56  C    0.013733
    57  C   -0.098164
    58  C   -0.017721
    59  C   -0.220446
    60  C   -0.027574
    61  C    0.035471
    62  C   -0.051042
    63  C   -0.006823
    64  C   -0.250140
    65  C    0.000524
    66  C    0.010640
    67  H   -0.001821
    68  H    0.032228
    69  H   -0.007170
    70  H    0.080288
    71  H    0.053025
    72  H    0.050210
    73  H    0.043158
    74  H    0.062493
    75  H    0.047842
    76  H    0.050097
    77  H    0.056886
    78  H    0.058758
    79  H    0.042898
    80  H    0.044708
    81  H    0.067631
    82  H    0.063805
    83  H    0.055018
    84  H    0.056796
    85  H    0.044840
    86  H    0.035423
    87  H    0.054494
    88  H    0.051816
    89  H    0.032999
    90  H    0.044386
    91  H    0.045496
    92  H    0.065310
    93  H    0.043499
    94  H    0.033079
    95  H    0.063276
    96  H    0.066157
    97  H    0.043888
    98  H    0.077311
    99  H    0.064731
   100  H    0.049000
   101  H    0.050636
   102  H    0.046562
   103  H    0.049304
   104  H    0.018895
   105  H    0.067418
   106  H    0.024009
   107  H    0.042698
   108  H    0.043892
   109  H    0.021887
   110  H    0.032729
   111  H    0.030148
   112  H    0.022564
   113  H    0.019054
   114  H    0.031798
   115  H    0.038052
   116  H    0.025860
   117  H    0.029910
   118  H    0.037962
   119  H    0.038387
   120  H    0.037422
   121  H    0.031592
   122  H    0.026683
   123  H    0.038067
   124  H    0.035841
   125  H    0.032876
   126  H    0.043692
   127  H    0.026371
   128  H    0.013684
   129  H    0.019256
   130  H    0.022167
   131  H    0.020549
   132  H    0.013094
   133  H    0.017053
   134  H    0.030849
   135  H    0.019362
   136  H    0.043451
   137  H    0.029844
   138  H    0.028596
   139  H    0.034049
   140  H    0.036172
 Sum of Mulliken charges =  -0.00000

 Dipole moment (field-independent basis, Debye):
    X=              4.4580    Y=              3.5533    Z=             -3.9479  Tot=              6.9344
 Quadrupole moment (field-independent basis, Debye-Ang):
   XX=           -367.5331   YY=           -426.1703   ZZ=           -403.7661
   XY=            -16.7721   XZ=             10.1423   YZ=              8.2298

 Normal termination of Gaussian 16 at Thu May  5 02:49:23 2022.
