 Gaussian 16, Revision A.03,
 Gaussian 16:  ES64L-G16RevA.03 25-Dec-2016

 --------------------------------
 #p wB97XD/Def2SVP td=(nstates=5)
 --------------------------------

 --------------------------------------------------
 step_51_chromophore_9 TDDFT with wB97XD functional
 --------------------------------------------------
 Symbolic Z-matrix:
 Charge =  0 Multiplicity = 1

                         Standard orientation:
 ---------------------------------------------------------------------
 Center     Atomic      Atomic             Coordinates (Angstroms)
 Number     Number       Type             X           Y           Z
 ---------------------------------------------------------------------
      1         12           0       -5.055990    0.847238   -0.189468
      2          6           0       -3.803047   -2.467801   -0.276981
      3          6           0       -1.888862    1.991907   -0.492526
      4          6           0       -6.279467    3.944420    0.373183
      5          6           0       -8.245678   -0.478488    0.486140
      6          7           0       -3.156498   -0.123030   -0.371448
      7          6           0       -2.822262   -1.474478   -0.451235
      8          6           0       -1.361449   -1.687670   -0.569465
      9          6           0       -0.711576   -0.236155   -0.564030
     10          6           0       -1.996584    0.612755   -0.444697
     11          6           0        0.266246    0.040328    0.636070
     12          6           0       -1.021663   -2.538354   -1.887847
     13          6           0       -0.075765   -3.733328   -1.772485
     14          6           0        0.988493   -3.744404   -0.718519
     15          8           0        0.963190   -4.380708    0.306161
     16          8           0        2.120432   -3.015960   -1.133514
     17          7           0       -4.175752    2.735832   -0.021802
     18          6           0       -2.843783    2.996970   -0.267077
     19          6           0       -2.659901    4.432163   -0.313901
     20          6           0       -3.912145    4.980769   -0.068855
     21          6           0       -4.875950    3.865784    0.176066
     22          6           0       -1.346540    5.105867   -0.568856
     23          6           0       -4.316987    6.456859   -0.005805
     24          8           0       -5.460872    6.780360    0.312643
     25          6           0       -3.401797    7.583588   -0.305202
     26          7           0       -6.954634    1.621104    0.216813
     27          6           0       -7.232364    2.960991    0.304864
     28          6           0       -8.734220    3.182291    0.554150
     29          6           0       -9.383472    1.797676    0.386839
     30          6           0       -8.135072    0.901554    0.351105
     31          6           0       -9.086436    3.975422    1.781895
     32          6           0      -10.497128    1.411817   -0.648183
     33          6           0       -9.917762    0.797989   -2.038419
     34          7           0       -5.932941   -1.103194   -0.016202
     35          6           0       -7.236552   -1.460714    0.391022
     36          6           0       -7.287157   -2.880674    0.516498
     37          6           0       -5.960302   -3.307257    0.343406
     38          6           0       -5.169796   -2.196972   -0.113851
     39          6           0       -8.514802   -3.541873    1.070347
     40          6           0       -5.116164   -4.496639    0.512234
     41          8           0       -5.457805   -5.584294    0.997751
     42          6           0       -3.698144   -4.033524    0.029109
     43          6           0       -2.872562   -4.375307    1.209501
     44          8           0       -2.861425   -3.759740    2.273905
     45          8           0       -2.282389   -5.645923    0.991180
     46          6           0       -1.476228   -6.168847    2.123200
     47          6           0        3.294301   -3.152864   -0.288101
     48          6           0        4.313087   -2.164216   -0.891861
     49          6           0        5.482084   -2.506993   -1.501444
     50          6           0        5.915822   -3.869579   -1.815182
     51          6           0        6.514193   -1.452849   -1.679090
     52          6           0        7.032603   -1.320733   -3.179438
     53          6           0        8.485525   -0.966546   -3.258684
     54          6           0        8.704089    0.591787   -3.343652
     55          6           0        8.473985    1.092764   -4.768167
     56          6           0       10.059420    0.997869   -2.813069
     57          6           0        9.824429    1.346658   -1.364350
     58          6           0       11.260100    1.333043   -0.647623
     59          6           0       11.432527    2.621529    0.271005
     60          6           0       12.231729    3.769146   -0.468671
     61          6           0       12.024901    2.230548    1.629902
     62          6           0       11.056038    2.428715    2.775460
     63          6           0       10.261382    1.187190    3.234690
     64          6           0       10.922069    0.419286    4.414898
     65          6           0       10.921848   -1.060196    4.168247
     66          6           0       10.539232    1.008924    5.755404
     67          1           0       -0.869908    2.307174   -0.724205
     68          1           0       -6.658341    4.966790    0.437594
     69          1           0       -9.173910   -1.043889    0.587712
     70          1           0       -0.861592   -2.154532    0.278970
     71          1           0       -0.167686   -0.038197   -1.487961
     72          1           0        0.106511    1.007999    1.111763
     73          1           0        1.215368    0.121506    0.106683
     74          1           0        0.257179   -0.726383    1.410374
     75          1           0       -0.731246   -1.897270   -2.720192
     76          1           0       -1.983684   -3.005414   -2.097846
     77          1           0        0.264829   -3.868121   -2.799167
     78          1           0       -0.671644   -4.634560   -1.634456
     79          1           0       -1.288910    5.963408   -1.240312
     80          1           0       -0.691996    4.400154   -1.081563
     81          1           0       -1.003041    5.455784    0.404680
     82          1           0       -2.944307    7.411805   -1.278894
     83          1           0       -2.657496    7.605991    0.491363
     84          1           0       -3.950274    8.521450   -0.216840
     85          1           0       -9.005161    3.672379   -0.380794
     86          1           0       -9.912076    1.580427    1.314667
     87          1           0       -9.420139    4.973774    1.499483
     88          1           0       -8.270992    4.040907    2.501132
     89          1           0       -9.866443    3.456137    2.339599
     90          1           0      -11.162747    2.262331   -0.800327
     91          1           0      -11.045213    0.701716   -0.030244
     92          1           0       -8.850333    0.632345   -2.183185
     93          1           0      -10.320694    1.344919   -2.891729
     94          1           0      -10.250029   -0.221872   -2.229582
     95          1           0       -8.831344   -3.155605    2.039445
     96          1           0       -8.327958   -4.615549    1.094869
     97          1           0       -9.333693   -3.298210    0.393313
     98          1           0       -3.349453   -4.645408   -0.803958
     99          1           0       -2.032028   -6.709106    2.890040
    100          1           0       -0.910797   -5.381123    2.620874
    101          1           0       -0.620891   -6.730199    1.748404
    102          1           0        3.584785   -4.202587   -0.268243
    103          1           0        3.094780   -2.812400    0.727333
    104          1           0        4.257744   -1.107174   -0.630320
    105          1           0        5.788059   -4.088610   -2.875906
    106          1           0        5.327898   -4.596458   -1.253602
    107          1           0        6.934091   -4.011517   -1.455346
    108          1           0        7.342489   -1.706708   -1.017823
    109          1           0        6.116111   -0.500793   -1.328299
    110          1           0        6.455090   -0.496402   -3.597358
    111          1           0        6.734783   -2.243203   -3.675865
    112          1           0        8.896427   -1.382996   -4.177921
    113          1           0        9.035089   -1.431598   -2.440248
    114          1           0        7.838846    1.024622   -2.841549
    115          1           0        7.633249    1.786592   -4.774009
    116          1           0        8.249598    0.268558   -5.445439
    117          1           0        9.466670    1.493735   -4.973202
    118          1           0       10.539566    1.881586   -3.233261
    119          1           0       10.766118    0.168258   -2.774505
    120          1           0        9.153014    0.719510   -0.778355
    121          1           0        9.421195    2.358341   -1.328615
    122          1           0       11.986633    1.461220   -1.450466
    123          1           0       11.375760    0.358941   -0.173850
    124          1           0       10.463958    3.097008    0.421894
    125          1           0       13.298236    3.588834   -0.333234
    126          1           0       11.982663    4.783168   -0.154438
    127          1           0       12.072355    3.697626   -1.544574
    128          1           0       12.921988    2.826266    1.796169
    129          1           0       12.380856    1.203396    1.553961
    130          1           0       10.373648    3.233443    2.501993
    131          1           0       11.646543    2.795237    3.614958
    132          1           0       10.048250    0.539661    2.384550
    133          1           0        9.259975    1.455142    3.571994
    134          1           0       11.975171    0.669043    4.280518
    135          1           0       10.893310   -1.547468    5.143520
    136          1           0       11.793392   -1.376604    3.594737
    137          1           0       10.014423   -1.425237    3.687949
    138          1           0       11.480837    1.185419    6.274766
    139          1           0        9.950421    0.306855    6.346014
    140          1           0       10.072816    1.993119    5.785627
 ---------------------------------------------------------------------

 SCF Done:  E(RwB97XD) =  -3007.87816574     A.U. after   17 cycles

 Excitation energies and oscillator strengths:

 Excited State   1:      Singlet-A      1.6075 eV  771.27 nm  f=0.3849  <S**2>=0.000
     245 -> 248       -0.17708
     246 -> 247        0.68682
     245 <- 248       -0.11804
 This state for optimization and/or second-order correction.
 Total Energy, E(TD-HF/TD-DFT) =  -3007.81909009
 Copying the excited state density for this state as the 1-particle RhoCI density.

 Excited State   2:      Singlet-A      2.1934 eV  565.27 nm  f=0.1036  <S**2>=0.000
     245 -> 247        0.63403
     246 -> 248        0.29954

 Excited State   3:      Singlet-A      3.2754 eV  378.53 nm  f=0.0002  <S**2>=0.000
     244 -> 247        0.67016
     246 -> 248       -0.11197

 Excited State   4:      Singlet-A      3.4995 eV  354.29 nm  f=0.0066  <S**2>=0.000
     241 -> 247        0.25072
     241 -> 249       -0.22120
     241 -> 250        0.10745
     242 -> 247        0.51622
     242 -> 249       -0.23060
     242 -> 250        0.12457

 Excited State   5:      Singlet-A      3.5372 eV  350.52 nm  f=0.3960  <S**2>=0.000
     240 -> 247        0.13138
     241 -> 247       -0.31237
     242 -> 247        0.22752
     245 -> 247       -0.21133
     246 -> 248        0.52007

 The electronic state is 1-A.
 Alpha  occ. eigenvalues --  -46.94154 -19.29583 -19.28967 -19.25913 -19.24185
 Alpha  occ. eigenvalues --  -19.23837 -19.23537 -14.47323 -14.46311 -14.44072
 Alpha  occ. eigenvalues --  -14.42865 -10.43575 -10.42568 -10.38978 -10.38815
 Alpha  occ. eigenvalues --  -10.35996 -10.35345 -10.34934 -10.34671 -10.34349
 Alpha  occ. eigenvalues --  -10.34338 -10.34074 -10.33500 -10.33041 -10.32610
 Alpha  occ. eigenvalues --  -10.32604 -10.32511 -10.32376 -10.32233 -10.32155
 Alpha  occ. eigenvalues --  -10.31800 -10.31482 -10.31427 -10.31368 -10.31161
 Alpha  occ. eigenvalues --  -10.31072 -10.31018 -10.31010 -10.30940 -10.30822
 Alpha  occ. eigenvalues --  -10.30330 -10.30021 -10.29962 -10.29960 -10.29822
 Alpha  occ. eigenvalues --  -10.29780 -10.29599 -10.29589 -10.29472 -10.29423
 Alpha  occ. eigenvalues --  -10.29384 -10.29356 -10.29197 -10.29078 -10.28990
 Alpha  occ. eigenvalues --  -10.28927 -10.28814 -10.28723 -10.28710 -10.28685
 Alpha  occ. eigenvalues --  -10.28356 -10.28278 -10.28242 -10.28236 -10.28058
 Alpha  occ. eigenvalues --  -10.28032  -3.20148  -1.93761  -1.93256  -1.93137
 Alpha  occ. eigenvalues --   -1.18429  -1.15678  -1.11935  -1.10695  -1.10655
 Alpha  occ. eigenvalues --   -1.08208  -1.05812  -1.05002  -1.04625  -1.03686
 Alpha  occ. eigenvalues --   -0.93559  -0.93337  -0.92114  -0.91433  -0.91209
 Alpha  occ. eigenvalues --   -0.90775  -0.90060  -0.89404  -0.89332  -0.89150
 Alpha  occ. eigenvalues --   -0.88019  -0.87543  -0.86645  -0.85241  -0.84723
 Alpha  occ. eigenvalues --   -0.84279  -0.83974  -0.83012  -0.82451  -0.82039
 Alpha  occ. eigenvalues --   -0.81816  -0.80291  -0.79916  -0.78672  -0.78564
 Alpha  occ. eigenvalues --   -0.78196  -0.77295  -0.76940  -0.76570  -0.76027
 Alpha  occ. eigenvalues --   -0.75127  -0.74563  -0.73741  -0.72710  -0.72464
 Alpha  occ. eigenvalues --   -0.70189  -0.69904  -0.68875  -0.68489  -0.67404
 Alpha  occ. eigenvalues --   -0.67379  -0.66986  -0.66115  -0.66015  -0.65849
 Alpha  occ. eigenvalues --   -0.65257  -0.65063  -0.64268  -0.62670  -0.62238
 Alpha  occ. eigenvalues --   -0.62015  -0.61379  -0.60778  -0.60301  -0.59363
 Alpha  occ. eigenvalues --   -0.58987  -0.58828  -0.58694  -0.57901  -0.57170
 Alpha  occ. eigenvalues --   -0.57003  -0.56727  -0.56589  -0.56427  -0.55958
 Alpha  occ. eigenvalues --   -0.55778  -0.55358  -0.55322  -0.55028  -0.54858
 Alpha  occ. eigenvalues --   -0.54415  -0.54253  -0.54184  -0.53946  -0.53679
 Alpha  occ. eigenvalues --   -0.53504  -0.53312  -0.52890  -0.52588  -0.52486
 Alpha  occ. eigenvalues --   -0.52382  -0.52220  -0.51749  -0.51582  -0.51437
 Alpha  occ. eigenvalues --   -0.51405  -0.51136  -0.50805  -0.50575  -0.50411
 Alpha  occ. eigenvalues --   -0.50230  -0.50037  -0.49921  -0.49667  -0.49434
 Alpha  occ. eigenvalues --   -0.49255  -0.49033  -0.48875  -0.48661  -0.48445
 Alpha  occ. eigenvalues --   -0.48219  -0.48115  -0.48027  -0.47814  -0.47456
 Alpha  occ. eigenvalues --   -0.47295  -0.47040  -0.46874  -0.46747  -0.46676
 Alpha  occ. eigenvalues --   -0.46568  -0.46355  -0.46086  -0.45849  -0.45584
 Alpha  occ. eigenvalues --   -0.45401  -0.45160  -0.45128  -0.45056  -0.44810
 Alpha  occ. eigenvalues --   -0.44578  -0.44494  -0.44393  -0.44336  -0.43979
 Alpha  occ. eigenvalues --   -0.43930  -0.43598  -0.43392  -0.43206  -0.42761
 Alpha  occ. eigenvalues --   -0.42540  -0.42428  -0.42216  -0.42090  -0.41899
 Alpha  occ. eigenvalues --   -0.41560  -0.41499  -0.41208  -0.41174  -0.40816
 Alpha  occ. eigenvalues --   -0.40585  -0.40396  -0.40126  -0.39279  -0.39187
 Alpha  occ. eigenvalues --   -0.38981  -0.38801  -0.38719  -0.38478  -0.38415
 Alpha  occ. eigenvalues --   -0.37551  -0.37515  -0.37171  -0.37018  -0.35995
 Alpha  occ. eigenvalues --   -0.35508  -0.35041  -0.34897  -0.33677  -0.32701
 Alpha  occ. eigenvalues --   -0.32510  -0.32341  -0.32242  -0.31064  -0.26078
 Alpha  occ. eigenvalues --   -0.22641
 Alpha virt. eigenvalues --   -0.06962   0.00565   0.02597   0.04513   0.06106
 Alpha virt. eigenvalues --    0.06354   0.06907   0.07746   0.08119   0.09739
 Alpha virt. eigenvalues --    0.10976   0.11632   0.12042   0.12121   0.12310

 Mulliken charges:
               1
     1  Mg   0.957327
     2  C   -0.014239
     3  C   -0.096949
     4  C   -0.084274
     5  C   -0.051955
     6  N   -0.382111
     7  C    0.046074
     8  C   -0.090902
     9  C   -0.125703
    10  C    0.071960
    11  C    0.005334
    12  C    0.011434
    13  C    0.031034
    14  C    0.206239
    15  O   -0.243542
    16  O   -0.388416
    17  N   -0.450490
    18  C    0.171158
    19  C   -0.148665
    20  C   -0.078391
    21  C    0.141119
    22  C    0.057146
    23  C    0.032540
    24  O   -0.249095
    25  C    0.014682
    26  N   -0.398201
    27  C    0.072650
    28  C   -0.048719
    29  C   -0.066590
    30  C    0.090612
    31  C    0.051652
    32  C   -0.011288
    33  C   -0.066318
    34  N   -0.426201
    35  C    0.054459
    36  C   -0.153580
    37  C   -0.068379
    38  C    0.155880
    39  C    0.056544
    40  C    0.132380
    41  O   -0.215681
    42  C   -0.078110
    43  C    0.280270
    44  O   -0.251208
    45  O   -0.391842
    46  C    0.147968
    47  C    0.241803
    48  C   -0.100356
    49  C   -0.227808
    50  C    0.063085
    51  C    0.027141
    52  C   -0.037977
    53  C    0.029331
    54  C   -0.222218
    55  C    0.033692
    56  C    0.035177
    57  C   -0.082779
    58  C    0.000563
    59  C   -0.192875
    60  C   -0.012626
    61  C    0.046817
    62  C   -0.028218
    63  C    0.005888
    64  C   -0.216634
    65  C    0.012795
    66  C    0.018541
    67  H   -0.009332
    68  H    0.027433
    69  H   -0.015384
    70  H    0.061898
    71  H    0.044307
    72  H    0.043436
    73  H    0.038029
    74  H    0.058708
    75  H    0.042433
    76  H    0.036920
    77  H    0.052805
    78  H    0.052957
    79  H    0.038639
    80  H    0.040625
    81  H    0.063706
    82  H    0.057961
    83  H    0.050108
    84  H    0.056361
    85  H    0.032585
    86  H    0.022721
    87  H    0.049863
    88  H    0.045804
    89  H    0.027180
    90  H    0.037770
    91  H    0.038243
    92  H    0.056168
    93  H    0.038098
    94  H    0.026891
    95  H    0.058310
    96  H    0.062645
    97  H    0.037173
    98  H    0.071086
    99  H    0.061649
   100  H    0.044921
   101  H    0.047920
   102  H    0.041405
   103  H    0.045077
   104  H    0.015376
   105  H    0.062657
   106  H    0.017233
   107  H    0.037471
   108  H    0.033328
   109  H    0.014042
   110  H    0.022486
   111  H    0.020984
   112  H    0.013694
   113  H    0.008777
   114  H    0.014763
   115  H    0.033859
   116  H    0.019547
   117  H    0.023201
   118  H    0.027836
   119  H    0.027585
   120  H    0.026995
   121  H    0.020901
   122  H    0.013861
   123  H    0.030394
   124  H    0.020037
   125  H    0.025737
   126  H    0.038999
   127  H    0.018345
   128  H    0.006310
   129  H    0.008299
   130  H    0.013969
   131  H    0.011234
   132  H    0.001384
   133  H    0.008862
   134  H    0.015740
   135  H    0.013094
   136  H    0.038612
   137  H    0.023380
   138  H    0.023125
   139  H    0.028621
   140  H    0.031185
 Sum of Mulliken charges =  -0.00000

 Dipole moment (field-independent basis, Debye):
    X=              4.6962    Y=              3.7989    Z=             -4.0140  Tot=              7.2525
 Quadrupole moment (field-independent basis, Debye-Ang):
   XX=           -370.3778   YY=           -423.7449   ZZ=           -403.3486
   XY=            -17.4208   XZ=             10.5305   YZ=              8.0767

 Normal termination of Gaussian 16 at Thu May  5 03:24:15 2022.
