 Gaussian 16, Revision A.03,
 Gaussian 16:  ES64L-G16RevA.03 25-Dec-2016

 --------------------
 #p ZINDO=(nstates=5)
 --------------------

 ---------------------------
 step_51_chromophore_9 ZINDO
 ---------------------------
 Symbolic Z-matrix:
 Charge =  0 Multiplicity = 1

                         Standard orientation:
 ---------------------------------------------------------------------
 Center     Atomic      Atomic             Coordinates (Angstroms)
 Number     Number       Type             X           Y           Z
 ---------------------------------------------------------------------
      1         12           0       -5.055990    0.847238   -0.189468
      2          6           0       -3.803047   -2.467801   -0.276981
      3          6           0       -1.888862    1.991907   -0.492526
      4          6           0       -6.279467    3.944420    0.373183
      5          6           0       -8.245678   -0.478488    0.486140
      6          7           0       -3.156498   -0.123030   -0.371448
      7          6           0       -2.822262   -1.474478   -0.451235
      8          6           0       -1.361449   -1.687670   -0.569465
      9          6           0       -0.711576   -0.236155   -0.564030
     10          6           0       -1.996584    0.612755   -0.444697
     11          6           0        0.266246    0.040328    0.636070
     12          6           0       -1.021663   -2.538354   -1.887847
     13          6           0       -0.075765   -3.733328   -1.772485
     14          6           0        0.988493   -3.744404   -0.718519
     15          8           0        0.963190   -4.380708    0.306161
     16          8           0        2.120432   -3.015960   -1.133514
     17          7           0       -4.175752    2.735832   -0.021802
     18          6           0       -2.843783    2.996970   -0.267077
     19          6           0       -2.659901    4.432163   -0.313901
     20          6           0       -3.912145    4.980769   -0.068855
     21          6           0       -4.875950    3.865784    0.176066
     22          6           0       -1.346540    5.105867   -0.568856
     23          6           0       -4.316987    6.456859   -0.005805
     24          8           0       -5.460872    6.780360    0.312643
     25          6           0       -3.401797    7.583588   -0.305202
     26          7           0       -6.954634    1.621104    0.216813
     27          6           0       -7.232364    2.960991    0.304864
     28          6           0       -8.734220    3.182291    0.554150
     29          6           0       -9.383472    1.797676    0.386839
     30          6           0       -8.135072    0.901554    0.351105
     31          6           0       -9.086436    3.975422    1.781895
     32          6           0      -10.497128    1.411817   -0.648183
     33          6           0       -9.917762    0.797989   -2.038419
     34          7           0       -5.932941   -1.103194   -0.016202
     35          6           0       -7.236552   -1.460714    0.391022
     36          6           0       -7.287157   -2.880674    0.516498
     37          6           0       -5.960302   -3.307257    0.343406
     38          6           0       -5.169796   -2.196972   -0.113851
     39          6           0       -8.514802   -3.541873    1.070347
     40          6           0       -5.116164   -4.496639    0.512234
     41          8           0       -5.457805   -5.584294    0.997751
     42          6           0       -3.698144   -4.033524    0.029109
     43          6           0       -2.872562   -4.375307    1.209501
     44          8           0       -2.861425   -3.759740    2.273905
     45          8           0       -2.282389   -5.645923    0.991180
     46          6           0       -1.476228   -6.168847    2.123200
     47          6           0        3.294301   -3.152864   -0.288101
     48          6           0        4.313087   -2.164216   -0.891861
     49          6           0        5.482084   -2.506993   -1.501444
     50          6           0        5.915822   -3.869579   -1.815182
     51          6           0        6.514193   -1.452849   -1.679090
     52          6           0        7.032603   -1.320733   -3.179438
     53          6           0        8.485525   -0.966546   -3.258684
     54          6           0        8.704089    0.591787   -3.343652
     55          6           0        8.473985    1.092764   -4.768167
     56          6           0       10.059420    0.997869   -2.813069
     57          6           0        9.824429    1.346658   -1.364350
     58          6           0       11.260100    1.333043   -0.647623
     59          6           0       11.432527    2.621529    0.271005
     60          6           0       12.231729    3.769146   -0.468671
     61          6           0       12.024901    2.230548    1.629902
     62          6           0       11.056038    2.428715    2.775460
     63          6           0       10.261382    1.187190    3.234690
     64          6           0       10.922069    0.419286    4.414898
     65          6           0       10.921848   -1.060196    4.168247
     66          6           0       10.539232    1.008924    5.755404
     67          1           0       -0.869908    2.307174   -0.724205
     68          1           0       -6.658341    4.966790    0.437594
     69          1           0       -9.173910   -1.043889    0.587712
     70          1           0       -0.861592   -2.154532    0.278970
     71          1           0       -0.167686   -0.038197   -1.487961
     72          1           0        0.106511    1.007999    1.111763
     73          1           0        1.215368    0.121506    0.106683
     74          1           0        0.257179   -0.726383    1.410374
     75          1           0       -0.731246   -1.897270   -2.720192
     76          1           0       -1.983684   -3.005414   -2.097846
     77          1           0        0.264829   -3.868121   -2.799167
     78          1           0       -0.671644   -4.634560   -1.634456
     79          1           0       -1.288910    5.963408   -1.240312
     80          1           0       -0.691996    4.400154   -1.081563
     81          1           0       -1.003041    5.455784    0.404680
     82          1           0       -2.944307    7.411805   -1.278894
     83          1           0       -2.657496    7.605991    0.491363
     84          1           0       -3.950274    8.521450   -0.216840
     85          1           0       -9.005161    3.672379   -0.380794
     86          1           0       -9.912076    1.580427    1.314667
     87          1           0       -9.420139    4.973774    1.499483
     88          1           0       -8.270992    4.040907    2.501132
     89          1           0       -9.866443    3.456137    2.339599
     90          1           0      -11.162747    2.262331   -0.800327
     91          1           0      -11.045213    0.701716   -0.030244
     92          1           0       -8.850333    0.632345   -2.183185
     93          1           0      -10.320694    1.344919   -2.891729
     94          1           0      -10.250029   -0.221872   -2.229582
     95          1           0       -8.831344   -3.155605    2.039445
     96          1           0       -8.327958   -4.615549    1.094869
     97          1           0       -9.333693   -3.298210    0.393313
     98          1           0       -3.349453   -4.645408   -0.803958
     99          1           0       -2.032028   -6.709106    2.890040
    100          1           0       -0.910797   -5.381123    2.620874
    101          1           0       -0.620891   -6.730199    1.748404
    102          1           0        3.584785   -4.202587   -0.268243
    103          1           0        3.094780   -2.812400    0.727333
    104          1           0        4.257744   -1.107174   -0.630320
    105          1           0        5.788059   -4.088610   -2.875906
    106          1           0        5.327898   -4.596458   -1.253602
    107          1           0        6.934091   -4.011517   -1.455346
    108          1           0        7.342489   -1.706708   -1.017823
    109          1           0        6.116111   -0.500793   -1.328299
    110          1           0        6.455090   -0.496402   -3.597358
    111          1           0        6.734783   -2.243203   -3.675865
    112          1           0        8.896427   -1.382996   -4.177921
    113          1           0        9.035089   -1.431598   -2.440248
    114          1           0        7.838846    1.024622   -2.841549
    115          1           0        7.633249    1.786592   -4.774009
    116          1           0        8.249598    0.268558   -5.445439
    117          1           0        9.466670    1.493735   -4.973202
    118          1           0       10.539566    1.881586   -3.233261
    119          1           0       10.766118    0.168258   -2.774505
    120          1           0        9.153014    0.719510   -0.778355
    121          1           0        9.421195    2.358341   -1.328615
    122          1           0       11.986633    1.461220   -1.450466
    123          1           0       11.375760    0.358941   -0.173850
    124          1           0       10.463958    3.097008    0.421894
    125          1           0       13.298236    3.588834   -0.333234
    126          1           0       11.982663    4.783168   -0.154438
    127          1           0       12.072355    3.697626   -1.544574
    128          1           0       12.921988    2.826266    1.796169
    129          1           0       12.380856    1.203396    1.553961
    130          1           0       10.373648    3.233443    2.501993
    131          1           0       11.646543    2.795237    3.614958
    132          1           0       10.048250    0.539661    2.384550
    133          1           0        9.259975    1.455142    3.571994
    134          1           0       11.975171    0.669043    4.280518
    135          1           0       10.893310   -1.547468    5.143520
    136          1           0       11.793392   -1.376604    3.594737
    137          1           0       10.014423   -1.425237    3.687949
    138          1           0       11.480837    1.185419    6.274766
    139          1           0        9.950421    0.306855    6.346014
    140          1           0       10.072816    1.993119    5.785627
 ---------------------------------------------------------------------

 SCF Done:  E(RZINDO/S) =  -474.331077407     A.U. after   20 cycles

 Excitation energies and oscillator strengths:

 Excited State   1:      Singlet-A      1.2186 eV 1017.43 nm  f=0.6244  <S**2>=0.000
     175 ->178         0.17811
     176 ->177         0.66606
 This state for optimization and/or second-order correction.
 Total Energy, E(CIS/TDA) =  -474.286294736
 Copying the excited state density for this state as the 1-particle RhoCI density.

 Excited State   2:      Singlet-A      1.9498 eV  635.87 nm  f=0.0361  <S**2>=0.000
     175 ->177         0.53918
     176 ->178        -0.42883

 Excited State   3:      Singlet-A      2.8872 eV  429.43 nm  f=0.0050  <S**2>=0.000
     168 ->177         0.23658
     168 ->179        -0.30147
     168 ->180        -0.32588
     168 ->186        -0.14756
     168 ->187        -0.15965
     169 ->177         0.15111
     169 ->179        -0.15723
     169 ->180        -0.18684
     170 ->180        -0.11323

 Excited State   4:      Singlet-A      2.9353 eV  422.40 nm  f=0.0782  <S**2>=0.000
     168 ->177         0.14409
     168 ->180        -0.13346
     169 ->179        -0.11250
     170 ->177        -0.20226
     170 ->178        -0.13358
     170 ->179        -0.25459
     170 ->180         0.16449
     170 ->186        -0.12684
     174 ->177        -0.22154
     174 ->179        -0.10253
     175 ->177         0.12447
     176 ->178         0.21305
     176 ->179         0.24145

 Excited State   5:      Singlet-A      2.9650 eV  418.15 nm  f=0.3291  <S**2>=0.000
     168 ->179        -0.12151
     170 ->177         0.15386
     170 ->179         0.15192
     175 ->177         0.22815
     176 ->178         0.35632
     176 ->179         0.36619

 The electronic state is 1-A.
 Alpha  occ. eigenvalues --   -1.82500  -1.81106  -1.79472  -1.72863  -1.70346
 Alpha  occ. eigenvalues --   -1.68808  -1.67642  -1.62941  -1.59692  -1.56947
 Alpha  occ. eigenvalues --   -1.54948  -1.52793  -1.49054  -1.47165  -1.45579
 Alpha  occ. eigenvalues --   -1.44424  -1.42669  -1.40398  -1.39639  -1.39406
 Alpha  occ. eigenvalues --   -1.36462  -1.33257  -1.32792  -1.31712  -1.27712
 Alpha  occ. eigenvalues --   -1.27445  -1.24701  -1.21936  -1.19734  -1.17825
 Alpha  occ. eigenvalues --   -1.17764  -1.17426  -1.15634  -1.14496  -1.13201
 Alpha  occ. eigenvalues --   -1.12250  -1.11335  -1.10564  -1.04754  -1.02759
 Alpha  occ. eigenvalues --   -1.02465  -1.00820  -0.99594  -0.98551  -0.97661
 Alpha  occ. eigenvalues --   -0.96549  -0.95439  -0.94264  -0.92503  -0.91992
 Alpha  occ. eigenvalues --   -0.90898  -0.90174  -0.87965  -0.87648  -0.86887
 Alpha  occ. eigenvalues --   -0.85081  -0.84106  -0.82963  -0.81638  -0.80186
 Alpha  occ. eigenvalues --   -0.79596  -0.78265  -0.77407  -0.77008  -0.76156
 Alpha  occ. eigenvalues --   -0.75523  -0.75391  -0.75135  -0.74440  -0.73696
 Alpha  occ. eigenvalues --   -0.73232  -0.72738  -0.72387  -0.71813  -0.71147
 Alpha  occ. eigenvalues --   -0.70107  -0.69442  -0.68946  -0.68176  -0.68024
 Alpha  occ. eigenvalues --   -0.67626  -0.67204  -0.66320  -0.65916  -0.65433
 Alpha  occ. eigenvalues --   -0.64294  -0.64114  -0.63570  -0.63222  -0.63053
 Alpha  occ. eigenvalues --   -0.62915  -0.62464  -0.62060  -0.62021  -0.61911
 Alpha  occ. eigenvalues --   -0.61328  -0.60889  -0.60435  -0.60320  -0.59974
 Alpha  occ. eigenvalues --   -0.59584  -0.59356  -0.59189  -0.58913  -0.58524
 Alpha  occ. eigenvalues --   -0.58011  -0.57349  -0.57144  -0.57013  -0.56633
 Alpha  occ. eigenvalues --   -0.55714  -0.55285  -0.54971  -0.54753  -0.54143
 Alpha  occ. eigenvalues --   -0.53780  -0.53666  -0.53341  -0.52981  -0.52635
 Alpha  occ. eigenvalues --   -0.52604  -0.52392  -0.51818  -0.51707  -0.51336
 Alpha  occ. eigenvalues --   -0.50862  -0.50634  -0.50478  -0.50232  -0.49897
 Alpha  occ. eigenvalues --   -0.49780  -0.49272  -0.48785  -0.48425  -0.48393
 Alpha  occ. eigenvalues --   -0.48356  -0.48165  -0.47889  -0.47782  -0.47457
 Alpha  occ. eigenvalues --   -0.47361  -0.47268  -0.47211  -0.46818  -0.46176
 Alpha  occ. eigenvalues --   -0.46028  -0.45848  -0.45558  -0.45519  -0.45036
 Alpha  occ. eigenvalues --   -0.44679  -0.44528  -0.44312  -0.44050  -0.43911
 Alpha  occ. eigenvalues --   -0.43319  -0.43183  -0.42702  -0.42640  -0.42589
 Alpha  occ. eigenvalues --   -0.41671  -0.40784  -0.40297  -0.39578  -0.38658
 Alpha  occ. eigenvalues --   -0.37731  -0.36640  -0.34736  -0.34533  -0.34417
 Alpha  occ. eigenvalues --   -0.33553  -0.32408  -0.32358  -0.31805  -0.26739
 Alpha  occ. eigenvalues --   -0.21413
 Alpha virt. eigenvalues --   -0.08390  -0.01713  -0.00192   0.01236   0.01692
 Alpha virt. eigenvalues --    0.02747   0.03333   0.03442   0.04165   0.05110
 Alpha virt. eigenvalues --    0.06222   0.07284   0.07537   0.07978   0.08530

 Mulliken charges:
               1
     1  Mg   0.417134
     2  C   -0.043508
     3  C   -0.069724
     4  C   -0.068219
     5  C   -0.067150
     6  N   -0.274608
     7  C    0.128144
     8  C    0.000769
     9  C   -0.009358
    10  C    0.133441
    11  C   -0.052984
    12  C   -0.027745
    13  C    0.006405
    14  C    0.472347
    15  O   -0.496935
    16  O   -0.285789
    17  N   -0.313337
    18  C    0.104657
    19  C    0.019613
    20  C   -0.046765
    21  C    0.144239
    22  C   -0.043915
    23  C    0.321474
    24  O   -0.532660
    25  C   -0.024898
    26  N   -0.278761
    27  C    0.145965
    28  C    0.015006
    29  C   -0.006672
    30  C    0.125504
    31  C   -0.041018
    32  C   -0.024386
    33  C   -0.063561
    34  N   -0.331100
    35  C    0.082276
    36  C    0.025706
    37  C   -0.048766
    38  C    0.111354
    39  C   -0.037283
    40  C    0.335716
    41  O   -0.518608
    42  C    0.061922
    43  C    0.488199
    44  O   -0.517463
    45  O   -0.274418
    46  C    0.069972
    47  C    0.108020
    48  C   -0.115195
    49  C    0.009000
    50  C   -0.037831
    51  C   -0.026723
    52  C   -0.034567
    53  C   -0.029457
    54  C   -0.015042
    55  C   -0.069846
    56  C   -0.025961
    57  C   -0.047311
    58  C   -0.052894
    59  C   -0.018086
    60  C   -0.060859
    61  C   -0.027506
    62  C   -0.029007
    63  C   -0.033567
    64  C   -0.004789
    65  C   -0.047681
    66  C   -0.048981
    67  H    0.020925
    68  H    0.046664
    69  H    0.030041
    70  H    0.051443
    71  H    0.033915
    72  H    0.023384
    73  H    0.016167
    74  H    0.037861
    75  H    0.030811
    76  H    0.020233
    77  H    0.034667
    78  H    0.032909
    79  H    0.026633
    80  H    0.023018
    81  H    0.037143
    82  H    0.037411
    83  H    0.036219
    84  H    0.041240
    85  H    0.025825
    86  H    0.017058
    87  H    0.026572
    88  H    0.027605
    89  H    0.017034
    90  H    0.026100
    91  H    0.026467
    92  H    0.036278
    93  H    0.015816
    94  H    0.014201
    95  H    0.035674
    96  H    0.032634
    97  H    0.022657
    98  H    0.054178
    99  H    0.051774
   100  H    0.039446
   101  H    0.032347
   102  H    0.051980
   103  H    0.045543
   104  H    0.031440
   105  H    0.035717
   106  H    0.016787
   107  H    0.026086
   108  H    0.027633
   109  H    0.017967
   110  H    0.018845
   111  H    0.023732
   112  H    0.011609
   113  H    0.017933
   114  H    0.021268
   115  H    0.022560
   116  H    0.017356
   117  H    0.025794
   118  H    0.027965
   119  H    0.022484
   120  H    0.022687
   121  H    0.015241
   122  H    0.018630
   123  H    0.028337
   124  H    0.019777
   125  H    0.015848
   126  H    0.022611
   127  H    0.013475
   128  H    0.012434
   129  H    0.018352
   130  H    0.015978
   131  H    0.012674
   132  H    0.014075
   133  H    0.009707
   134  H    0.008280
   135  H    0.010872
   136  H    0.023859
   137  H    0.015989
   138  H    0.010409
   139  H    0.019937
   140  H    0.023853
 Sum of Mulliken charges =  -0.00000

 Dipole moment (field-independent basis, Debye):
    X=              6.7827    Y=              4.7185    Z=             -6.5969  Tot=             10.5730
 N-N= 4.359253734508D+03 E-N= 0.000000000000D+00  KE=-9.393398775072D+03
 Leave Link  601 at Thu May  5 03:38:04 2022, MaxMem=  6710886400 cpu:               4.2 elap:               0.2
 (Enter /sw/apps/gaussian-16.0/g16/l9999.exe)
 1\1\GINC-BP1-COMPUTE181\SP\RZINDO CIS\STO-3G\C55H74Mg1N4O6\OF15641\05-
 May-2022\0\\#p ZINDO=(nstates=5)\\step_51_chromophore_9 ZINDO\\0,1\Mg,
 0,36.116,0.897,29.564\C,0,33.681,1.869,31.95\C,0,38.409,0.757,32.045\C
 ,0,38.457,0.44,27.173\C,0,33.721,1.437,27.042\N,0,36.019,1.251,31.673\
 C,0,34.944,1.58,32.498\C,0,35.347,1.732,33.915\C,0,36.911,1.446,33.952
 \C,0,37.147,1.152,32.454\C,0,37.788,2.657,34.439\C,0,34.492,0.748,34.8
 52\C,0,33.849,1.309,36.12\C,0,34.48,2.469,36.827\O,0,34.092,3.611,36.7

 Normal termination of Gaussian 16 at Thu May  5 03:38:04 2022.
