 Gaussian 16, Revision A.03,
 Gaussian 16:  ES64L-G16RevA.03 25-Dec-2016

 ------------------------------
 #p blyp/Def2SVP td=(nstates=5)
 ------------------------------

 --------------------------------------------------
 step_851_chromophore_24 TDDFT with blyp functional
 --------------------------------------------------
 Symbolic Z-matrix:
 Charge =  0 Multiplicity = 1

                         Standard orientation:
 ---------------------------------------------------------------------
 Center     Atomic      Atomic             Coordinates (Angstroms)
 Number     Number       Type             X           Y           Z
 ---------------------------------------------------------------------
      1         12           0        5.333544    1.048596    0.005494
      2          6           0        3.986586   -2.264894   -0.097256
      3          6           0        2.085453    2.192983   -0.100263
      4          6           0        6.580142    4.039082   -0.340740
      5          6           0        8.603371   -0.365763   -0.313693
      6          7           0        3.209303   -0.025236   -0.113686
      7          6           0        2.903178   -1.385302   -0.075518
      8          6           0        1.410303   -1.549166    0.270124
      9          6           0        0.850853   -0.078421    0.182389
     10          6           0        2.124302    0.796410   -0.003739
     11          6           0       -0.215134    0.247825   -0.870933
     12          6           0        1.217423   -2.175716    1.694425
     13          6           0        0.271960   -3.320862    1.880568
     14          6           0       -0.625287   -3.816576    0.734945
     15          8           0       -0.270138   -4.674336   -0.071221
     16          8           0       -1.851186   -3.205618    0.694375
     17          7           0        4.467650    2.881258   -0.244039
     18          6           0        3.133649    3.202034   -0.134657
     19          6           0        2.939529    4.643670   -0.069396
     20          6           0        4.287231    5.227821   -0.002968
     21          6           0        5.195841    4.060775   -0.195394
     22          6           0        1.514187    5.315133   -0.134192
     23          6           0        4.738854    6.635601    0.210807
     24          8           0        5.929169    6.951331    0.339944
     25          6           0        3.687831    7.639917    0.437181
     26          7           0        7.311763    1.739708   -0.126643
     27          6           0        7.543993    3.037273   -0.319347
     28          6           0        8.999503    3.301294   -0.451903
     29          6           0        9.699478    1.863833   -0.137245
     30          6           0        8.506047    1.059083   -0.146523
     31          6           0        9.434892    3.989469   -1.694291
     32          6           0       10.566446    1.803112    1.170278
     33          6           0        9.861307    1.343880    2.463502
     34          7           0        6.135569   -0.844079   -0.304001
     35          6           0        7.481791   -1.257436   -0.367935
     36          6           0        7.500370   -2.713384   -0.575415
     37          6           0        6.209546   -3.139557   -0.437752
     38          6           0        5.368578   -1.933719   -0.339176
     39          6           0        8.663763   -3.601277   -0.565779
     40          6           0        5.356540   -4.275124   -0.335620
     41          8           0        5.638172   -5.448255   -0.505223
     42          6           0        3.885505   -3.822505    0.005850
     43          6           0        3.030724   -4.475413   -1.009559
     44          8           0        2.714402   -3.945084   -2.081958
     45          8           0        2.683162   -5.751703   -0.573955
     46          6           0        2.226076   -6.702892   -1.588515
     47          6           0       -2.741924   -3.599863   -0.408066
     48          6           0       -3.991835   -2.771207   -0.309509
     49          6           0       -5.190284   -2.915721   -0.975404
     50          6           0       -5.461681   -3.761566   -2.167281
     51          6           0       -6.322300   -2.029957   -0.536427
     52          6           0       -7.079196   -2.469414    0.705163
     53          6           0       -6.573171   -1.701654    1.939998
     54          6           0       -7.823134   -1.441729    2.864942
     55          6           0       -7.571339   -1.868736    4.313427
     56          6           0       -8.340769    0.012099    2.712468
     57          6           0       -9.230481    0.234297    1.543270
     58          6           0      -10.405812    1.176611    1.803533
     59          6           0      -10.976742    1.739633    0.459423
     60          6           0      -10.990019    3.334093    0.474061
     61          6           0      -12.421383    1.196778    0.141494
     62          6           0      -12.805381    1.283174   -1.337186
     63          6           0      -14.447898    1.349981   -1.532025
     64          6           0      -14.826088    2.793608   -1.989898
     65          6           0      -15.653312    3.543404   -0.826481
     66          6           0      -15.558518    2.839861   -3.419732
     67          1           0        1.058101    2.563674   -0.124983
     68          1           0        6.988265    5.039705   -0.498233
     69          1           0        9.571386   -0.864159   -0.400724
     70          1           0        0.789424   -2.027883   -0.487734
     71          1           0        0.329626    0.265334    1.074762
     72          1           0        0.067597    0.851658   -1.733626
     73          1           0       -1.032871    0.803464   -0.412948
     74          1           0       -0.633539   -0.689341   -1.237065
     75          1           0        0.988633   -1.457172    2.481823
     76          1           0        2.160342   -2.618591    2.015200
     77          1           0       -0.436784   -3.173653    2.694596
     78          1           0        0.787927   -4.255646    2.100411
     79          1           0        1.366989    5.798807   -1.100035
     80          1           0        1.332059    6.088395    0.611895
     81          1           0        0.692564    4.621165    0.045104
     82          1           0        4.214818    8.594943    0.459651
     83          1           0        3.299970    7.416816    1.430644
     84          1           0        2.970560    7.683104   -0.381689
     85          1           0        9.367941    3.980780    0.316683
     86          1           0       10.303931    1.648631   -1.018104
     87          1           0       10.520422    3.890169   -1.718188
     88          1           0        9.165553    5.045072   -1.731805
     89          1           0        9.021271    3.402329   -2.514107
     90          1           0       10.816788    2.811980    1.497490
     91          1           0       11.537631    1.367482    0.932594
     92          1           0        8.889380    0.947507    2.170483
     93          1           0        9.670758    2.159389    3.161120
     94          1           0       10.348348    0.487920    2.930115
     95          1           0        9.253642   -3.428243    0.334805
     96          1           0        9.242999   -3.426987   -1.472213
     97          1           0        8.170541   -4.572230   -0.506841
     98          1           0        3.681400   -4.144041    1.028028
     99          1           0        2.857664   -7.591403   -1.574451
    100          1           0        1.965473   -6.225149   -2.532313
    101          1           0        1.279133   -7.129464   -1.256995
    102          1           0       -3.122008   -4.599537   -0.196705
    103          1           0       -2.163632   -3.528789   -1.329844
    104          1           0       -4.010281   -2.040870    0.498620
    105          1           0       -5.956559   -4.713278   -1.975869
    106          1           0       -4.520675   -4.011778   -2.658931
    107          1           0       -5.953324   -3.189949   -2.954470
    108          1           0       -7.017858   -2.044066   -1.374370
    109          1           0       -5.957852   -1.008633   -0.427122
    110          1           0       -6.808362   -3.522722    0.781102
    111          1           0       -8.140045   -2.294817    0.524460
    112          1           0       -6.092474   -0.759728    1.677634
    113          1           0       -5.784112   -2.288702    2.409712
    114          1           0       -8.654149   -2.111922    2.649274
    115          1           0       -6.520259   -1.974125    4.582292
    116          1           0       -8.008463   -2.843363    4.527956
    117          1           0       -7.988056   -1.099362    4.963626
    118          1           0       -7.550431    0.757172    2.619506
    119          1           0       -8.793686    0.237602    3.678164
    120          1           0       -9.693889   -0.716656    1.282042
    121          1           0       -8.608030    0.439927    0.672840
    122          1           0      -10.092861    1.967054    2.486866
    123          1           0      -11.197243    0.652211    2.338572
    124          1           0      -10.375008    1.357384   -0.365284
    125          1           0      -10.196751    3.985541    0.842011
    126          1           0      -11.856695    3.768381    0.972431
    127          1           0      -11.005581    3.813556   -0.505968
    128          1           0      -13.122722    1.677853    0.822335
    129          1           0      -12.329730    0.161298    0.470259
    130          1           0      -12.577521    0.333905   -1.822198
    131          1           0      -12.342133    2.072201   -1.928990
    132          1           0      -14.888777    1.036111   -0.586144
    133          1           0      -14.713204    0.587310   -2.263945
    134          1           0      -13.903562    3.357937   -2.127635
    135          1           0      -16.198006    2.889365   -0.145263
    136          1           0      -16.463885    4.117822   -1.274044
    137          1           0      -15.066547    4.368447   -0.422877
    138          1           0      -14.759161    2.914905   -4.156773
    139          1           0      -16.441548    3.476827   -3.485861
    140          1           0      -16.035399    1.866452   -3.532004
 ---------------------------------------------------------------------

 SCF Done:  E(RB-LYP) =  -3007.36749896     A.U. after   22 cycles

 Excitation energies and oscillator strengths:

 Excited State   1:      Singlet-A      1.7801 eV  696.49 nm  f=0.2698  <S**2>=0.000
     245 -> 248       -0.19476
     246 -> 247        0.67772
     246 <- 247       -0.14205
 This state for optimization and/or second-order correction.
 Total Energy, E(TD-HF/TD-DFT) =  -3007.30207998
 Copying the excited state density for this state as the 1-particle RhoCI density.

 Excited State   2:      Singlet-A      1.9438 eV  637.84 nm  f=0.0640  <S**2>=0.000
     243 -> 247        0.32369
     244 -> 247        0.32307
     245 -> 247        0.49655
     246 -> 247       -0.10314
     246 -> 248        0.15799

 Excited State   3:      Singlet-A      1.9766 eV  627.25 nm  f=0.0059  <S**2>=0.000
     243 -> 247       -0.27888
     244 -> 247        0.61640
     245 -> 247       -0.18790

 Excited State   4:      Singlet-A      2.0427 eV  606.97 nm  f=0.0272  <S**2>=0.000
     243 -> 247        0.55679
     244 -> 247        0.11540
     245 -> 247       -0.37060
     246 -> 248       -0.16745

 Excited State   5:      Singlet-A      2.3047 eV  537.97 nm  f=0.0000  <S**2>=0.000
     242 -> 247        0.70709

 The electronic state is 1-A.
 Alpha  occ. eigenvalues --  -46.27334 -18.82469 -18.80492 -18.76702 -18.75641
 Alpha  occ. eigenvalues --  -18.75495 -18.75320 -14.03035 -14.02638 -14.01284
 Alpha  occ. eigenvalues --  -14.01266 -10.04094 -10.02945  -9.99406  -9.99321
 Alpha  occ. eigenvalues --   -9.98353  -9.96658  -9.96319  -9.96203  -9.96123
 Alpha  occ. eigenvalues --   -9.95821  -9.95759  -9.95754  -9.95656  -9.95086
 Alpha  occ. eigenvalues --   -9.94965  -9.94692  -9.93914  -9.93777  -9.93766
 Alpha  occ. eigenvalues --   -9.93708  -9.93698  -9.93535  -9.93389  -9.93237
 Alpha  occ. eigenvalues --   -9.93194  -9.92991  -9.92987  -9.92943  -9.92900
 Alpha  occ. eigenvalues --   -9.92875  -9.92686  -9.92645  -9.92386  -9.92114
 Alpha  occ. eigenvalues --   -9.92012  -9.91876  -9.91813  -9.91694  -9.91667
 Alpha  occ. eigenvalues --   -9.91626  -9.91580  -9.91491  -9.91436  -9.91421
 Alpha  occ. eigenvalues --   -9.91343  -9.91324  -9.91273  -9.91089  -9.91051
 Alpha  occ. eigenvalues --   -9.90970  -9.90930  -9.90904  -9.90864  -9.90716
 Alpha  occ. eigenvalues --   -9.90530  -2.91955  -1.72372  -1.71844  -1.71669
 Alpha  occ. eigenvalues --   -0.97824  -0.95151  -0.91469  -0.90689  -0.89625
 Alpha  occ. eigenvalues --   -0.88038  -0.87015  -0.85370  -0.84695  -0.83992
 Alpha  occ. eigenvalues --   -0.74260  -0.74143  -0.73071  -0.72746  -0.72522
 Alpha  occ. eigenvalues --   -0.71558  -0.71457  -0.71046  -0.70285  -0.69867
 Alpha  occ. eigenvalues --   -0.69575  -0.69172  -0.68263  -0.67549  -0.67099
 Alpha  occ. eigenvalues --   -0.66553  -0.65880  -0.65448  -0.64819  -0.63943
 Alpha  occ. eigenvalues --   -0.63838  -0.62570  -0.62295  -0.62009  -0.60469
 Alpha  occ. eigenvalues --   -0.60150  -0.59858  -0.59775  -0.59635  -0.58757
 Alpha  occ. eigenvalues --   -0.58330  -0.57558  -0.56252  -0.55845  -0.55227
 Alpha  occ. eigenvalues --   -0.53778  -0.53659  -0.52622  -0.52067  -0.51384
 Alpha  occ. eigenvalues --   -0.51178  -0.51101  -0.50416  -0.50208  -0.49956
 Alpha  occ. eigenvalues --   -0.49730  -0.49560  -0.49167  -0.47209  -0.46339
 Alpha  occ. eigenvalues --   -0.46214  -0.46031  -0.45484  -0.44555  -0.44125
 Alpha  occ. eigenvalues --   -0.43905  -0.43350  -0.43087  -0.43010  -0.42262
 Alpha  occ. eigenvalues --   -0.41856  -0.41584  -0.41455  -0.41280  -0.40917
 Alpha  occ. eigenvalues --   -0.40850  -0.40389  -0.40246  -0.40063  -0.39833
 Alpha  occ. eigenvalues --   -0.39569  -0.39456  -0.39179  -0.39076  -0.38953
 Alpha  occ. eigenvalues --   -0.38808  -0.38552  -0.38411  -0.38228  -0.37854
 Alpha  occ. eigenvalues --   -0.37599  -0.37454  -0.37420  -0.37333  -0.37190
 Alpha  occ. eigenvalues --   -0.36912  -0.36826  -0.36715  -0.36620  -0.36260
 Alpha  occ. eigenvalues --   -0.36079  -0.35920  -0.35857  -0.35641  -0.35459
 Alpha  occ. eigenvalues --   -0.35345  -0.35116  -0.35050  -0.34719  -0.34609
 Alpha  occ. eigenvalues --   -0.34341  -0.34207  -0.33950  -0.33929  -0.33843
 Alpha  occ. eigenvalues --   -0.33580  -0.33398  -0.33152  -0.33124  -0.32868
 Alpha  occ. eigenvalues --   -0.32718  -0.32452  -0.32320  -0.32135  -0.31923
 Alpha  occ. eigenvalues --   -0.31876  -0.31678  -0.31568  -0.31445  -0.31342
 Alpha  occ. eigenvalues --   -0.31266  -0.31240  -0.31021  -0.30642  -0.30248
 Alpha  occ. eigenvalues --   -0.30152  -0.29959  -0.29796  -0.29600  -0.29557
 Alpha  occ. eigenvalues --   -0.29464  -0.29454  -0.29381  -0.29077  -0.28986
 Alpha  occ. eigenvalues --   -0.28665  -0.28183  -0.28050  -0.27915  -0.27876
 Alpha  occ. eigenvalues --   -0.27670  -0.27090  -0.26909  -0.26746  -0.26487
 Alpha  occ. eigenvalues --   -0.26218  -0.25802  -0.25634  -0.25604  -0.25017
 Alpha  occ. eigenvalues --   -0.24953  -0.24558  -0.23580  -0.23351  -0.23088
 Alpha  occ. eigenvalues --   -0.22917  -0.21944  -0.21390  -0.21142  -0.20870
 Alpha  occ. eigenvalues --   -0.20595  -0.19853  -0.18648  -0.18522  -0.16950
 Alpha  occ. eigenvalues --   -0.15659
 Alpha virt. eigenvalues --   -0.11384  -0.07091  -0.06057  -0.04806  -0.03249
 Alpha virt. eigenvalues --   -0.02710  -0.02578  -0.01673  -0.01129   0.00697
 Alpha virt. eigenvalues --    0.01252   0.01666   0.02456   0.02764   0.02835

 Mulliken charges:
               1
     1  Mg   0.692922
     2  C   -0.052238
     3  C   -0.033349
     4  C   -0.060715
     5  C   -0.056258
     6  N   -0.208175
     7  C   -0.023151
     8  C    0.096352
     9  C   -0.047761
    10  C    0.009759
    11  C    0.111288
    12  C    0.156249
    13  C    0.144925
    14  C    0.034822
    15  O   -0.204543
    16  O   -0.280407
    17  N   -0.322416
    18  C    0.140863
    19  C   -0.122043
    20  C    0.044901
    21  C    0.098576
    22  C    0.140671
    23  C   -0.103520
    24  O   -0.177975
    25  C    0.146233
    26  N   -0.215736
    27  C    0.070976
    28  C   -0.002044
    29  C    0.061880
    30  C   -0.002921
    31  C    0.131330
    32  C    0.103405
    33  C    0.054907
    34  N   -0.253151
    35  C    0.093995
    36  C   -0.213342
    37  C    0.126891
    38  C    0.090843
    39  C    0.177878
    40  C   -0.100404
    41  O   -0.129597
    42  C    0.080776
    43  C    0.153553
    44  O   -0.194608
    45  O   -0.278939
    46  C    0.225831
    47  C    0.328244
    48  C   -0.121131
    49  C   -0.190503
    50  C    0.154333
    51  C    0.128925
    52  C    0.104870
    53  C    0.112973
    54  C   -0.083848
    55  C    0.103362
    56  C    0.126283
    57  C    0.040870
    58  C    0.135580
    59  C   -0.034804
    60  C    0.075429
    61  C    0.084912
    62  C    0.060267
    63  C    0.086985
    64  C   -0.088813
    65  C    0.089667
    66  C    0.095056
    67  H   -0.075496
    68  H   -0.050939
    69  H   -0.062427
    70  H    0.002736
    71  H   -0.023296
    72  H    0.000283
    73  H   -0.018237
    74  H   -0.012852
    75  H   -0.020144
    76  H   -0.024797
    77  H   -0.017420
    78  H   -0.002014
    79  H    0.014729
    80  H   -0.006358
    81  H   -0.013122
    82  H   -0.015093
    83  H    0.022014
    84  H    0.006429
    85  H   -0.029755
    86  H   -0.035990
    87  H   -0.015688
    88  H    0.014790
    89  H   -0.012515
    90  H   -0.030185
    91  H   -0.019280
    92  H   -0.000104
    93  H   -0.000659
    94  H   -0.006180
    95  H    0.002686
    96  H    0.002095
    97  H    0.008691
    98  H    0.010412
    99  H    0.014622
   100  H    0.021904
   101  H   -0.004337
   102  H    0.007504
   103  H    0.022712
   104  H   -0.026413
   105  H    0.008448
   106  H   -0.024926
   107  H   -0.001988
   108  H   -0.060429
   109  H   -0.024857
   110  H   -0.030189
   111  H   -0.019231
   112  H   -0.034093
   113  H   -0.027385
   114  H   -0.033918
   115  H   -0.025678
   116  H   -0.015847
   117  H   -0.030266
   118  H   -0.035627
   119  H   -0.047361
   120  H   -0.036684
   121  H   -0.026710
   122  H   -0.034658
   123  H   -0.038853
   124  H   -0.034439
   125  H   -0.028648
   126  H   -0.021762
   127  H   -0.034161
   128  H   -0.019714
   129  H   -0.035970
   130  H   -0.037573
   131  H   -0.014495
   132  H   -0.024858
   133  H   -0.034201
   134  H   -0.021981
   135  H   -0.004735
   136  H   -0.041140
   137  H   -0.010285
   138  H   -0.002474
   139  H   -0.009583
   140  H   -0.027221
 Sum of Mulliken charges =  -0.00000

 Dipole moment (field-independent basis, Debye):
    X=             -3.4227    Y=              2.0058    Z=              2.3775  Tot=              4.6250
 Quadrupole moment (field-independent basis, Debye-Ang):
   XX=           -373.5868   YY=           -432.1112   ZZ=           -406.1136
   XY=             11.9654   XZ=             12.2856   YZ=             -6.4256

 Normal termination of Gaussian 16 at Thu May  5 12:31:35 2022.
