 Gaussian 16, Revision A.03,
 Gaussian 16:  ES64L-G16RevA.03 25-Dec-2016

 -----------------------------------
 #p cam-b3lyp/Def2SVP td=(nstates=5)
 -----------------------------------

 -------------------------------------------------------
 step_851_chromophore_24 TDDFT with cam-b3lyp functional
 -------------------------------------------------------
 Symbolic Z-matrix:
 Charge =  0 Multiplicity = 1

                         Standard orientation:
 ---------------------------------------------------------------------
 Center     Atomic      Atomic             Coordinates (Angstroms)
 Number     Number       Type             X           Y           Z
 ---------------------------------------------------------------------
      1         12           0        5.333544    1.048596    0.005494
      2          6           0        3.986586   -2.264894   -0.097256
      3          6           0        2.085453    2.192983   -0.100263
      4          6           0        6.580142    4.039082   -0.340740
      5          6           0        8.603371   -0.365763   -0.313693
      6          7           0        3.209303   -0.025236   -0.113686
      7          6           0        2.903178   -1.385302   -0.075518
      8          6           0        1.410303   -1.549166    0.270124
      9          6           0        0.850853   -0.078421    0.182389
     10          6           0        2.124302    0.796410   -0.003739
     11          6           0       -0.215134    0.247825   -0.870933
     12          6           0        1.217423   -2.175716    1.694425
     13          6           0        0.271960   -3.320862    1.880568
     14          6           0       -0.625287   -3.816576    0.734945
     15          8           0       -0.270138   -4.674336   -0.071221
     16          8           0       -1.851186   -3.205618    0.694375
     17          7           0        4.467650    2.881258   -0.244039
     18          6           0        3.133649    3.202034   -0.134657
     19          6           0        2.939529    4.643670   -0.069396
     20          6           0        4.287231    5.227821   -0.002968
     21          6           0        5.195841    4.060775   -0.195394
     22          6           0        1.514187    5.315133   -0.134192
     23          6           0        4.738854    6.635601    0.210807
     24          8           0        5.929169    6.951331    0.339944
     25          6           0        3.687831    7.639917    0.437181
     26          7           0        7.311763    1.739708   -0.126643
     27          6           0        7.543993    3.037273   -0.319347
     28          6           0        8.999503    3.301294   -0.451903
     29          6           0        9.699478    1.863833   -0.137245
     30          6           0        8.506047    1.059083   -0.146523
     31          6           0        9.434892    3.989469   -1.694291
     32          6           0       10.566446    1.803112    1.170278
     33          6           0        9.861307    1.343880    2.463502
     34          7           0        6.135569   -0.844079   -0.304001
     35          6           0        7.481791   -1.257436   -0.367935
     36          6           0        7.500370   -2.713384   -0.575415
     37          6           0        6.209546   -3.139557   -0.437752
     38          6           0        5.368578   -1.933719   -0.339176
     39          6           0        8.663763   -3.601277   -0.565779
     40          6           0        5.356540   -4.275124   -0.335620
     41          8           0        5.638172   -5.448255   -0.505223
     42          6           0        3.885505   -3.822505    0.005850
     43          6           0        3.030724   -4.475413   -1.009559
     44          8           0        2.714402   -3.945084   -2.081958
     45          8           0        2.683162   -5.751703   -0.573955
     46          6           0        2.226076   -6.702892   -1.588515
     47          6           0       -2.741924   -3.599863   -0.408066
     48          6           0       -3.991835   -2.771207   -0.309509
     49          6           0       -5.190284   -2.915721   -0.975404
     50          6           0       -5.461681   -3.761566   -2.167281
     51          6           0       -6.322300   -2.029957   -0.536427
     52          6           0       -7.079196   -2.469414    0.705163
     53          6           0       -6.573171   -1.701654    1.939998
     54          6           0       -7.823134   -1.441729    2.864942
     55          6           0       -7.571339   -1.868736    4.313427
     56          6           0       -8.340769    0.012099    2.712468
     57          6           0       -9.230481    0.234297    1.543270
     58          6           0      -10.405812    1.176611    1.803533
     59          6           0      -10.976742    1.739633    0.459423
     60          6           0      -10.990019    3.334093    0.474061
     61          6           0      -12.421383    1.196778    0.141494
     62          6           0      -12.805381    1.283174   -1.337186
     63          6           0      -14.447898    1.349981   -1.532025
     64          6           0      -14.826088    2.793608   -1.989898
     65          6           0      -15.653312    3.543404   -0.826481
     66          6           0      -15.558518    2.839861   -3.419732
     67          1           0        1.058101    2.563674   -0.124983
     68          1           0        6.988265    5.039705   -0.498233
     69          1           0        9.571386   -0.864159   -0.400724
     70          1           0        0.789424   -2.027883   -0.487734
     71          1           0        0.329626    0.265334    1.074762
     72          1           0        0.067597    0.851658   -1.733626
     73          1           0       -1.032871    0.803464   -0.412948
     74          1           0       -0.633539   -0.689341   -1.237065
     75          1           0        0.988633   -1.457172    2.481823
     76          1           0        2.160342   -2.618591    2.015200
     77          1           0       -0.436784   -3.173653    2.694596
     78          1           0        0.787927   -4.255646    2.100411
     79          1           0        1.366989    5.798807   -1.100035
     80          1           0        1.332059    6.088395    0.611895
     81          1           0        0.692564    4.621165    0.045104
     82          1           0        4.214818    8.594943    0.459651
     83          1           0        3.299970    7.416816    1.430644
     84          1           0        2.970560    7.683104   -0.381689
     85          1           0        9.367941    3.980780    0.316683
     86          1           0       10.303931    1.648631   -1.018104
     87          1           0       10.520422    3.890169   -1.718188
     88          1           0        9.165553    5.045072   -1.731805
     89          1           0        9.021271    3.402329   -2.514107
     90          1           0       10.816788    2.811980    1.497490
     91          1           0       11.537631    1.367482    0.932594
     92          1           0        8.889380    0.947507    2.170483
     93          1           0        9.670758    2.159389    3.161120
     94          1           0       10.348348    0.487920    2.930115
     95          1           0        9.253642   -3.428243    0.334805
     96          1           0        9.242999   -3.426987   -1.472213
     97          1           0        8.170541   -4.572230   -0.506841
     98          1           0        3.681400   -4.144041    1.028028
     99          1           0        2.857664   -7.591403   -1.574451
    100          1           0        1.965473   -6.225149   -2.532313
    101          1           0        1.279133   -7.129464   -1.256995
    102          1           0       -3.122008   -4.599537   -0.196705
    103          1           0       -2.163632   -3.528789   -1.329844
    104          1           0       -4.010281   -2.040870    0.498620
    105          1           0       -5.956559   -4.713278   -1.975869
    106          1           0       -4.520675   -4.011778   -2.658931
    107          1           0       -5.953324   -3.189949   -2.954470
    108          1           0       -7.017858   -2.044066   -1.374370
    109          1           0       -5.957852   -1.008633   -0.427122
    110          1           0       -6.808362   -3.522722    0.781102
    111          1           0       -8.140045   -2.294817    0.524460
    112          1           0       -6.092474   -0.759728    1.677634
    113          1           0       -5.784112   -2.288702    2.409712
    114          1           0       -8.654149   -2.111922    2.649274
    115          1           0       -6.520259   -1.974125    4.582292
    116          1           0       -8.008463   -2.843363    4.527956
    117          1           0       -7.988056   -1.099362    4.963626
    118          1           0       -7.550431    0.757172    2.619506
    119          1           0       -8.793686    0.237602    3.678164
    120          1           0       -9.693889   -0.716656    1.282042
    121          1           0       -8.608030    0.439927    0.672840
    122          1           0      -10.092861    1.967054    2.486866
    123          1           0      -11.197243    0.652211    2.338572
    124          1           0      -10.375008    1.357384   -0.365284
    125          1           0      -10.196751    3.985541    0.842011
    126          1           0      -11.856695    3.768381    0.972431
    127          1           0      -11.005581    3.813556   -0.505968
    128          1           0      -13.122722    1.677853    0.822335
    129          1           0      -12.329730    0.161298    0.470259
    130          1           0      -12.577521    0.333905   -1.822198
    131          1           0      -12.342133    2.072201   -1.928990
    132          1           0      -14.888777    1.036111   -0.586144
    133          1           0      -14.713204    0.587310   -2.263945
    134          1           0      -13.903562    3.357937   -2.127635
    135          1           0      -16.198006    2.889365   -0.145263
    136          1           0      -16.463885    4.117822   -1.274044
    137          1           0      -15.066547    4.368447   -0.422877
    138          1           0      -14.759161    2.914905   -4.156773
    139          1           0      -16.441548    3.476827   -3.485861
    140          1           0      -16.035399    1.866452   -3.532004
 ---------------------------------------------------------------------

 SCF Done:  E(RCAM-B3LYP) =  -3007.15180553     A.U. after   19 cycles

 Excitation energies and oscillator strengths:

 Excited State   1:      Singlet-A      1.6784 eV  738.72 nm  f=0.3675  <S**2>=0.000
     245 -> 248        0.18725
     246 -> 247        0.68265
     245 <- 248        0.10912
 This state for optimization and/or second-order correction.
 Total Energy, E(TD-HF/TD-DFT) =  -3007.09012690
 Copying the excited state density for this state as the 1-particle RhoCI density.

 Excited State   2:      Singlet-A      2.1833 eV  567.89 nm  f=0.1058  <S**2>=0.000
     245 -> 247        0.63712
     246 -> 248       -0.29569

 Excited State   3:      Singlet-A      3.4183 eV  362.71 nm  f=0.4954  <S**2>=0.000
     242 -> 247        0.10014
     243 -> 247        0.29116
     245 -> 247        0.25072
     246 -> 248        0.57162
     245 <- 247       -0.10101

 Excited State   4:      Singlet-A      3.4968 eV  354.56 nm  f=0.0416  <S**2>=0.000
     241 -> 247       -0.20317
     241 -> 249       -0.16637
     242 -> 247       -0.36201
     242 -> 249       -0.21149
     243 -> 247        0.41983
     246 -> 248       -0.12624

 Excited State   5:      Singlet-A      3.5751 eV  346.80 nm  f=0.0860  <S**2>=0.000
     239 -> 247       -0.16985
     240 -> 247       -0.24883
     240 -> 249        0.11562
     240 -> 250       -0.10150
     241 -> 247        0.16447
     241 -> 249        0.13273
     242 -> 247        0.30385
     243 -> 247        0.39944
     246 -> 248       -0.14403

 The electronic state is 1-A.
 Alpha  occ. eigenvalues --  -46.88891 -19.25327 -19.23327 -19.19696 -19.18723
 Alpha  occ. eigenvalues --  -19.18711 -19.18540 -14.41925 -14.41434 -14.39780
 Alpha  occ. eigenvalues --  -14.39715 -10.39390 -10.38494 -10.34655 -10.34618
 Alpha  occ. eigenvalues --  -10.32393 -10.31205 -10.30704 -10.30593 -10.30448
 Alpha  occ. eigenvalues --  -10.30199 -10.30079 -10.29977 -10.29684 -10.29635
 Alpha  occ. eigenvalues --  -10.29516 -10.28786 -10.28177 -10.28168 -10.27694
 Alpha  occ. eigenvalues --  -10.27668 -10.27640 -10.27608 -10.27485 -10.27428
 Alpha  occ. eigenvalues --  -10.27414 -10.27357 -10.27047 -10.27046 -10.26690
 Alpha  occ. eigenvalues --  -10.26631 -10.26490 -10.26462 -10.26151 -10.26033
 Alpha  occ. eigenvalues --  -10.25683 -10.25668 -10.25523 -10.25443 -10.25439
 Alpha  occ. eigenvalues --  -10.25398 -10.25302 -10.25255 -10.25242 -10.25094
 Alpha  occ. eigenvalues --  -10.24995 -10.24961 -10.24940 -10.24820 -10.24726
 Alpha  occ. eigenvalues --  -10.24725 -10.24579 -10.24571 -10.24544 -10.24475
 Alpha  occ. eigenvalues --  -10.24115  -3.17415  -1.92308  -1.91866  -1.91726
 Alpha  occ. eigenvalues --   -1.16247  -1.13608  -1.09893  -1.09080  -1.07480
 Alpha  occ. eigenvalues --   -1.05910  -1.04744  -1.03000  -1.02231  -1.01468
 Alpha  occ. eigenvalues --   -0.91352  -0.91054  -0.89852  -0.89507  -0.89180
 Alpha  occ. eigenvalues --   -0.88160  -0.88113  -0.87719  -0.86794  -0.86361
 Alpha  occ. eigenvalues --   -0.86251  -0.85541  -0.84502  -0.83688  -0.83256
 Alpha  occ. eigenvalues --   -0.82614  -0.82098  -0.81332  -0.80740  -0.79691
 Alpha  occ. eigenvalues --   -0.79651  -0.78267  -0.77902  -0.77568  -0.75821
 Alpha  occ. eigenvalues --   -0.75494  -0.75157  -0.75104  -0.74881  -0.73963
 Alpha  occ. eigenvalues --   -0.73374  -0.72582  -0.71101  -0.70657  -0.69864
 Alpha  occ. eigenvalues --   -0.68482  -0.68238  -0.67070  -0.66381  -0.65592
 Alpha  occ. eigenvalues --   -0.65350  -0.65088  -0.64466  -0.64267  -0.63824
 Alpha  occ. eigenvalues --   -0.63722  -0.63358  -0.63108  -0.60852  -0.59907
 Alpha  occ. eigenvalues --   -0.59702  -0.59501  -0.58883  -0.57920  -0.57654
 Alpha  occ. eigenvalues --   -0.57193  -0.56581  -0.56259  -0.55934  -0.55513
 Alpha  occ. eigenvalues --   -0.54852  -0.54757  -0.54435  -0.54264  -0.53664
 Alpha  occ. eigenvalues --   -0.53515  -0.53160  -0.52961  -0.52870  -0.52518
 Alpha  occ. eigenvalues --   -0.52272  -0.52177  -0.51875  -0.51808  -0.51505
 Alpha  occ. eigenvalues --   -0.51344  -0.51092  -0.50880  -0.50576  -0.50430
 Alpha  occ. eigenvalues --   -0.49958  -0.49823  -0.49639  -0.49629  -0.49533
 Alpha  occ. eigenvalues --   -0.49427  -0.49179  -0.48975  -0.48961  -0.48821
 Alpha  occ. eigenvalues --   -0.48382  -0.48064  -0.47907  -0.47750  -0.47587
 Alpha  occ. eigenvalues --   -0.47511  -0.47381  -0.47092  -0.46842  -0.46652
 Alpha  occ. eigenvalues --   -0.46274  -0.45993  -0.45818  -0.45745  -0.45583
 Alpha  occ. eigenvalues --   -0.45503  -0.45114  -0.44922  -0.44781  -0.44639
 Alpha  occ. eigenvalues --   -0.44384  -0.43970  -0.43935  -0.43877  -0.43608
 Alpha  occ. eigenvalues --   -0.43341  -0.43320  -0.43307  -0.43084  -0.42957
 Alpha  occ. eigenvalues --   -0.42810  -0.42652  -0.42192  -0.41970  -0.41846
 Alpha  occ. eigenvalues --   -0.41783  -0.41430  -0.41039  -0.40944  -0.40748
 Alpha  occ. eigenvalues --   -0.40657  -0.40544  -0.40529  -0.40315  -0.40188
 Alpha  occ. eigenvalues --   -0.40151  -0.39643  -0.38991  -0.38893  -0.38825
 Alpha  occ. eigenvalues --   -0.38529  -0.38126  -0.37886  -0.37551  -0.37230
 Alpha  occ. eigenvalues --   -0.37220  -0.37071  -0.36290  -0.36194  -0.35938
 Alpha  occ. eigenvalues --   -0.35520  -0.35037  -0.34613  -0.33993  -0.33847
 Alpha  occ. eigenvalues --   -0.33518  -0.33276  -0.32542  -0.31249  -0.30848
 Alpha  occ. eigenvalues --   -0.30692  -0.30294  -0.29864  -0.29388  -0.23603
 Alpha  occ. eigenvalues --   -0.20891
 Alpha virt. eigenvalues --   -0.08480  -0.01904   0.00327   0.01987   0.02461
 Alpha virt. eigenvalues --    0.04252   0.05049   0.05897   0.06303   0.06832
 Alpha virt. eigenvalues --    0.08148   0.08656   0.08815   0.08961   0.09178

 Mulliken charges:
               1
     1  Mg   0.824322
     2  C   -0.074385
     3  C   -0.052653
     4  C   -0.075247
     5  C   -0.057878
     6  N   -0.276186
     7  C    0.020371
     8  C    0.036216
     9  C   -0.089225
    10  C    0.031775
    11  C    0.052445
    12  C    0.098198
    13  C    0.082038
    14  C    0.111102
    15  O   -0.243981
    16  O   -0.344717
    17  N   -0.408574
    18  C    0.148692
    19  C   -0.130039
    20  C   -0.025571
    21  C    0.120356
    22  C    0.091213
    23  C   -0.020275
    24  O   -0.219393
    25  C    0.058976
    26  N   -0.288629
    27  C    0.088507
    28  C   -0.056528
    29  C    0.001800
    30  C    0.007512
    31  C    0.074023
    32  C    0.045104
    33  C   -0.003670
    34  N   -0.340472
    35  C    0.097487
    36  C   -0.192751
    37  C    0.036124
    38  C    0.132023
    39  C    0.114973
    40  C   -0.001137
    41  O   -0.167711
    42  C    0.007882
    43  C    0.237126
    44  O   -0.231730
    45  O   -0.342288
    46  C    0.187436
    47  C    0.298060
    48  C   -0.140599
    49  C   -0.209560
    50  C    0.090227
    51  C    0.065367
    52  C    0.049944
    53  C    0.059612
    54  C   -0.145641
    55  C    0.048989
    56  C    0.071459
    57  C   -0.009379
    58  C    0.080990
    59  C   -0.092261
    60  C    0.018175
    61  C    0.037989
    62  C    0.003445
    63  C    0.034865
    64  C   -0.147939
    65  C    0.032215
    66  C    0.037902
    67  H   -0.042010
    68  H   -0.011368
    69  H   -0.024656
    70  H    0.035371
    71  H    0.011526
    72  H    0.027002
    73  H    0.005768
    74  H    0.009618
    75  H    0.012273
    76  H    0.005827
    77  H    0.016911
    78  H    0.029602
    79  H    0.039983
    80  H    0.019130
    81  H    0.014135
    82  H    0.021628
    83  H    0.049478
    84  H    0.034316
    85  H    0.005558
    86  H    0.002211
    87  H    0.008805
    88  H    0.038074
    89  H    0.011396
    90  H    0.000109
    91  H    0.009681
    92  H    0.021799
    93  H    0.023103
    94  H    0.018027
    95  H    0.028573
    96  H    0.027903
    97  H    0.037808
    98  H    0.050616
    99  H    0.036423
   100  H    0.048280
   101  H    0.017897
   102  H    0.034779
   103  H    0.049198
   104  H    0.006324
   105  H    0.033163
   106  H    0.000800
   107  H    0.023295
   108  H   -0.027201
   109  H    0.005329
   110  H   -0.000258
   111  H    0.007562
   112  H   -0.007573
   113  H    0.001553
   114  H   -0.001060
   115  H   -0.001622
   116  H    0.008330
   117  H   -0.005744
   118  H   -0.006906
   119  H   -0.017418
   120  H   -0.011476
   121  H   -0.000701
   122  H   -0.004987
   123  H   -0.009044
   124  H   -0.002916
   125  H   -0.002732
   126  H    0.000915
   127  H   -0.010283
   128  H    0.005063
   129  H   -0.007485
   130  H   -0.007334
   131  H    0.010575
   132  H    0.002569
   133  H   -0.004584
   134  H    0.007347
   135  H    0.018039
   136  H   -0.016224
   137  H    0.012855
   138  H    0.020325
   139  H    0.014556
   140  H   -0.004345
 Sum of Mulliken charges =  -0.00000

 Dipole moment (field-independent basis, Debye):
    X=             -3.6631    Y=              2.3549    Z=              2.5520  Tot=              5.0475
 Quadrupole moment (field-independent basis, Debye-Ang):
   XX=           -372.1856   YY=           -427.8299   ZZ=           -405.9159
   XY=             11.8886   XZ=             12.9769   YZ=             -6.3963

 Normal termination of Gaussian 16 at Thu May  5 11:31:14 2022.
