 Gaussian 16, Revision A.03,
 Gaussian 16:  ES64L-G16RevA.03 25-Dec-2016

 ---------------------------------
 #p PBE1PBE/Def2SVP td=(nstates=5)
 ---------------------------------

 -----------------------------------------------------
 step_851_chromophore_24 TDDFT with PBE1PBE functional
 -----------------------------------------------------
 Symbolic Z-matrix:
 Charge =  0 Multiplicity = 1

                         Standard orientation:
 ---------------------------------------------------------------------
 Center     Atomic      Atomic             Coordinates (Angstroms)
 Number     Number       Type             X           Y           Z
 ---------------------------------------------------------------------
      1         12           0        5.333544    1.048596    0.005494
      2          6           0        3.986586   -2.264894   -0.097256
      3          6           0        2.085453    2.192983   -0.100263
      4          6           0        6.580142    4.039082   -0.340740
      5          6           0        8.603371   -0.365763   -0.313693
      6          7           0        3.209303   -0.025236   -0.113686
      7          6           0        2.903178   -1.385302   -0.075518
      8          6           0        1.410303   -1.549166    0.270124
      9          6           0        0.850853   -0.078421    0.182389
     10          6           0        2.124302    0.796410   -0.003739
     11          6           0       -0.215134    0.247825   -0.870933
     12          6           0        1.217423   -2.175716    1.694425
     13          6           0        0.271960   -3.320862    1.880568
     14          6           0       -0.625287   -3.816576    0.734945
     15          8           0       -0.270138   -4.674336   -0.071221
     16          8           0       -1.851186   -3.205618    0.694375
     17          7           0        4.467650    2.881258   -0.244039
     18          6           0        3.133649    3.202034   -0.134657
     19          6           0        2.939529    4.643670   -0.069396
     20          6           0        4.287231    5.227821   -0.002968
     21          6           0        5.195841    4.060775   -0.195394
     22          6           0        1.514187    5.315133   -0.134192
     23          6           0        4.738854    6.635601    0.210807
     24          8           0        5.929169    6.951331    0.339944
     25          6           0        3.687831    7.639917    0.437181
     26          7           0        7.311763    1.739708   -0.126643
     27          6           0        7.543993    3.037273   -0.319347
     28          6           0        8.999503    3.301294   -0.451903
     29          6           0        9.699478    1.863833   -0.137245
     30          6           0        8.506047    1.059083   -0.146523
     31          6           0        9.434892    3.989469   -1.694291
     32          6           0       10.566446    1.803112    1.170278
     33          6           0        9.861307    1.343880    2.463502
     34          7           0        6.135569   -0.844079   -0.304001
     35          6           0        7.481791   -1.257436   -0.367935
     36          6           0        7.500370   -2.713384   -0.575415
     37          6           0        6.209546   -3.139557   -0.437752
     38          6           0        5.368578   -1.933719   -0.339176
     39          6           0        8.663763   -3.601277   -0.565779
     40          6           0        5.356540   -4.275124   -0.335620
     41          8           0        5.638172   -5.448255   -0.505223
     42          6           0        3.885505   -3.822505    0.005850
     43          6           0        3.030724   -4.475413   -1.009559
     44          8           0        2.714402   -3.945084   -2.081958
     45          8           0        2.683162   -5.751703   -0.573955
     46          6           0        2.226076   -6.702892   -1.588515
     47          6           0       -2.741924   -3.599863   -0.408066
     48          6           0       -3.991835   -2.771207   -0.309509
     49          6           0       -5.190284   -2.915721   -0.975404
     50          6           0       -5.461681   -3.761566   -2.167281
     51          6           0       -6.322300   -2.029957   -0.536427
     52          6           0       -7.079196   -2.469414    0.705163
     53          6           0       -6.573171   -1.701654    1.939998
     54          6           0       -7.823134   -1.441729    2.864942
     55          6           0       -7.571339   -1.868736    4.313427
     56          6           0       -8.340769    0.012099    2.712468
     57          6           0       -9.230481    0.234297    1.543270
     58          6           0      -10.405812    1.176611    1.803533
     59          6           0      -10.976742    1.739633    0.459423
     60          6           0      -10.990019    3.334093    0.474061
     61          6           0      -12.421383    1.196778    0.141494
     62          6           0      -12.805381    1.283174   -1.337186
     63          6           0      -14.447898    1.349981   -1.532025
     64          6           0      -14.826088    2.793608   -1.989898
     65          6           0      -15.653312    3.543404   -0.826481
     66          6           0      -15.558518    2.839861   -3.419732
     67          1           0        1.058101    2.563674   -0.124983
     68          1           0        6.988265    5.039705   -0.498233
     69          1           0        9.571386   -0.864159   -0.400724
     70          1           0        0.789424   -2.027883   -0.487734
     71          1           0        0.329626    0.265334    1.074762
     72          1           0        0.067597    0.851658   -1.733626
     73          1           0       -1.032871    0.803464   -0.412948
     74          1           0       -0.633539   -0.689341   -1.237065
     75          1           0        0.988633   -1.457172    2.481823
     76          1           0        2.160342   -2.618591    2.015200
     77          1           0       -0.436784   -3.173653    2.694596
     78          1           0        0.787927   -4.255646    2.100411
     79          1           0        1.366989    5.798807   -1.100035
     80          1           0        1.332059    6.088395    0.611895
     81          1           0        0.692564    4.621165    0.045104
     82          1           0        4.214818    8.594943    0.459651
     83          1           0        3.299970    7.416816    1.430644
     84          1           0        2.970560    7.683104   -0.381689
     85          1           0        9.367941    3.980780    0.316683
     86          1           0       10.303931    1.648631   -1.018104
     87          1           0       10.520422    3.890169   -1.718188
     88          1           0        9.165553    5.045072   -1.731805
     89          1           0        9.021271    3.402329   -2.514107
     90          1           0       10.816788    2.811980    1.497490
     91          1           0       11.537631    1.367482    0.932594
     92          1           0        8.889380    0.947507    2.170483
     93          1           0        9.670758    2.159389    3.161120
     94          1           0       10.348348    0.487920    2.930115
     95          1           0        9.253642   -3.428243    0.334805
     96          1           0        9.242999   -3.426987   -1.472213
     97          1           0        8.170541   -4.572230   -0.506841
     98          1           0        3.681400   -4.144041    1.028028
     99          1           0        2.857664   -7.591403   -1.574451
    100          1           0        1.965473   -6.225149   -2.532313
    101          1           0        1.279133   -7.129464   -1.256995
    102          1           0       -3.122008   -4.599537   -0.196705
    103          1           0       -2.163632   -3.528789   -1.329844
    104          1           0       -4.010281   -2.040870    0.498620
    105          1           0       -5.956559   -4.713278   -1.975869
    106          1           0       -4.520675   -4.011778   -2.658931
    107          1           0       -5.953324   -3.189949   -2.954470
    108          1           0       -7.017858   -2.044066   -1.374370
    109          1           0       -5.957852   -1.008633   -0.427122
    110          1           0       -6.808362   -3.522722    0.781102
    111          1           0       -8.140045   -2.294817    0.524460
    112          1           0       -6.092474   -0.759728    1.677634
    113          1           0       -5.784112   -2.288702    2.409712
    114          1           0       -8.654149   -2.111922    2.649274
    115          1           0       -6.520259   -1.974125    4.582292
    116          1           0       -8.008463   -2.843363    4.527956
    117          1           0       -7.988056   -1.099362    4.963626
    118          1           0       -7.550431    0.757172    2.619506
    119          1           0       -8.793686    0.237602    3.678164
    120          1           0       -9.693889   -0.716656    1.282042
    121          1           0       -8.608030    0.439927    0.672840
    122          1           0      -10.092861    1.967054    2.486866
    123          1           0      -11.197243    0.652211    2.338572
    124          1           0      -10.375008    1.357384   -0.365284
    125          1           0      -10.196751    3.985541    0.842011
    126          1           0      -11.856695    3.768381    0.972431
    127          1           0      -11.005581    3.813556   -0.505968
    128          1           0      -13.122722    1.677853    0.822335
    129          1           0      -12.329730    0.161298    0.470259
    130          1           0      -12.577521    0.333905   -1.822198
    131          1           0      -12.342133    2.072201   -1.928990
    132          1           0      -14.888777    1.036111   -0.586144
    133          1           0      -14.713204    0.587310   -2.263945
    134          1           0      -13.903562    3.357937   -2.127635
    135          1           0      -16.198006    2.889365   -0.145263
    136          1           0      -16.463885    4.117822   -1.274044
    137          1           0      -15.066547    4.368447   -0.422877
    138          1           0      -14.759161    2.914905   -4.156773
    139          1           0      -16.441548    3.476827   -3.485861
    140          1           0      -16.035399    1.866452   -3.532004
 ---------------------------------------------------------------------

 SCF Done:  E(RPBE1PBE) =  -3005.34152738     A.U. after   16 cycles

 Excitation energies and oscillator strengths:

 Excited State   1:      Singlet-A      1.8387 eV  674.31 nm  f=0.3537  <S**2>=0.000
     245 -> 248        0.17901
     246 -> 247        0.68933
     246 <- 247       -0.10260
 This state for optimization and/or second-order correction.
 Total Energy, E(TD-HF/TD-DFT) =  -3005.27395716
 Copying the excited state density for this state as the 1-particle RhoCI density.

 Excited State   2:      Singlet-A      2.1955 eV  564.73 nm  f=0.1069  <S**2>=0.000
     245 -> 247        0.64933
     246 -> 248       -0.26475

 Excited State   3:      Singlet-A      3.0096 eV  411.96 nm  f=0.0006  <S**2>=0.000
     242 -> 247        0.12573
     243 -> 247        0.65980
     243 -> 249        0.15510

 Excited State   4:      Singlet-A      3.0901 eV  401.23 nm  f=0.0112  <S**2>=0.000
     241 -> 247        0.64875
     241 -> 248        0.12726
     241 -> 249       -0.12215
     241 -> 250       -0.11868
     246 -> 248        0.12630

 Excited State   5:      Singlet-A      3.1887 eV  388.82 nm  f=0.0726  <S**2>=0.000
     242 -> 247        0.58363
     243 -> 247       -0.13342
     245 -> 247        0.10815
     246 -> 248        0.34159

 The electronic state is 1-A.
 Alpha  occ. eigenvalues --  -46.92287 -19.26010 -19.23993 -19.19953 -19.18939
 Alpha  occ. eigenvalues --  -19.18903 -19.18759 -14.41397 -14.40989 -14.39414
 Alpha  occ. eigenvalues --  -14.39381 -10.36445 -10.35466 -10.31776 -10.31704
 Alpha  occ. eigenvalues --  -10.29779 -10.28930 -10.28458 -10.28326 -10.28177
 Alpha  occ. eigenvalues --  -10.27918 -10.27769 -10.27726 -10.27406 -10.27206
 Alpha  occ. eigenvalues --  -10.26864 -10.26579 -10.26035 -10.25781 -10.25446
 Alpha  occ. eigenvalues --  -10.25357 -10.25264 -10.25260 -10.25129 -10.25086
 Alpha  occ. eigenvalues --  -10.25052 -10.24816 -10.24750 -10.24700 -10.24506
 Alpha  occ. eigenvalues --  -10.24291 -10.24211 -10.24185 -10.23706 -10.23399
 Alpha  occ. eigenvalues --  -10.23269 -10.23142 -10.23080 -10.22929 -10.22915
 Alpha  occ. eigenvalues --  -10.22880 -10.22850 -10.22786 -10.22677 -10.22642
 Alpha  occ. eigenvalues --  -10.22587 -10.22531 -10.22513 -10.22494 -10.22280
 Alpha  occ. eigenvalues --  -10.22139 -10.22092 -10.22034 -10.21985 -10.21962
 Alpha  occ. eigenvalues --  -10.21522  -3.14392  -1.87225  -1.86760  -1.86625
 Alpha  occ. eigenvalues --   -1.11052  -1.08336  -1.04613  -1.03783  -1.02330
 Alpha  occ. eigenvalues --   -1.00710  -0.99347  -0.97639  -0.96876  -0.96106
 Alpha  occ. eigenvalues --   -0.85670  -0.85176  -0.83997  -0.83673  -0.83490
 Alpha  occ. eigenvalues --   -0.82495  -0.82204  -0.82025  -0.81101  -0.80485
 Alpha  occ. eigenvalues --   -0.80447  -0.79799  -0.78701  -0.77946  -0.77538
 Alpha  occ. eigenvalues --   -0.76834  -0.76289  -0.75530  -0.75027  -0.74055
 Alpha  occ. eigenvalues --   -0.73770  -0.72556  -0.72189  -0.71869  -0.70027
 Alpha  occ. eigenvalues --   -0.69802  -0.69278  -0.69234  -0.69188  -0.68145
 Alpha  occ. eigenvalues --   -0.67675  -0.67020  -0.65539  -0.64959  -0.64189
 Alpha  occ. eigenvalues --   -0.62891  -0.62482  -0.61549  -0.60644  -0.59929
 Alpha  occ. eigenvalues --   -0.59667  -0.59580  -0.59011  -0.58413  -0.58397
 Alpha  occ. eigenvalues --   -0.57876  -0.57825  -0.57314  -0.55418  -0.54436
 Alpha  occ. eigenvalues --   -0.54215  -0.54011  -0.53411  -0.52555  -0.52048
 Alpha  occ. eigenvalues --   -0.51812  -0.50932  -0.50782  -0.50441  -0.50082
 Alpha  occ. eigenvalues --   -0.49366  -0.49287  -0.48988  -0.48694  -0.48210
 Alpha  occ. eigenvalues --   -0.47982  -0.47715  -0.47412  -0.47190  -0.47110
 Alpha  occ. eigenvalues --   -0.46846  -0.46716  -0.46418  -0.46356  -0.46095
 Alpha  occ. eigenvalues --   -0.45854  -0.45576  -0.45428  -0.45142  -0.44966
 Alpha  occ. eigenvalues --   -0.44574  -0.44411  -0.44211  -0.44182  -0.44099
 Alpha  occ. eigenvalues --   -0.43993  -0.43782  -0.43618  -0.43564  -0.43346
 Alpha  occ. eigenvalues --   -0.43035  -0.42694  -0.42587  -0.42365  -0.42214
 Alpha  occ. eigenvalues --   -0.42124  -0.41988  -0.41733  -0.41513  -0.41324
 Alpha  occ. eigenvalues --   -0.40986  -0.40610  -0.40579  -0.40440  -0.40223
 Alpha  occ. eigenvalues --   -0.40163  -0.39884  -0.39696  -0.39479  -0.39320
 Alpha  occ. eigenvalues --   -0.39218  -0.38712  -0.38669  -0.38642  -0.38395
 Alpha  occ. eigenvalues --   -0.38063  -0.38035  -0.38016  -0.37892  -0.37694
 Alpha  occ. eigenvalues --   -0.37675  -0.37391  -0.37105  -0.36746  -0.36626
 Alpha  occ. eigenvalues --   -0.36554  -0.36269  -0.35831  -0.35772  -0.35633
 Alpha  occ. eigenvalues --   -0.35381  -0.35363  -0.35296  -0.35147  -0.35042
 Alpha  occ. eigenvalues --   -0.34915  -0.34536  -0.33818  -0.33798  -0.33580
 Alpha  occ. eigenvalues --   -0.33303  -0.33113  -0.32660  -0.32347  -0.32232
 Alpha  occ. eigenvalues --   -0.32072  -0.32014  -0.31374  -0.31048  -0.31008
 Alpha  occ. eigenvalues --   -0.30422  -0.30000  -0.29497  -0.29171  -0.28878
 Alpha  occ. eigenvalues --   -0.28331  -0.28283  -0.27884  -0.26806  -0.26165
 Alpha  occ. eigenvalues --   -0.25685  -0.25582  -0.25243  -0.24697  -0.20574
 Alpha  occ. eigenvalues --   -0.18552
 Alpha virt. eigenvalues --   -0.10942  -0.05406  -0.03835  -0.02293  -0.00423
 Alpha virt. eigenvalues --   -0.00182   0.00503   0.01372   0.01789   0.03762
 Alpha virt. eigenvalues --    0.03924   0.04655   0.05366   0.05749   0.05803

 Mulliken charges:
               1
     1  Mg   0.970982
     2  C   -0.084242
     3  C   -0.050933
     4  C   -0.066758
     5  C   -0.041881
     6  N   -0.372592
     7  C    0.096644
     8  C   -0.049619
     9  C   -0.153408
    10  C    0.072112
    11  C   -0.006901
    12  C    0.045881
    13  C    0.014249
    14  C    0.172430
    15  O   -0.274252
    16  O   -0.376309
    17  N   -0.520741
    18  C    0.170853
    19  C   -0.151902
    20  C   -0.073247
    21  C    0.151809
    22  C    0.034520
    23  C    0.028099
    24  O   -0.257041
    25  C   -0.015119
    26  N   -0.399911
    27  C    0.123074
    28  C   -0.131450
    29  C   -0.071557
    30  C    0.035561
    31  C    0.011723
    32  C   -0.014173
    33  C   -0.076421
    34  N   -0.466978
    35  C    0.116064
    36  C   -0.200089
    37  C   -0.022878
    38  C    0.187946
    39  C    0.052299
    40  C    0.093420
    41  O   -0.211562
    42  C   -0.099624
    43  C    0.324037
    44  O   -0.265873
    45  O   -0.373759
    46  C    0.135148
    47  C    0.261611
    48  C   -0.151526
    49  C   -0.253858
    50  C    0.027909
    51  C   -0.000300
    52  C   -0.017269
    53  C    0.012603
    54  C   -0.237769
    55  C   -0.007176
    56  C    0.018220
    57  C   -0.074595
    58  C    0.029284
    59  C   -0.180212
    60  C   -0.037101
    61  C   -0.015751
    62  C   -0.062452
    63  C   -0.014819
    64  C   -0.237273
    65  C   -0.027379
    66  C   -0.024703
    67  H   -0.007520
    68  H    0.021111
    69  H    0.006437
    70  H    0.074301
    71  H    0.048324
    72  H    0.053819
    73  H    0.032628
    74  H    0.039388
    75  H    0.042751
    76  H    0.040274
    77  H    0.048504
    78  H    0.060930
    79  H    0.067109
    80  H    0.045935
    81  H    0.040495
    82  H    0.049553
    83  H    0.076388
    84  H    0.060760
    85  H    0.043815
    86  H    0.039291
    87  H    0.038246
    88  H    0.064878
    89  H    0.040965
    90  H    0.033165
    91  H    0.040758
    92  H    0.054810
    93  H    0.050067
    94  H    0.046038
    95  H    0.056254
    96  H    0.055891
    97  H    0.066720
    98  H    0.086215
    99  H    0.058270
   100  H    0.068408
   101  H    0.039936
   102  H    0.062408
   103  H    0.072752
   104  H    0.036996
   105  H    0.059944
   106  H    0.029253
   107  H    0.049817
   108  H    0.006462
   109  H    0.037888
   110  H    0.035067
   111  H    0.040056
   112  H    0.022595
   113  H    0.032910
   114  H    0.037006
   115  H    0.025902
   116  H    0.035579
   117  H    0.021225
   118  H    0.026329
   119  H    0.014836
   120  H    0.022157
   121  H    0.031696
   122  H    0.027406
   123  H    0.023314
   124  H    0.034652
   125  H    0.024473
   126  H    0.027998
   127  H    0.016740
   128  H    0.036736
   129  H    0.026978
   130  H    0.026700
   131  H    0.040919
   132  H    0.033663
   133  H    0.027071
   134  H    0.044864
   135  H    0.043879
   136  H    0.011744
   137  H    0.039967
   138  H    0.047733
   139  H    0.040904
   140  H    0.023390
 Sum of Mulliken charges =  -0.00000

 Dipole moment (field-independent basis, Debye):
    X=             -3.6301    Y=              2.3547    Z=              2.5833  Tot=              5.0394
 Quadrupole moment (field-independent basis, Debye-Ang):
   XX=           -365.7583   YY=           -425.1124   ZZ=           -403.4301
   XY=             12.3822   XZ=             12.9643   YZ=             -6.4369

 Normal termination of Gaussian 16 at Thu May  5 11:51:16 2022.
