 Gaussian 16, Revision A.03,
 Gaussian 16:  ES64L-G16RevA.03 25-Dec-2016

 --------------------------------
 #p wB97XD/Def2SVP td=(nstates=5)
 --------------------------------

 ----------------------------------------------------
 step_851_chromophore_24 TDDFT with wB97XD functional
 ----------------------------------------------------
 Symbolic Z-matrix:
 Charge =  0 Multiplicity = 1

                         Standard orientation:
 ---------------------------------------------------------------------
 Center     Atomic      Atomic             Coordinates (Angstroms)
 Number     Number       Type             X           Y           Z
 ---------------------------------------------------------------------
      1         12           0        5.333544    1.048596    0.005494
      2          6           0        3.986586   -2.264894   -0.097256
      3          6           0        2.085453    2.192983   -0.100263
      4          6           0        6.580142    4.039082   -0.340740
      5          6           0        8.603371   -0.365763   -0.313693
      6          7           0        3.209303   -0.025236   -0.113686
      7          6           0        2.903178   -1.385302   -0.075518
      8          6           0        1.410303   -1.549166    0.270124
      9          6           0        0.850853   -0.078421    0.182389
     10          6           0        2.124302    0.796410   -0.003739
     11          6           0       -0.215134    0.247825   -0.870933
     12          6           0        1.217423   -2.175716    1.694425
     13          6           0        0.271960   -3.320862    1.880568
     14          6           0       -0.625287   -3.816576    0.734945
     15          8           0       -0.270138   -4.674336   -0.071221
     16          8           0       -1.851186   -3.205618    0.694375
     17          7           0        4.467650    2.881258   -0.244039
     18          6           0        3.133649    3.202034   -0.134657
     19          6           0        2.939529    4.643670   -0.069396
     20          6           0        4.287231    5.227821   -0.002968
     21          6           0        5.195841    4.060775   -0.195394
     22          6           0        1.514187    5.315133   -0.134192
     23          6           0        4.738854    6.635601    0.210807
     24          8           0        5.929169    6.951331    0.339944
     25          6           0        3.687831    7.639917    0.437181
     26          7           0        7.311763    1.739708   -0.126643
     27          6           0        7.543993    3.037273   -0.319347
     28          6           0        8.999503    3.301294   -0.451903
     29          6           0        9.699478    1.863833   -0.137245
     30          6           0        8.506047    1.059083   -0.146523
     31          6           0        9.434892    3.989469   -1.694291
     32          6           0       10.566446    1.803112    1.170278
     33          6           0        9.861307    1.343880    2.463502
     34          7           0        6.135569   -0.844079   -0.304001
     35          6           0        7.481791   -1.257436   -0.367935
     36          6           0        7.500370   -2.713384   -0.575415
     37          6           0        6.209546   -3.139557   -0.437752
     38          6           0        5.368578   -1.933719   -0.339176
     39          6           0        8.663763   -3.601277   -0.565779
     40          6           0        5.356540   -4.275124   -0.335620
     41          8           0        5.638172   -5.448255   -0.505223
     42          6           0        3.885505   -3.822505    0.005850
     43          6           0        3.030724   -4.475413   -1.009559
     44          8           0        2.714402   -3.945084   -2.081958
     45          8           0        2.683162   -5.751703   -0.573955
     46          6           0        2.226076   -6.702892   -1.588515
     47          6           0       -2.741924   -3.599863   -0.408066
     48          6           0       -3.991835   -2.771207   -0.309509
     49          6           0       -5.190284   -2.915721   -0.975404
     50          6           0       -5.461681   -3.761566   -2.167281
     51          6           0       -6.322300   -2.029957   -0.536427
     52          6           0       -7.079196   -2.469414    0.705163
     53          6           0       -6.573171   -1.701654    1.939998
     54          6           0       -7.823134   -1.441729    2.864942
     55          6           0       -7.571339   -1.868736    4.313427
     56          6           0       -8.340769    0.012099    2.712468
     57          6           0       -9.230481    0.234297    1.543270
     58          6           0      -10.405812    1.176611    1.803533
     59          6           0      -10.976742    1.739633    0.459423
     60          6           0      -10.990019    3.334093    0.474061
     61          6           0      -12.421383    1.196778    0.141494
     62          6           0      -12.805381    1.283174   -1.337186
     63          6           0      -14.447898    1.349981   -1.532025
     64          6           0      -14.826088    2.793608   -1.989898
     65          6           0      -15.653312    3.543404   -0.826481
     66          6           0      -15.558518    2.839861   -3.419732
     67          1           0        1.058101    2.563674   -0.124983
     68          1           0        6.988265    5.039705   -0.498233
     69          1           0        9.571386   -0.864159   -0.400724
     70          1           0        0.789424   -2.027883   -0.487734
     71          1           0        0.329626    0.265334    1.074762
     72          1           0        0.067597    0.851658   -1.733626
     73          1           0       -1.032871    0.803464   -0.412948
     74          1           0       -0.633539   -0.689341   -1.237065
     75          1           0        0.988633   -1.457172    2.481823
     76          1           0        2.160342   -2.618591    2.015200
     77          1           0       -0.436784   -3.173653    2.694596
     78          1           0        0.787927   -4.255646    2.100411
     79          1           0        1.366989    5.798807   -1.100035
     80          1           0        1.332059    6.088395    0.611895
     81          1           0        0.692564    4.621165    0.045104
     82          1           0        4.214818    8.594943    0.459651
     83          1           0        3.299970    7.416816    1.430644
     84          1           0        2.970560    7.683104   -0.381689
     85          1           0        9.367941    3.980780    0.316683
     86          1           0       10.303931    1.648631   -1.018104
     87          1           0       10.520422    3.890169   -1.718188
     88          1           0        9.165553    5.045072   -1.731805
     89          1           0        9.021271    3.402329   -2.514107
     90          1           0       10.816788    2.811980    1.497490
     91          1           0       11.537631    1.367482    0.932594
     92          1           0        8.889380    0.947507    2.170483
     93          1           0        9.670758    2.159389    3.161120
     94          1           0       10.348348    0.487920    2.930115
     95          1           0        9.253642   -3.428243    0.334805
     96          1           0        9.242999   -3.426987   -1.472213
     97          1           0        8.170541   -4.572230   -0.506841
     98          1           0        3.681400   -4.144041    1.028028
     99          1           0        2.857664   -7.591403   -1.574451
    100          1           0        1.965473   -6.225149   -2.532313
    101          1           0        1.279133   -7.129464   -1.256995
    102          1           0       -3.122008   -4.599537   -0.196705
    103          1           0       -2.163632   -3.528789   -1.329844
    104          1           0       -4.010281   -2.040870    0.498620
    105          1           0       -5.956559   -4.713278   -1.975869
    106          1           0       -4.520675   -4.011778   -2.658931
    107          1           0       -5.953324   -3.189949   -2.954470
    108          1           0       -7.017858   -2.044066   -1.374370
    109          1           0       -5.957852   -1.008633   -0.427122
    110          1           0       -6.808362   -3.522722    0.781102
    111          1           0       -8.140045   -2.294817    0.524460
    112          1           0       -6.092474   -0.759728    1.677634
    113          1           0       -5.784112   -2.288702    2.409712
    114          1           0       -8.654149   -2.111922    2.649274
    115          1           0       -6.520259   -1.974125    4.582292
    116          1           0       -8.008463   -2.843363    4.527956
    117          1           0       -7.988056   -1.099362    4.963626
    118          1           0       -7.550431    0.757172    2.619506
    119          1           0       -8.793686    0.237602    3.678164
    120          1           0       -9.693889   -0.716656    1.282042
    121          1           0       -8.608030    0.439927    0.672840
    122          1           0      -10.092861    1.967054    2.486866
    123          1           0      -11.197243    0.652211    2.338572
    124          1           0      -10.375008    1.357384   -0.365284
    125          1           0      -10.196751    3.985541    0.842011
    126          1           0      -11.856695    3.768381    0.972431
    127          1           0      -11.005581    3.813556   -0.505968
    128          1           0      -13.122722    1.677853    0.822335
    129          1           0      -12.329730    0.161298    0.470259
    130          1           0      -12.577521    0.333905   -1.822198
    131          1           0      -12.342133    2.072201   -1.928990
    132          1           0      -14.888777    1.036111   -0.586144
    133          1           0      -14.713204    0.587310   -2.263945
    134          1           0      -13.903562    3.357937   -2.127635
    135          1           0      -16.198006    2.889365   -0.145263
    136          1           0      -16.463885    4.117822   -1.274044
    137          1           0      -15.066547    4.368447   -0.422877
    138          1           0      -14.759161    2.914905   -4.156773
    139          1           0      -16.441548    3.476827   -3.485861
    140          1           0      -16.035399    1.866452   -3.532004
 ---------------------------------------------------------------------

 SCF Done:  E(RwB97XD) =  -3007.84932433     A.U. after   19 cycles

 Excitation energies and oscillator strengths:

 Excited State   1:      Singlet-A      1.6171 eV  766.72 nm  f=0.3653  <S**2>=0.000
     245 -> 248        0.19384
     246 -> 247        0.68042
     245 <- 248        0.11963
 This state for optimization and/or second-order correction.
 Total Energy, E(TD-HF/TD-DFT) =  -3007.78989827
 Copying the excited state density for this state as the 1-particle RhoCI density.

 Excited State   2:      Singlet-A      2.1254 eV  583.34 nm  f=0.1034  <S**2>=0.000
     245 -> 247        0.63563
     246 -> 248       -0.29827

 Excited State   3:      Singlet-A      3.4366 eV  360.77 nm  f=0.5001  <S**2>=0.000
     242 -> 247        0.13586
     243 -> 247        0.29021
     245 -> 247        0.24735
     246 -> 248        0.56419
     245 <- 247       -0.10663

 Excited State   4:      Singlet-A      3.5226 eV  351.97 nm  f=0.0504  <S**2>=0.000
     241 -> 247       -0.10193
     241 -> 249       -0.11479
     242 -> 247       -0.32719
     242 -> 249       -0.25004
     242 -> 250        0.13313
     243 -> 247        0.46434
     243 -> 249        0.10495
     246 -> 248       -0.13632

 Excited State   5:      Singlet-A      3.5958 eV  344.80 nm  f=0.0556  <S**2>=0.000
     239 -> 247       -0.12477
     240 -> 247       -0.34042
     240 -> 248       -0.11373
     240 -> 249        0.12826
     240 -> 250        0.16022
     241 -> 249        0.17672
     242 -> 247        0.34740
     243 -> 247        0.29470
     246 -> 248       -0.10866

 The electronic state is 1-A.
 Alpha  occ. eigenvalues --  -46.95223 -19.30547 -19.28544 -19.24596 -19.23744
 Alpha  occ. eigenvalues --  -19.23656 -19.23574 -14.46501 -14.46026 -14.44363
 Alpha  occ. eigenvalues --  -14.44312 -10.43192 -10.42337 -10.38653 -10.38566
 Alpha  occ. eigenvalues --  -10.36265 -10.35240 -10.34689 -10.34612 -10.34496
 Alpha  occ. eigenvalues --  -10.34235 -10.34058 -10.34015 -10.33879 -10.33532
 Alpha  occ. eigenvalues --  -10.33354 -10.32847 -10.32301 -10.32205 -10.31723
 Alpha  occ. eigenvalues --  -10.31665 -10.31649 -10.31629 -10.31576 -10.31468
 Alpha  occ. eigenvalues --  -10.31444 -10.31239 -10.31114 -10.31043 -10.30694
 Alpha  occ. eigenvalues --  -10.30559 -10.30499 -10.30446 -10.30099 -10.29852
 Alpha  occ. eigenvalues --  -10.29539 -10.29523 -10.29504 -10.29484 -10.29273
 Alpha  occ. eigenvalues --  -10.29269 -10.29238 -10.29184 -10.29055 -10.29023
 Alpha  occ. eigenvalues --  -10.28946 -10.28884 -10.28872 -10.28851 -10.28648
 Alpha  occ. eigenvalues --  -10.28555 -10.28488 -10.28421 -10.28399 -10.28376
 Alpha  occ. eigenvalues --  -10.27935  -3.21195  -1.94774  -1.94312  -1.94174
 Alpha  occ. eigenvalues --   -1.18406  -1.15759  -1.12118  -1.11287  -1.09652
 Alpha  occ. eigenvalues --   -1.08094  -1.06725  -1.05009  -1.04245  -1.03481
 Alpha  occ. eigenvalues --   -0.93311  -0.92845  -0.91652  -0.91322  -0.91046
 Alpha  occ. eigenvalues --   -0.90063  -0.89882  -0.89644  -0.88706  -0.88196
 Alpha  occ. eigenvalues --   -0.88134  -0.87420  -0.86346  -0.85550  -0.85170
 Alpha  occ. eigenvalues --   -0.84478  -0.84024  -0.83189  -0.82666  -0.81652
 Alpha  occ. eigenvalues --   -0.81453  -0.80196  -0.79822  -0.79481  -0.77677
 Alpha  occ. eigenvalues --   -0.77422  -0.76959  -0.76895  -0.76812  -0.75806
 Alpha  occ. eigenvalues --   -0.75280  -0.74563  -0.73061  -0.72568  -0.71751
 Alpha  occ. eigenvalues --   -0.70467  -0.70113  -0.69067  -0.68263  -0.67481
 Alpha  occ. eigenvalues --   -0.67260  -0.67015  -0.66461  -0.66080  -0.65821
 Alpha  occ. eigenvalues --   -0.65537  -0.65299  -0.64948  -0.62843  -0.61875
 Alpha  occ. eigenvalues --   -0.61655  -0.61459  -0.60835  -0.59913  -0.59570
 Alpha  occ. eigenvalues --   -0.59185  -0.58417  -0.58187  -0.57840  -0.57509
 Alpha  occ. eigenvalues --   -0.56767  -0.56694  -0.56393  -0.56132  -0.55560
 Alpha  occ. eigenvalues --   -0.55392  -0.55081  -0.54849  -0.54777  -0.54440
 Alpha  occ. eigenvalues --   -0.54182  -0.54067  -0.53764  -0.53699  -0.53414
 Alpha  occ. eigenvalues --   -0.53212  -0.53034  -0.52757  -0.52465  -0.52328
 Alpha  occ. eigenvalues --   -0.51860  -0.51753  -0.51572  -0.51515  -0.51415
 Alpha  occ. eigenvalues --   -0.51351  -0.51095  -0.50892  -0.50862  -0.50680
 Alpha  occ. eigenvalues --   -0.50317  -0.49969  -0.49829  -0.49676  -0.49504
 Alpha  occ. eigenvalues --   -0.49385  -0.49269  -0.49004  -0.48730  -0.48610
 Alpha  occ. eigenvalues --   -0.48183  -0.47845  -0.47746  -0.47641  -0.47441
 Alpha  occ. eigenvalues --   -0.47386  -0.47048  -0.46858  -0.46660  -0.46512
 Alpha  occ. eigenvalues --   -0.46319  -0.45911  -0.45816  -0.45780  -0.45519
 Alpha  occ. eigenvalues --   -0.45234  -0.45216  -0.45191  -0.45012  -0.44838
 Alpha  occ. eigenvalues --   -0.44704  -0.44535  -0.44090  -0.43899  -0.43791
 Alpha  occ. eigenvalues --   -0.43683  -0.43391  -0.42900  -0.42847  -0.42653
 Alpha  occ. eigenvalues --   -0.42507  -0.42427  -0.42399  -0.42262  -0.42056
 Alpha  occ. eigenvalues --   -0.42001  -0.41548  -0.40843  -0.40779  -0.40657
 Alpha  occ. eigenvalues --   -0.40363  -0.40040  -0.39738  -0.39408  -0.39146
 Alpha  occ. eigenvalues --   -0.39082  -0.39048  -0.38443  -0.38042  -0.37845
 Alpha  occ. eigenvalues --   -0.37364  -0.36894  -0.36575  -0.35969  -0.35692
 Alpha  occ. eigenvalues --   -0.35413  -0.35210  -0.34770  -0.33396  -0.32866
 Alpha  occ. eigenvalues --   -0.32765  -0.32353  -0.32030  -0.31426  -0.25504
 Alpha  occ. eigenvalues --   -0.22681
 Alpha virt. eigenvalues --   -0.06831   0.00027   0.02381   0.04179   0.05485
 Alpha virt. eigenvalues --    0.06549   0.07326   0.08118   0.08593   0.09888
 Alpha virt. eigenvalues --    0.10685   0.11472   0.12156   0.12513   0.12614

 Mulliken charges:
               1
     1  Mg   0.960616
     2  C   -0.084616
     3  C   -0.064042
     4  C   -0.081616
     5  C   -0.063292
     6  N   -0.340577
     7  C    0.064317
     8  C   -0.017674
     9  C   -0.131380
    10  C    0.057428
    11  C    0.003970
    12  C    0.056709
    13  C    0.028527
    14  C    0.160007
    15  O   -0.271083
    16  O   -0.374529
    17  N   -0.490236
    18  C    0.164136
    19  C   -0.146804
    20  C   -0.068736
    21  C    0.142604
    22  C    0.046897
    23  C    0.027081
    24  O   -0.250824
    25  C   -0.005735
    26  N   -0.363871
    27  C    0.108832
    28  C   -0.105036
    29  C   -0.050692
    30  C    0.028791
    31  C    0.022404
    32  C   -0.004102
    33  C   -0.056572
    34  N   -0.429636
    35  C    0.108212
    36  C   -0.196664
    37  C   -0.014210
    38  C    0.168193
    39  C    0.064743
    40  C    0.072872
    41  O   -0.201887
    42  C   -0.061154
    43  C    0.300051
    44  O   -0.259679
    45  O   -0.372330
    46  C    0.149559
    47  C    0.272490
    48  C   -0.159035
    49  C   -0.240181
    50  C    0.040308
    51  C    0.022070
    52  C    0.002923
    53  C    0.021413
    54  C   -0.202226
    55  C    0.004681
    56  C    0.031171
    57  C   -0.051841
    58  C    0.040301
    59  C   -0.149239
    60  C   -0.026903
    61  C    0.000769
    62  C   -0.044499
    63  C   -0.003529
    64  C   -0.210006
    65  C   -0.014072
    66  C   -0.009776
    67  H   -0.018530
    68  H    0.014340
    69  H    0.003486
    70  H    0.058832
    71  H    0.037826
    72  H    0.048235
    73  H    0.027315
    74  H    0.033046
    75  H    0.037617
    76  H    0.028856
    77  H    0.043922
    78  H    0.055601
    79  H    0.062665
    80  H    0.040453
    81  H    0.036984
    82  H    0.048116
    83  H    0.071556
    84  H    0.056232
    85  H    0.032524
    86  H    0.030226
    87  H    0.031640
    88  H    0.060431
    89  H    0.033754
    90  H    0.024383
    91  H    0.035502
    92  H    0.041219
    93  H    0.045537
    94  H    0.040813
    95  H    0.051377
    96  H    0.051427
    97  H    0.061354
    98  H    0.079755
    99  H    0.054674
   100  H    0.065175
   101  H    0.036139
   102  H    0.056739
   103  H    0.068989
   104  H    0.031354
   105  H    0.055548
   106  H    0.023292
   107  H    0.044534
   108  H   -0.001448
   109  H    0.028037
   110  H    0.025287
   111  H    0.028909
   112  H    0.011772
   113  H    0.024732
   114  H    0.023251
   115  H    0.019528
   116  H    0.030529
   117  H    0.014671
   118  H    0.018078
   119  H    0.004390
   120  H    0.008305
   121  H    0.021989
   122  H    0.019023
   123  H    0.015539
   124  H    0.021735
   125  H    0.019136
   126  H    0.021067
   127  H    0.010141
   128  H    0.025587
   129  H    0.017109
   130  H    0.019475
   131  H    0.030412
   132  H    0.024267
   133  H    0.019528
   134  H    0.031599
   135  H    0.038319
   136  H    0.004411
   137  H    0.034521
   138  H    0.042468
   139  H    0.035578
   140  H    0.015320
 Sum of Mulliken charges =  -0.00000

 Dipole moment (field-independent basis, Debye):
    X=             -3.7172    Y=              2.4035    Z=              2.6208  Tot=              5.1442
 Quadrupole moment (field-independent basis, Debye-Ang):
   XX=           -366.6841   YY=           -423.1783   ZZ=           -402.9701
   XY=             11.7315   XZ=             13.2862   YZ=             -6.3166

 Normal termination of Gaussian 16 at Thu May  5 12:19:35 2022.
