 Gaussian 16, Revision A.03,
 Gaussian 16:  ES64L-G16RevA.03 25-Dec-2016

 --------------------
 #p ZINDO=(nstates=5)
 --------------------

 -----------------------------
 step_851_chromophore_24 ZINDO
 -----------------------------
 Symbolic Z-matrix:
 Charge =  0 Multiplicity = 1

                         Standard orientation:
 ---------------------------------------------------------------------
 Center     Atomic      Atomic             Coordinates (Angstroms)
 Number     Number       Type             X           Y           Z
 ---------------------------------------------------------------------
      1         12           0        5.333544    1.048596    0.005494
      2          6           0        3.986586   -2.264894   -0.097256
      3          6           0        2.085453    2.192983   -0.100263
      4          6           0        6.580142    4.039082   -0.340740
      5          6           0        8.603371   -0.365763   -0.313693
      6          7           0        3.209303   -0.025236   -0.113686
      7          6           0        2.903178   -1.385302   -0.075518
      8          6           0        1.410303   -1.549166    0.270124
      9          6           0        0.850853   -0.078421    0.182389
     10          6           0        2.124302    0.796410   -0.003739
     11          6           0       -0.215134    0.247825   -0.870933
     12          6           0        1.217423   -2.175716    1.694425
     13          6           0        0.271960   -3.320862    1.880568
     14          6           0       -0.625287   -3.816576    0.734945
     15          8           0       -0.270138   -4.674336   -0.071221
     16          8           0       -1.851186   -3.205618    0.694375
     17          7           0        4.467650    2.881258   -0.244039
     18          6           0        3.133649    3.202034   -0.134657
     19          6           0        2.939529    4.643670   -0.069396
     20          6           0        4.287231    5.227821   -0.002968
     21          6           0        5.195841    4.060775   -0.195394
     22          6           0        1.514187    5.315133   -0.134192
     23          6           0        4.738854    6.635601    0.210807
     24          8           0        5.929169    6.951331    0.339944
     25          6           0        3.687831    7.639917    0.437181
     26          7           0        7.311763    1.739708   -0.126643
     27          6           0        7.543993    3.037273   -0.319347
     28          6           0        8.999503    3.301294   -0.451903
     29          6           0        9.699478    1.863833   -0.137245
     30          6           0        8.506047    1.059083   -0.146523
     31          6           0        9.434892    3.989469   -1.694291
     32          6           0       10.566446    1.803112    1.170278
     33          6           0        9.861307    1.343880    2.463502
     34          7           0        6.135569   -0.844079   -0.304001
     35          6           0        7.481791   -1.257436   -0.367935
     36          6           0        7.500370   -2.713384   -0.575415
     37          6           0        6.209546   -3.139557   -0.437752
     38          6           0        5.368578   -1.933719   -0.339176
     39          6           0        8.663763   -3.601277   -0.565779
     40          6           0        5.356540   -4.275124   -0.335620
     41          8           0        5.638172   -5.448255   -0.505223
     42          6           0        3.885505   -3.822505    0.005850
     43          6           0        3.030724   -4.475413   -1.009559
     44          8           0        2.714402   -3.945084   -2.081958
     45          8           0        2.683162   -5.751703   -0.573955
     46          6           0        2.226076   -6.702892   -1.588515
     47          6           0       -2.741924   -3.599863   -0.408066
     48          6           0       -3.991835   -2.771207   -0.309509
     49          6           0       -5.190284   -2.915721   -0.975404
     50          6           0       -5.461681   -3.761566   -2.167281
     51          6           0       -6.322300   -2.029957   -0.536427
     52          6           0       -7.079196   -2.469414    0.705163
     53          6           0       -6.573171   -1.701654    1.939998
     54          6           0       -7.823134   -1.441729    2.864942
     55          6           0       -7.571339   -1.868736    4.313427
     56          6           0       -8.340769    0.012099    2.712468
     57          6           0       -9.230481    0.234297    1.543270
     58          6           0      -10.405812    1.176611    1.803533
     59          6           0      -10.976742    1.739633    0.459423
     60          6           0      -10.990019    3.334093    0.474061
     61          6           0      -12.421383    1.196778    0.141494
     62          6           0      -12.805381    1.283174   -1.337186
     63          6           0      -14.447898    1.349981   -1.532025
     64          6           0      -14.826088    2.793608   -1.989898
     65          6           0      -15.653312    3.543404   -0.826481
     66          6           0      -15.558518    2.839861   -3.419732
     67          1           0        1.058101    2.563674   -0.124983
     68          1           0        6.988265    5.039705   -0.498233
     69          1           0        9.571386   -0.864159   -0.400724
     70          1           0        0.789424   -2.027883   -0.487734
     71          1           0        0.329626    0.265334    1.074762
     72          1           0        0.067597    0.851658   -1.733626
     73          1           0       -1.032871    0.803464   -0.412948
     74          1           0       -0.633539   -0.689341   -1.237065
     75          1           0        0.988633   -1.457172    2.481823
     76          1           0        2.160342   -2.618591    2.015200
     77          1           0       -0.436784   -3.173653    2.694596
     78          1           0        0.787927   -4.255646    2.100411
     79          1           0        1.366989    5.798807   -1.100035
     80          1           0        1.332059    6.088395    0.611895
     81          1           0        0.692564    4.621165    0.045104
     82          1           0        4.214818    8.594943    0.459651
     83          1           0        3.299970    7.416816    1.430644
     84          1           0        2.970560    7.683104   -0.381689
     85          1           0        9.367941    3.980780    0.316683
     86          1           0       10.303931    1.648631   -1.018104
     87          1           0       10.520422    3.890169   -1.718188
     88          1           0        9.165553    5.045072   -1.731805
     89          1           0        9.021271    3.402329   -2.514107
     90          1           0       10.816788    2.811980    1.497490
     91          1           0       11.537631    1.367482    0.932594
     92          1           0        8.889380    0.947507    2.170483
     93          1           0        9.670758    2.159389    3.161120
     94          1           0       10.348348    0.487920    2.930115
     95          1           0        9.253642   -3.428243    0.334805
     96          1           0        9.242999   -3.426987   -1.472213
     97          1           0        8.170541   -4.572230   -0.506841
     98          1           0        3.681400   -4.144041    1.028028
     99          1           0        2.857664   -7.591403   -1.574451
    100          1           0        1.965473   -6.225149   -2.532313
    101          1           0        1.279133   -7.129464   -1.256995
    102          1           0       -3.122008   -4.599537   -0.196705
    103          1           0       -2.163632   -3.528789   -1.329844
    104          1           0       -4.010281   -2.040870    0.498620
    105          1           0       -5.956559   -4.713278   -1.975869
    106          1           0       -4.520675   -4.011778   -2.658931
    107          1           0       -5.953324   -3.189949   -2.954470
    108          1           0       -7.017858   -2.044066   -1.374370
    109          1           0       -5.957852   -1.008633   -0.427122
    110          1           0       -6.808362   -3.522722    0.781102
    111          1           0       -8.140045   -2.294817    0.524460
    112          1           0       -6.092474   -0.759728    1.677634
    113          1           0       -5.784112   -2.288702    2.409712
    114          1           0       -8.654149   -2.111922    2.649274
    115          1           0       -6.520259   -1.974125    4.582292
    116          1           0       -8.008463   -2.843363    4.527956
    117          1           0       -7.988056   -1.099362    4.963626
    118          1           0       -7.550431    0.757172    2.619506
    119          1           0       -8.793686    0.237602    3.678164
    120          1           0       -9.693889   -0.716656    1.282042
    121          1           0       -8.608030    0.439927    0.672840
    122          1           0      -10.092861    1.967054    2.486866
    123          1           0      -11.197243    0.652211    2.338572
    124          1           0      -10.375008    1.357384   -0.365284
    125          1           0      -10.196751    3.985541    0.842011
    126          1           0      -11.856695    3.768381    0.972431
    127          1           0      -11.005581    3.813556   -0.505968
    128          1           0      -13.122722    1.677853    0.822335
    129          1           0      -12.329730    0.161298    0.470259
    130          1           0      -12.577521    0.333905   -1.822198
    131          1           0      -12.342133    2.072201   -1.928990
    132          1           0      -14.888777    1.036111   -0.586144
    133          1           0      -14.713204    0.587310   -2.263945
    134          1           0      -13.903562    3.357937   -2.127635
    135          1           0      -16.198006    2.889365   -0.145263
    136          1           0      -16.463885    4.117822   -1.274044
    137          1           0      -15.066547    4.368447   -0.422877
    138          1           0      -14.759161    2.914905   -4.156773
    139          1           0      -16.441548    3.476827   -3.485861
    140          1           0      -16.035399    1.866452   -3.532004
 ---------------------------------------------------------------------

 SCF Done:  E(RZINDO/S) =  -474.097649841     A.U. after   20 cycles

 Excitation energies and oscillator strengths:

 Excited State   1:      Singlet-A      1.2130 eV 1022.14 nm  f=0.6048  <S**2>=0.000
     175 ->178         0.19741
     176 ->177         0.66102
 This state for optimization and/or second-order correction.
 Total Energy, E(CIS/TDA) =  -474.053073358
 Copying the excited state density for this state as the 1-particle RhoCI density.

 Excited State   2:      Singlet-A      1.8797 eV  659.59 nm  f=0.0369  <S**2>=0.000
     175 ->177         0.54140
     176 ->178        -0.43281

 Excited State   3:      Singlet-A      2.8998 eV  427.56 nm  f=0.0340  <S**2>=0.000
     168 ->177         0.29168
     168 ->179         0.38818
     168 ->180        -0.20357
     168 ->186         0.16943
     169 ->179         0.10733
     171 ->177         0.11972
     171 ->179         0.11577
     176 ->179         0.19600

 Excited State   4:      Singlet-A      2.9418 eV  421.45 nm  f=0.1292  <S**2>=0.000
     168 ->179        -0.10654
     169 ->177        -0.12168
     169 ->180         0.12966
     170 ->180         0.10109
     175 ->177        -0.13278
     176 ->178        -0.16987
     176 ->179         0.55584
     176 ->180         0.14992

 Excited State   5:      Singlet-A      2.9600 eV  418.87 nm  f=0.7326  <S**2>=0.000
     168 ->177        -0.11507
     168 ->179        -0.11464
     169 ->179        -0.11555
     169 ->180        -0.11935
     175 ->177         0.32311
     176 ->178         0.42167
     176 ->179         0.28843

 The electronic state is 1-A.
 Alpha  occ. eigenvalues --   -1.84039  -1.81039  -1.77013  -1.72723  -1.70078
 Alpha  occ. eigenvalues --   -1.69102  -1.65870  -1.59288  -1.58355  -1.57473
 Alpha  occ. eigenvalues --   -1.54337  -1.49937  -1.48816  -1.48294  -1.46292
 Alpha  occ. eigenvalues --   -1.43393  -1.42096  -1.41320  -1.37617  -1.37597
 Alpha  occ. eigenvalues --   -1.36081  -1.35235  -1.32592  -1.30708  -1.28899
 Alpha  occ. eigenvalues --   -1.26912  -1.24455  -1.22088  -1.21167  -1.17570
 Alpha  occ. eigenvalues --   -1.17113  -1.15097  -1.14918  -1.14823  -1.13107
 Alpha  occ. eigenvalues --   -1.12869  -1.10348  -1.09649  -1.04630  -1.03665
 Alpha  occ. eigenvalues --   -1.03005  -1.00677  -0.98821  -0.98328  -0.97025
 Alpha  occ. eigenvalues --   -0.96526  -0.94586  -0.93795  -0.92810  -0.92187
 Alpha  occ. eigenvalues --   -0.90963  -0.89787  -0.89670  -0.87989  -0.87657
 Alpha  occ. eigenvalues --   -0.85445  -0.84080  -0.83174  -0.81723  -0.80275
 Alpha  occ. eigenvalues --   -0.79967  -0.77448  -0.76879  -0.76590  -0.76094
 Alpha  occ. eigenvalues --   -0.75691  -0.74836  -0.74387  -0.74374  -0.73116
 Alpha  occ. eigenvalues --   -0.72835  -0.72004  -0.71703  -0.71208  -0.70301
 Alpha  occ. eigenvalues --   -0.70044  -0.69010  -0.68310  -0.67958  -0.67873
 Alpha  occ. eigenvalues --   -0.67398  -0.66726  -0.66183  -0.65941  -0.65140
 Alpha  occ. eigenvalues --   -0.64811  -0.64422  -0.64124  -0.63862  -0.63594
 Alpha  occ. eigenvalues --   -0.63446  -0.63139  -0.62720  -0.62223  -0.61623
 Alpha  occ. eigenvalues --   -0.61104  -0.60771  -0.60320  -0.60147  -0.60051
 Alpha  occ. eigenvalues --   -0.59962  -0.59729  -0.59193  -0.58877  -0.58527
 Alpha  occ. eigenvalues --   -0.57679  -0.57267  -0.56940  -0.56578  -0.56465
 Alpha  occ. eigenvalues --   -0.55446  -0.55274  -0.55258  -0.54889  -0.54589
 Alpha  occ. eigenvalues --   -0.54506  -0.53539  -0.53357  -0.53077  -0.52722
 Alpha  occ. eigenvalues --   -0.52667  -0.52307  -0.51482  -0.51086  -0.50545
 Alpha  occ. eigenvalues --   -0.50237  -0.50088  -0.50021  -0.49690  -0.49604
 Alpha  occ. eigenvalues --   -0.49477  -0.49327  -0.49130  -0.49034  -0.48880
 Alpha  occ. eigenvalues --   -0.48639  -0.48564  -0.48111  -0.47991  -0.47958
 Alpha  occ. eigenvalues --   -0.47793  -0.47487  -0.47342  -0.46629  -0.46128
 Alpha  occ. eigenvalues --   -0.46056  -0.45639  -0.45622  -0.45221  -0.44961
 Alpha  occ. eigenvalues --   -0.44732  -0.44645  -0.44163  -0.43919  -0.43824
 Alpha  occ. eigenvalues --   -0.43283  -0.43138  -0.42488  -0.42228  -0.42058
 Alpha  occ. eigenvalues --   -0.41980  -0.41580  -0.40344  -0.38348  -0.38116
 Alpha  occ. eigenvalues --   -0.37760  -0.36982  -0.35097  -0.34871  -0.34092
 Alpha  occ. eigenvalues --   -0.33560  -0.32350  -0.32097  -0.31243  -0.26269
 Alpha  occ. eigenvalues --   -0.21368
 Alpha virt. eigenvalues --   -0.08354  -0.01990  -0.00596   0.01240   0.02207
 Alpha virt. eigenvalues --    0.02336   0.03085   0.03307   0.04476   0.05261
 Alpha virt. eigenvalues --    0.06491   0.07163   0.07552   0.07734   0.08151

 Mulliken charges:
               1
     1  Mg   0.431733
     2  C   -0.046606
     3  C   -0.086551
     4  C   -0.058907
     5  C   -0.084684
     6  N   -0.310478
     7  C    0.137700
     8  C    0.020579
     9  C   -0.002785
    10  C    0.123518
    11  C   -0.049619
    12  C   -0.010713
    13  C    0.007256
    14  C    0.462465
    15  O   -0.521325
    16  O   -0.277468
    17  N   -0.318588
    18  C    0.102521
    19  C   -0.013122
    20  C   -0.060369
    21  C    0.128719
    22  C   -0.043097
    23  C    0.334737
    24  O   -0.541818
    25  C   -0.031174
    26  N   -0.266075
    27  C    0.142225
    28  C    0.002424
    29  C    0.001352
    30  C    0.154690
    31  C   -0.043220
    32  C   -0.029022
    33  C   -0.054863
    34  N   -0.307336
    35  C    0.083640
    36  C    0.048374
    37  C   -0.048948
    38  C    0.125244
    39  C   -0.041137
    40  C    0.340121
    41  O   -0.519252
    42  C    0.051142
    43  C    0.498416
    44  O   -0.528447
    45  O   -0.264065
    46  C    0.072013
    47  C    0.110285
    48  C   -0.098411
    49  C   -0.008907
    50  C   -0.038057
    51  C   -0.025579
    52  C   -0.031084
    53  C   -0.032457
    54  C   -0.016986
    55  C   -0.061533
    56  C   -0.029137
    57  C   -0.029185
    58  C   -0.029237
    59  C   -0.011025
    60  C   -0.073112
    61  C   -0.028989
    62  C   -0.045114
    63  C   -0.044489
    64  C   -0.017929
    65  C   -0.070832
    66  C   -0.067646
    67  H    0.020883
    68  H    0.035170
    69  H    0.033981
    70  H    0.056732
    71  H    0.025257
    72  H    0.027703
    73  H    0.012160
    74  H    0.018703
    75  H    0.027495
    76  H    0.019032
    77  H    0.029739
    78  H    0.037303
    79  H    0.031214
    80  H    0.022041
    81  H    0.024880
    82  H    0.030360
    83  H    0.048407
    84  H    0.038370
    85  H    0.025331
    86  H    0.030210
    87  H    0.011963
    88  H    0.033688
    89  H    0.020224
    90  H    0.015715
    91  H    0.026984
    92  H    0.020693
    93  H    0.028368
    94  H    0.021133
    95  H    0.031951
    96  H    0.037380
    97  H    0.040319
    98  H    0.060515
    99  H    0.045104
   100  H    0.059685
   101  H    0.025092
   102  H    0.051437
   103  H    0.064092
   104  H    0.030427
   105  H    0.036845
   106  H    0.011746
   107  H    0.026430
   108  H    0.005530
   109  H    0.023049
   110  H    0.025557
   111  H    0.026604
   112  H    0.023388
   113  H    0.020660
   114  H    0.021818
   115  H    0.013822
   116  H    0.016950
   117  H    0.016218
   118  H    0.014906
   119  H    0.013722
   120  H    0.008316
   121  H    0.022760
   122  H    0.018146
   123  H    0.019982
   124  H    0.024459
   125  H    0.020544
   126  H    0.015086
   127  H    0.007483
   128  H    0.024473
   129  H    0.015184
   130  H    0.012514
   131  H    0.033081
   132  H    0.024481
   133  H    0.019184
   134  H    0.022296
   135  H    0.032172
   136  H    0.005331
   137  H    0.026097
   138  H    0.028719
   139  H    0.032700
   140  H    0.010229
 Sum of Mulliken charges =  -0.00000

 Dipole moment (field-independent basis, Debye):
    X=             -3.8845    Y=              1.9401    Z=              4.5035  Tot=              6.2558
 N-N= 4.315569700223D+03 E-N= 0.000000000000D+00  KE=-9.306022159381D+03
 Leave Link  601 at Thu May  5 12:31:41 2022, MaxMem=  6710886400 cpu:               0.8 elap:               0.1
 (Enter /sw/apps/gaussian-16.0/g16/l9999.exe)
 1\1\GINC-BP1-COMPUTE100\SP\RZINDO CIS\STO-3G\C55H74Mg1N4O6\OF15641\05-
 May-2022\0\\#p ZINDO=(nstates=5)\\step_851_chromophore_24 ZINDO\\0,1\M
 g,0,-0.791,44.659,24.214\C,0,0.985,43.919,27.231\C,0,-3.693,44.063,25.
 973\C,0,-2.362,44.905,21.37\C,0,2.349,44.814,22.508\N,0,-1.255,44.011,
 26.46\C,0,-0.376,43.833,27.528\C,0,-1.179,43.864,28.843\C,0,-2.678,43.
 84,28.357\C,0,-2.574,44.004,26.813\C,0,-3.562,42.646,28.738\C,0,-0.847
 ,45.143,29.687\C,0,-0.536,45.011,31.145\C,0,-0.667,43.665,31.876\O,0,0

 Normal termination of Gaussian 16 at Thu May  5 12:31:41 2022.
