 Gaussian 16, Revision A.03,
 Gaussian 16:  ES64L-G16RevA.03 25-Dec-2016

 ------------------------------
 #p blyp/Def2SVP td=(nstates=5)
 ------------------------------

 -------------------------------------------------
 step_901_chromophore_3 TDDFT with blyp functional
 -------------------------------------------------
 Symbolic Z-matrix:
 Charge =  0 Multiplicity = 1

                         Standard orientation:
 ---------------------------------------------------------------------
 Center     Atomic      Atomic             Coordinates (Angstroms)
 Number     Number       Type             X           Y           Z
 ---------------------------------------------------------------------
      1         12           0       -5.308994    0.797901   -0.282124
      2          6           0       -4.272166   -2.499434    0.042632
      3          6           0       -1.975054    1.820233    0.028597
      4          6           0       -6.500230    3.884433   -0.010076
      5          6           0       -8.600262   -0.372042   -0.013710
      6          7           0       -3.334900   -0.190200   -0.010977
      7          6           0       -3.196474   -1.609263   -0.001070
      8          6           0       -1.720161   -1.994783   -0.214862
      9          6           0       -1.020039   -0.567342   -0.008776
     10          6           0       -2.168353    0.411259   -0.062389
     11          6           0       -0.171549   -0.353488    1.217695
     12          6           0       -1.475785   -2.690805   -1.562427
     13          6           0        0.060253   -2.798658   -1.915843
     14          6           0        1.079994   -2.913108   -0.797974
     15          8           0        1.054076   -3.761761    0.084569
     16          8           0        2.126478   -1.995436   -1.085718
     17          7           0       -4.329230    2.563097   -0.020501
     18          6           0       -2.983821    2.808787    0.176384
     19          6           0       -2.798809    4.220985    0.270523
     20          6           0       -4.089651    4.844458    0.267001
     21          6           0       -5.063482    3.727795    0.088201
     22          6           0       -1.433079    4.908612    0.315378
     23          6           0       -4.448830    6.273719    0.562102
     24          8           0       -5.623621    6.661048    0.638788
     25          6           0       -3.383532    7.279647    0.770049
     26          7           0       -7.318902    1.687551   -0.181133
     27          6           0       -7.503467    2.974978   -0.133618
     28          6           0       -9.061917    3.350751   -0.039096
     29          6           0       -9.705999    1.941027    0.020913
     30          6           0       -8.457709    1.026197   -0.054268
     31          6           0       -9.334727    4.362116    1.179954
     32          6           0      -10.696537    1.695414   -1.123317
     33          6           0      -12.168513    1.470836   -0.702799
     34          7           0       -6.351512   -1.057543   -0.075115
     35          6           0       -7.658818   -1.345685   -0.023229
     36          6           0       -7.879159   -2.771499    0.151562
     37          6           0       -6.523281   -3.305067    0.179507
     38          6           0       -5.634779   -2.225075    0.049539
     39          6           0       -9.209349   -3.554013    0.273619
     40          6           0       -5.787210   -4.515404    0.221482
     41          8           0       -6.176305   -5.659992    0.364881
     42          6           0       -4.291833   -4.006806    0.010292
     43          6           0       -3.573528   -4.596296    1.106564
     44          8           0       -3.794068   -4.294565    2.326272
     45          8           0       -2.441395   -5.295257    0.657408
     46          6           0       -1.600761   -6.031446    1.638139
     47          6           0        3.324923   -2.252314   -0.235157
     48          6           0        4.539643   -1.896719   -1.070099
     49          6           0        5.622258   -2.684029   -1.223891
     50          6           0        5.633123   -4.150089   -0.636419
     51          6           0        6.619595   -2.372007   -2.374243
     52          6           0        7.058953   -0.883451   -2.450585
     53          6           0        8.516246   -0.587275   -2.994602
     54          6           0        9.268618    0.339143   -2.036322
     55          6           0        9.588426   -0.490687   -0.778049
     56          6           0       10.403081    1.016620   -2.762766
     57          6           0       10.727037    2.499923   -2.345517
     58          6           0       12.158957    2.857272   -1.848418
     59          6           0       12.351162    2.997997   -0.349332
     60          6           0       12.856809    4.354366    0.103028
     61          6           0       13.184594    1.821228    0.231828
     62          6           0       13.019380    1.606802    1.709818
     63          6           0       12.399016    0.212452    2.074521
     64          6           0       11.951736    0.033826    3.582436
     65          6           0       13.261988   -0.329644    4.346468
     66          6           0       10.822146   -1.032226    3.664014
     67          1           0       -0.930087    2.138874    0.026147
     68          1           0       -6.940798    4.874150    0.126413
     69          1           0       -9.617791   -0.768990   -0.006561
     70          1           0       -1.437463   -2.719432    0.548905
     71          1           0       -0.410708   -0.416131   -0.899937
     72          1           0       -0.563311    0.405294    1.895416
     73          1           0        0.846012   -0.055288    0.968507
     74          1           0       -0.262514   -1.286720    1.774199
     75          1           0       -1.978192   -2.079436   -2.312014
     76          1           0       -1.930306   -3.660463   -1.357238
     77          1           0        0.298590   -1.910467   -2.499502
     78          1           0        0.232233   -3.644618   -2.582163
     79          1           0       -0.590428    4.218030    0.343837
     80          1           0       -1.356425    5.577240    1.172871
     81          1           0       -1.155040    5.481542   -0.569051
     82          1           0       -3.711089    8.318254    0.725422
     83          1           0       -2.558296    7.181180    0.064691
     84          1           0       -3.064801    7.124234    1.800562
     85          1           0       -9.331085    3.919547   -0.929183
     86          1           0      -10.247548    1.863371    0.964230
     87          1           0       -9.856725    3.728885    1.896645
     88          1           0       -9.869322    5.297777    1.018768
     89          1           0       -8.393194    4.609307    1.671919
     90          1           0      -10.477186    0.812006   -1.722654
     91          1           0      -10.608569    2.540876   -1.805329
     92          1           0      -12.622721    2.441134   -0.900636
     93          1           0      -12.215776    1.196073    0.350276
     94          1           0      -12.596695    0.654858   -1.284661
     95          1           0       -9.974466   -3.270573   -0.447918
     96          1           0       -9.530076   -3.370706    1.299804
     97          1           0       -9.300598   -4.639451    0.311194
     98          1           0       -3.920129   -4.356747   -0.952591
     99          1           0       -1.883300   -5.958175    2.688485
    100          1           0       -0.577706   -5.658381    1.584631
    101          1           0       -1.550858   -7.086423    1.368591
    102          1           0        3.349599   -3.336187   -0.117201
    103          1           0        3.097158   -1.807708    0.733583
    104          1           0        4.526959   -0.981493   -1.662363
    105          1           0        5.058568   -4.763990   -1.329055
    106          1           0        5.172590   -4.262941    0.345193
    107          1           0        6.588071   -4.671576   -0.584082
    108          1           0        6.024569   -2.545452   -3.270983
    109          1           0        7.543436   -2.949228   -2.376778
    110          1           0        6.823583   -0.285455   -1.569221
    111          1           0        6.553132   -0.484078   -3.329786
    112          1           0        8.366015   -0.137173   -3.975308
    113          1           0        9.062951   -1.524210   -3.103417
    114          1           0        8.552411    1.073905   -1.669624
    115          1           0        9.040879   -1.432722   -0.747843
    116          1           0        9.203659    0.044291    0.090404
    117          1           0       10.630210   -0.763509   -0.611946
    118          1           0       10.226393    1.038364   -3.837685
    119          1           0       11.307237    0.428705   -2.605379
    120          1           0        9.977335    2.584346   -1.559572
    121          1           0       10.359238    3.245981   -3.051314
    122          1           0       12.579671    3.673581   -2.435902
    123          1           0       12.841577    2.044727   -2.097335
    124          1           0       11.342386    2.986110    0.062728
    125          1           0       12.084006    4.911643    0.634063
    126          1           0       13.150864    4.963457   -0.750924
    127          1           0       13.746295    4.181936    0.708080
    128          1           0       14.256612    1.757010    0.044696
    129          1           0       12.912973    0.864288   -0.212821
    130          1           0       12.507660    2.334525    2.339713
    131          1           0       14.039266    1.439820    2.057383
    132          1           0       13.159973   -0.505042    1.765567
    133          1           0       11.496739    0.097368    1.473594
    134          1           0       11.704747    1.001331    4.018752
    135          1           0       13.471751    0.334796    5.184129
    136          1           0       14.134164   -0.311191    3.693419
    137          1           0       13.229668   -1.316586    4.807882
    138          1           0       10.313005   -1.107463    2.703230
    139          1           0       10.022319   -0.628389    4.285030
    140          1           0       11.162675   -1.993229    4.048633
 ---------------------------------------------------------------------

 SCF Done:  E(RB-LYP) =  -3007.35508895     A.U. after   22 cycles

 Excitation energies and oscillator strengths:

 Excited State   1:      Singlet-A      1.8242 eV  679.68 nm  f=0.2626  <S**2>=0.000
     244 -> 247        0.18670
     245 -> 248       -0.19095
     246 -> 247        0.66355
     246 <- 247       -0.14461
 This state for optimization and/or second-order correction.
 Total Energy, E(TD-HF/TD-DFT) =  -3007.28805235
 Copying the excited state density for this state as the 1-particle RhoCI density.

 Excited State   2:      Singlet-A      1.8575 eV  667.46 nm  f=0.0245  <S**2>=0.000
     244 -> 247        0.67945
     246 -> 247       -0.18173

 Excited State   3:      Singlet-A      2.0113 eV  616.44 nm  f=0.0395  <S**2>=0.000
     243 -> 247        0.55059
     245 -> 247        0.41242
     246 -> 248        0.13751

 Excited State   4:      Singlet-A      2.0586 eV  602.28 nm  f=0.0631  <S**2>=0.000
     243 -> 247       -0.44123
     245 -> 247        0.49918
     246 -> 248        0.20862

 Excited State   5:      Singlet-A      2.5175 eV  492.49 nm  f=0.0029  <S**2>=0.000
     240 -> 247       -0.10305
     241 -> 247       -0.12679
     242 -> 247        0.66948

 The electronic state is 1-A.
 Alpha  occ. eigenvalues --  -46.27555 -18.82623 -18.81895 -18.78733 -18.75741
 Alpha  occ. eigenvalues --  -18.75611 -18.74913 -14.03250 -14.02896 -14.01281
 Alpha  occ. eigenvalues --  -14.00406 -10.05231 -10.03395  -9.99443  -9.99158
 Alpha  occ. eigenvalues --   -9.98134  -9.96779  -9.96753  -9.96426  -9.96285
 Alpha  occ. eigenvalues --   -9.96190  -9.95729  -9.95477  -9.94766  -9.94471
 Alpha  occ. eigenvalues --   -9.94285  -9.94218  -9.94141  -9.93944  -9.93921
 Alpha  occ. eigenvalues --   -9.93718  -9.93690  -9.93624  -9.93533  -9.93460
 Alpha  occ. eigenvalues --   -9.93439  -9.93111  -9.93093  -9.93049  -9.93037
 Alpha  occ. eigenvalues --   -9.92651  -9.92648  -9.92420  -9.92341  -9.92105
 Alpha  occ. eigenvalues --   -9.92023  -9.91896  -9.91868  -9.91858  -9.91848
 Alpha  occ. eigenvalues --   -9.91762  -9.91616  -9.91604  -9.91587  -9.91585
 Alpha  occ. eigenvalues --   -9.91323  -9.91171  -9.91142  -9.91089  -9.91018
 Alpha  occ. eigenvalues --   -9.90854  -9.90819  -9.90733  -9.90625  -9.90595
 Alpha  occ. eigenvalues --   -9.90509  -2.92086  -1.72520  -1.71990  -1.71771
 Alpha  occ. eigenvalues --   -0.97266  -0.94985  -0.91294  -0.90775  -0.90358
 Alpha  occ. eigenvalues --   -0.87901  -0.86982  -0.86083  -0.85531  -0.84502
 Alpha  occ. eigenvalues --   -0.76369  -0.73977  -0.73248  -0.72901  -0.72475
 Alpha  occ. eigenvalues --   -0.72330  -0.71320  -0.70818  -0.70667  -0.69990
 Alpha  occ. eigenvalues --   -0.69066  -0.68913  -0.68100  -0.67431  -0.67009
 Alpha  occ. eigenvalues --   -0.66529  -0.65964  -0.65255  -0.64821  -0.64603
 Alpha  occ. eigenvalues --   -0.64095  -0.62549  -0.62256  -0.61451  -0.60939
 Alpha  occ. eigenvalues --   -0.60612  -0.60343  -0.60182  -0.59865  -0.58833
 Alpha  occ. eigenvalues --   -0.58231  -0.57738  -0.56822  -0.56015  -0.54513
 Alpha  occ. eigenvalues --   -0.54313  -0.54000  -0.52675  -0.52165  -0.51654
 Alpha  occ. eigenvalues --   -0.51369  -0.50716  -0.50650  -0.50510  -0.50120
 Alpha  occ. eigenvalues --   -0.49295  -0.49248  -0.49109  -0.47994  -0.46556
 Alpha  occ. eigenvalues --   -0.46384  -0.45810  -0.45723  -0.45364  -0.44607
 Alpha  occ. eigenvalues --   -0.44345  -0.43731  -0.43336  -0.43051  -0.42350
 Alpha  occ. eigenvalues --   -0.42077  -0.42016  -0.41617  -0.41243  -0.41216
 Alpha  occ. eigenvalues --   -0.41057  -0.40631  -0.40221  -0.40121  -0.39983
 Alpha  occ. eigenvalues --   -0.39823  -0.39659  -0.39587  -0.39408  -0.39185
 Alpha  occ. eigenvalues --   -0.38766  -0.38657  -0.38505  -0.38228  -0.38087
 Alpha  occ. eigenvalues --   -0.37903  -0.37715  -0.37407  -0.37378  -0.37302
 Alpha  occ. eigenvalues --   -0.37017  -0.36819  -0.36642  -0.36556  -0.36249
 Alpha  occ. eigenvalues --   -0.36120  -0.35999  -0.35706  -0.35644  -0.35520
 Alpha  occ. eigenvalues --   -0.35292  -0.35156  -0.34955  -0.34773  -0.34348
 Alpha  occ. eigenvalues --   -0.34296  -0.34162  -0.34095  -0.33975  -0.33944
 Alpha  occ. eigenvalues --   -0.33716  -0.33600  -0.33494  -0.33305  -0.33178
 Alpha  occ. eigenvalues --   -0.33035  -0.32673  -0.32655  -0.32452  -0.32361
 Alpha  occ. eigenvalues --   -0.32012  -0.31727  -0.31503  -0.31270  -0.31030
 Alpha  occ. eigenvalues --   -0.30911  -0.30848  -0.30780  -0.30697  -0.30439
 Alpha  occ. eigenvalues --   -0.30237  -0.30104  -0.30000  -0.29779  -0.29684
 Alpha  occ. eigenvalues --   -0.29562  -0.29434  -0.29237  -0.29122  -0.28947
 Alpha  occ. eigenvalues --   -0.28791  -0.28421  -0.28303  -0.28087  -0.27895
 Alpha  occ. eigenvalues --   -0.27431  -0.27303  -0.27138  -0.26761  -0.26578
 Alpha  occ. eigenvalues --   -0.26479  -0.26125  -0.25996  -0.25804  -0.25102
 Alpha  occ. eigenvalues --   -0.25026  -0.24489  -0.24004  -0.23955  -0.23701
 Alpha  occ. eigenvalues --   -0.23311  -0.23150  -0.21991  -0.21244  -0.20768
 Alpha  occ. eigenvalues --   -0.20553  -0.20051  -0.18800  -0.18172  -0.17298
 Alpha  occ. eigenvalues --   -0.15749
 Alpha virt. eigenvalues --   -0.11445  -0.06739  -0.06233  -0.04689  -0.04115
 Alpha virt. eigenvalues --   -0.03359  -0.03322  -0.02570  -0.00892   0.00843
 Alpha virt. eigenvalues --    0.01740   0.01969   0.02285   0.02620   0.02713

 Mulliken charges:
               1
     1  Mg   0.692149
     2  C    0.071631
     3  C   -0.070986
     4  C   -0.026577
     5  C   -0.086433
     6  N   -0.199465
     7  C   -0.080582
     8  C   -0.034490
     9  C    0.000390
    10  C   -0.005960
    11  C    0.151791
    12  C    0.136863
    13  C    0.115849
    14  C    0.099296
    15  O   -0.181414
    16  O   -0.315040
    17  N   -0.327235
    18  C    0.165827
    19  C   -0.124321
    20  C    0.033468
    21  C    0.125388
    22  C    0.150584
    23  C   -0.076224
    24  O   -0.181169
    25  C    0.142075
    26  N   -0.134729
    27  C   -0.038113
    28  C   -0.006474
    29  C    0.064366
    30  C    0.007784
    31  C    0.107350
    32  C    0.070060
    33  C    0.063036
    34  N   -0.243171
    35  C    0.112757
    36  C   -0.129399
    37  C    0.105436
    38  C    0.047513
    39  C    0.146374
    40  C   -0.071476
    41  O   -0.114976
    42  C    0.043090
    43  C    0.147292
    44  O   -0.229623
    45  O   -0.292283
    46  C    0.202308
    47  C    0.306649
    48  C   -0.072742
    49  C   -0.131216
    50  C    0.088310
    51  C    0.137245
    52  C    0.025581
    53  C    0.076942
    54  C   -0.088194
    55  C    0.097833
    56  C    0.143798
    57  C    0.061723
    58  C    0.138364
    59  C   -0.063791
    60  C    0.131892
    61  C    0.128674
    62  C    0.073120
    63  C    0.010179
    64  C   -0.074348
    65  C    0.086543
    66  C    0.131415
    67  H   -0.065867
    68  H   -0.039215
    69  H   -0.075054
    70  H   -0.001603
    71  H   -0.028748
    72  H   -0.008258
    73  H   -0.003211
    74  H   -0.006445
    75  H   -0.021447
    76  H    0.008710
    77  H   -0.007728
    78  H    0.009034
    79  H   -0.029538
    80  H    0.001487
    81  H    0.006906
    82  H   -0.014545
    83  H    0.000503
    84  H    0.013158
    85  H   -0.012830
    86  H   -0.017996
    87  H   -0.027115
    88  H    0.003620
    89  H    0.005744
    90  H   -0.022395
    91  H   -0.029615
    92  H    0.000307
    93  H   -0.006326
    94  H   -0.004735
    95  H    0.002420
    96  H    0.000841
    97  H   -0.002220
    98  H    0.001717
    99  H    0.022826
   100  H    0.021697
   101  H    0.012636
   102  H   -0.012601
   103  H    0.010276
   104  H   -0.023763
   105  H    0.008951
   106  H    0.011311
   107  H   -0.013266
   108  H   -0.002482
   109  H   -0.021325
   110  H   -0.005398
   111  H   -0.032171
   112  H   -0.037455
   113  H   -0.029975
   114  H   -0.034395
   115  H   -0.022835
   116  H   -0.010121
   117  H    0.004237
   118  H   -0.038348
   119  H   -0.040670
   120  H   -0.045935
   121  H   -0.033578
   122  H   -0.044741
   123  H   -0.044628
   124  H   -0.040769
   125  H   -0.014569
   126  H   -0.028342
   127  H   -0.016850
   128  H   -0.043438
   129  H   -0.053529
   130  H   -0.027886
   131  H   -0.049662
   132  H   -0.024402
   133  H   -0.029832
   134  H   -0.030137
   135  H   -0.020663
   136  H   -0.013589
   137  H   -0.027765
   138  H   -0.020009
   139  H   -0.023288
   140  H   -0.003587
 Sum of Mulliken charges =  -0.00000

 Dipole moment (field-independent basis, Debye):
    X=              4.5562    Y=              2.0785    Z=             -3.7838  Tot=              6.2767
 Quadrupole moment (field-independent basis, Debye-Ang):
   XX=           -385.5255   YY=           -435.0192   ZZ=           -405.3974
   XY=            -19.4729   XZ=             10.6043   YZ=              8.9019

 Normal termination of Gaussian 16 at Thu May  5 14:23:05 2022.
