 Gaussian 16, Revision A.03,
 Gaussian 16:  ES64L-G16RevA.03 25-Dec-2016

 -----------------------------------
 #p cam-b3lyp/Def2SVP td=(nstates=5)
 -----------------------------------

 ------------------------------------------------------
 step_901_chromophore_3 TDDFT with cam-b3lyp functional
 ------------------------------------------------------
 Symbolic Z-matrix:
 Charge =  0 Multiplicity = 1

                         Standard orientation:
 ---------------------------------------------------------------------
 Center     Atomic      Atomic             Coordinates (Angstroms)
 Number     Number       Type             X           Y           Z
 ---------------------------------------------------------------------
      1         12           0       -5.308994    0.797901   -0.282124
      2          6           0       -4.272166   -2.499434    0.042632
      3          6           0       -1.975054    1.820233    0.028597
      4          6           0       -6.500230    3.884433   -0.010076
      5          6           0       -8.600262   -0.372042   -0.013710
      6          7           0       -3.334900   -0.190200   -0.010977
      7          6           0       -3.196474   -1.609263   -0.001070
      8          6           0       -1.720161   -1.994783   -0.214862
      9          6           0       -1.020039   -0.567342   -0.008776
     10          6           0       -2.168353    0.411259   -0.062389
     11          6           0       -0.171549   -0.353488    1.217695
     12          6           0       -1.475785   -2.690805   -1.562427
     13          6           0        0.060253   -2.798658   -1.915843
     14          6           0        1.079994   -2.913108   -0.797974
     15          8           0        1.054076   -3.761761    0.084569
     16          8           0        2.126478   -1.995436   -1.085718
     17          7           0       -4.329230    2.563097   -0.020501
     18          6           0       -2.983821    2.808787    0.176384
     19          6           0       -2.798809    4.220985    0.270523
     20          6           0       -4.089651    4.844458    0.267001
     21          6           0       -5.063482    3.727795    0.088201
     22          6           0       -1.433079    4.908612    0.315378
     23          6           0       -4.448830    6.273719    0.562102
     24          8           0       -5.623621    6.661048    0.638788
     25          6           0       -3.383532    7.279647    0.770049
     26          7           0       -7.318902    1.687551   -0.181133
     27          6           0       -7.503467    2.974978   -0.133618
     28          6           0       -9.061917    3.350751   -0.039096
     29          6           0       -9.705999    1.941027    0.020913
     30          6           0       -8.457709    1.026197   -0.054268
     31          6           0       -9.334727    4.362116    1.179954
     32          6           0      -10.696537    1.695414   -1.123317
     33          6           0      -12.168513    1.470836   -0.702799
     34          7           0       -6.351512   -1.057543   -0.075115
     35          6           0       -7.658818   -1.345685   -0.023229
     36          6           0       -7.879159   -2.771499    0.151562
     37          6           0       -6.523281   -3.305067    0.179507
     38          6           0       -5.634779   -2.225075    0.049539
     39          6           0       -9.209349   -3.554013    0.273619
     40          6           0       -5.787210   -4.515404    0.221482
     41          8           0       -6.176305   -5.659992    0.364881
     42          6           0       -4.291833   -4.006806    0.010292
     43          6           0       -3.573528   -4.596296    1.106564
     44          8           0       -3.794068   -4.294565    2.326272
     45          8           0       -2.441395   -5.295257    0.657408
     46          6           0       -1.600761   -6.031446    1.638139
     47          6           0        3.324923   -2.252314   -0.235157
     48          6           0        4.539643   -1.896719   -1.070099
     49          6           0        5.622258   -2.684029   -1.223891
     50          6           0        5.633123   -4.150089   -0.636419
     51          6           0        6.619595   -2.372007   -2.374243
     52          6           0        7.058953   -0.883451   -2.450585
     53          6           0        8.516246   -0.587275   -2.994602
     54          6           0        9.268618    0.339143   -2.036322
     55          6           0        9.588426   -0.490687   -0.778049
     56          6           0       10.403081    1.016620   -2.762766
     57          6           0       10.727037    2.499923   -2.345517
     58          6           0       12.158957    2.857272   -1.848418
     59          6           0       12.351162    2.997997   -0.349332
     60          6           0       12.856809    4.354366    0.103028
     61          6           0       13.184594    1.821228    0.231828
     62          6           0       13.019380    1.606802    1.709818
     63          6           0       12.399016    0.212452    2.074521
     64          6           0       11.951736    0.033826    3.582436
     65          6           0       13.261988   -0.329644    4.346468
     66          6           0       10.822146   -1.032226    3.664014
     67          1           0       -0.930087    2.138874    0.026147
     68          1           0       -6.940798    4.874150    0.126413
     69          1           0       -9.617791   -0.768990   -0.006561
     70          1           0       -1.437463   -2.719432    0.548905
     71          1           0       -0.410708   -0.416131   -0.899937
     72          1           0       -0.563311    0.405294    1.895416
     73          1           0        0.846012   -0.055288    0.968507
     74          1           0       -0.262514   -1.286720    1.774199
     75          1           0       -1.978192   -2.079436   -2.312014
     76          1           0       -1.930306   -3.660463   -1.357238
     77          1           0        0.298590   -1.910467   -2.499502
     78          1           0        0.232233   -3.644618   -2.582163
     79          1           0       -0.590428    4.218030    0.343837
     80          1           0       -1.356425    5.577240    1.172871
     81          1           0       -1.155040    5.481542   -0.569051
     82          1           0       -3.711089    8.318254    0.725422
     83          1           0       -2.558296    7.181180    0.064691
     84          1           0       -3.064801    7.124234    1.800562
     85          1           0       -9.331085    3.919547   -0.929183
     86          1           0      -10.247548    1.863371    0.964230
     87          1           0       -9.856725    3.728885    1.896645
     88          1           0       -9.869322    5.297777    1.018768
     89          1           0       -8.393194    4.609307    1.671919
     90          1           0      -10.477186    0.812006   -1.722654
     91          1           0      -10.608569    2.540876   -1.805329
     92          1           0      -12.622721    2.441134   -0.900636
     93          1           0      -12.215776    1.196073    0.350276
     94          1           0      -12.596695    0.654858   -1.284661
     95          1           0       -9.974466   -3.270573   -0.447918
     96          1           0       -9.530076   -3.370706    1.299804
     97          1           0       -9.300598   -4.639451    0.311194
     98          1           0       -3.920129   -4.356747   -0.952591
     99          1           0       -1.883300   -5.958175    2.688485
    100          1           0       -0.577706   -5.658381    1.584631
    101          1           0       -1.550858   -7.086423    1.368591
    102          1           0        3.349599   -3.336187   -0.117201
    103          1           0        3.097158   -1.807708    0.733583
    104          1           0        4.526959   -0.981493   -1.662363
    105          1           0        5.058568   -4.763990   -1.329055
    106          1           0        5.172590   -4.262941    0.345193
    107          1           0        6.588071   -4.671576   -0.584082
    108          1           0        6.024569   -2.545452   -3.270983
    109          1           0        7.543436   -2.949228   -2.376778
    110          1           0        6.823583   -0.285455   -1.569221
    111          1           0        6.553132   -0.484078   -3.329786
    112          1           0        8.366015   -0.137173   -3.975308
    113          1           0        9.062951   -1.524210   -3.103417
    114          1           0        8.552411    1.073905   -1.669624
    115          1           0        9.040879   -1.432722   -0.747843
    116          1           0        9.203659    0.044291    0.090404
    117          1           0       10.630210   -0.763509   -0.611946
    118          1           0       10.226393    1.038364   -3.837685
    119          1           0       11.307237    0.428705   -2.605379
    120          1           0        9.977335    2.584346   -1.559572
    121          1           0       10.359238    3.245981   -3.051314
    122          1           0       12.579671    3.673581   -2.435902
    123          1           0       12.841577    2.044727   -2.097335
    124          1           0       11.342386    2.986110    0.062728
    125          1           0       12.084006    4.911643    0.634063
    126          1           0       13.150864    4.963457   -0.750924
    127          1           0       13.746295    4.181936    0.708080
    128          1           0       14.256612    1.757010    0.044696
    129          1           0       12.912973    0.864288   -0.212821
    130          1           0       12.507660    2.334525    2.339713
    131          1           0       14.039266    1.439820    2.057383
    132          1           0       13.159973   -0.505042    1.765567
    133          1           0       11.496739    0.097368    1.473594
    134          1           0       11.704747    1.001331    4.018752
    135          1           0       13.471751    0.334796    5.184129
    136          1           0       14.134164   -0.311191    3.693419
    137          1           0       13.229668   -1.316586    4.807882
    138          1           0       10.313005   -1.107463    2.703230
    139          1           0       10.022319   -0.628389    4.285030
    140          1           0       11.162675   -1.993229    4.048633
 ---------------------------------------------------------------------

 SCF Done:  E(RCAM-B3LYP) =  -3007.14438579     A.U. after   19 cycles

 Excitation energies and oscillator strengths:

 Excited State   1:      Singlet-A      1.7409 eV  712.20 nm  f=0.3870  <S**2>=0.000
     245 -> 248       -0.18138
     246 -> 247        0.68370
     245 <- 248       -0.10670
 This state for optimization and/or second-order correction.
 Total Energy, E(TD-HF/TD-DFT) =  -3007.08041032
 Copying the excited state density for this state as the 1-particle RhoCI density.

 Excited State   2:      Singlet-A      2.2590 eV  548.84 nm  f=0.1179  <S**2>=0.000
     245 -> 247        0.63471
     246 -> 248        0.29571

 Excited State   3:      Singlet-A      3.3799 eV  366.83 nm  f=0.0055  <S**2>=0.000
     243 -> 247       -0.26822
     244 -> 247        0.63067
     246 -> 248       -0.10752

 Excited State   4:      Singlet-A      3.4753 eV  356.75 nm  f=0.1898  <S**2>=0.000
     243 -> 247        0.49524
     244 -> 247        0.12418
     245 -> 247        0.15626
     246 -> 248       -0.44341

 Excited State   5:      Singlet-A      3.5254 eV  351.69 nm  f=0.0002  <S**2>=0.000
     241 -> 247        0.55538
     241 -> 248       -0.13540
     241 -> 249        0.30347
     241 -> 251        0.21055

 The electronic state is 1-A.
 Alpha  occ. eigenvalues --  -46.89117 -19.25477 -19.24871 -19.21749 -19.18801
 Alpha  occ. eigenvalues --  -19.18686 -19.18293 -14.42168 -14.41670 -14.39802
 Alpha  occ. eigenvalues --  -14.38697 -10.40667 -10.39005 -10.34818 -10.34416
 Alpha  occ. eigenvalues --  -10.32277 -10.31235 -10.31088 -10.30837 -10.30784
 Alpha  occ. eigenvalues --  -10.30419 -10.30251 -10.29922 -10.28777 -10.28719
 Alpha  occ. eigenvalues --  -10.28680 -10.28646 -10.28287 -10.28160 -10.27933
 Alpha  occ. eigenvalues --  -10.27885 -10.27759 -10.27739 -10.27627 -10.27460
 Alpha  occ. eigenvalues --  -10.27381 -10.27257 -10.27236 -10.27203 -10.26831
 Alpha  occ. eigenvalues --  -10.26763 -10.26363 -10.26268 -10.26092 -10.25828
 Alpha  occ. eigenvalues --  -10.25787 -10.25745 -10.25709 -10.25677 -10.25584
 Alpha  occ. eigenvalues --  -10.25576 -10.25566 -10.25333 -10.25324 -10.25255
 Alpha  occ. eigenvalues --  -10.25008 -10.24814 -10.24795 -10.24698 -10.24681
 Alpha  occ. eigenvalues --  -10.24669 -10.24580 -10.24469 -10.24288 -10.24207
 Alpha  occ. eigenvalues --  -10.24065  -3.17547  -1.92460  -1.92017  -1.91825
 Alpha  occ. eigenvalues --   -1.15702  -1.13415  -1.09610  -1.08897  -1.08590
 Alpha  occ. eigenvalues --   -1.05628  -1.04850  -1.03781  -1.03049  -1.02116
 Alpha  occ. eigenvalues --   -0.93531  -0.90849  -0.90063  -0.89685  -0.89146
 Alpha  occ. eigenvalues --   -0.89046  -0.88000  -0.87416  -0.87223  -0.86805
 Alpha  occ. eigenvalues --   -0.85463  -0.85229  -0.84363  -0.83641  -0.83179
 Alpha  occ. eigenvalues --   -0.82615  -0.82078  -0.81353  -0.80685  -0.80458
 Alpha  occ. eigenvalues --   -0.79822  -0.78228  -0.77994  -0.76942  -0.76315
 Alpha  occ. eigenvalues --   -0.75996  -0.75727  -0.75521  -0.75141  -0.74072
 Alpha  occ. eigenvalues --   -0.73277  -0.72737  -0.71722  -0.70833  -0.69180
 Alpha  occ. eigenvalues --   -0.68935  -0.68531  -0.67275  -0.66551  -0.65721
 Alpha  occ. eigenvalues --   -0.65532  -0.64822  -0.64705  -0.64614  -0.64157
 Alpha  occ. eigenvalues --   -0.63224  -0.63078  -0.63057  -0.61649  -0.60271
 Alpha  occ. eigenvalues --   -0.59967  -0.59277  -0.59138  -0.58667  -0.58079
 Alpha  occ. eigenvalues --   -0.57789  -0.57155  -0.56492  -0.56208  -0.55399
 Alpha  occ. eigenvalues --   -0.55226  -0.55114  -0.54626  -0.54217  -0.53950
 Alpha  occ. eigenvalues --   -0.53727  -0.53396  -0.52984  -0.52891  -0.52672
 Alpha  occ. eigenvalues --   -0.52518  -0.52408  -0.52246  -0.52062  -0.51703
 Alpha  occ. eigenvalues --   -0.51585  -0.51395  -0.50999  -0.50605  -0.50498
 Alpha  occ. eigenvalues --   -0.50386  -0.50015  -0.49881  -0.49861  -0.49553
 Alpha  occ. eigenvalues --   -0.49396  -0.49187  -0.49079  -0.48745  -0.48673
 Alpha  occ. eigenvalues --   -0.48520  -0.48271  -0.47942  -0.47893  -0.47564
 Alpha  occ. eigenvalues --   -0.47226  -0.47119  -0.46898  -0.46862  -0.46572
 Alpha  occ. eigenvalues --   -0.46271  -0.46091  -0.45928  -0.45771  -0.45692
 Alpha  occ. eigenvalues --   -0.45567  -0.45413  -0.45239  -0.44914  -0.44845
 Alpha  occ. eigenvalues --   -0.44736  -0.44471  -0.44411  -0.44051  -0.43903
 Alpha  occ. eigenvalues --   -0.43800  -0.43357  -0.42937  -0.42792  -0.42718
 Alpha  occ. eigenvalues --   -0.42372  -0.42214  -0.42072  -0.42030  -0.41931
 Alpha  occ. eigenvalues --   -0.41743  -0.41547  -0.41510  -0.41197  -0.41118
 Alpha  occ. eigenvalues --   -0.40939  -0.40806  -0.40436  -0.40386  -0.40320
 Alpha  occ. eigenvalues --   -0.39771  -0.39463  -0.39321  -0.39013  -0.38876
 Alpha  occ. eigenvalues --   -0.38325  -0.38072  -0.37945  -0.37571  -0.37486
 Alpha  occ. eigenvalues --   -0.37335  -0.37309  -0.37058  -0.36484  -0.36005
 Alpha  occ. eigenvalues --   -0.35716  -0.35281  -0.35144  -0.34947  -0.34465
 Alpha  occ. eigenvalues --   -0.34049  -0.33501  -0.33075  -0.31201  -0.30911
 Alpha  occ. eigenvalues --   -0.30715  -0.30647  -0.30051  -0.29127  -0.24053
 Alpha  occ. eigenvalues --   -0.21046
 Alpha virt. eigenvalues --   -0.08568  -0.01597   0.00226   0.02361   0.02790
 Alpha virt. eigenvalues --    0.02969   0.04300   0.04362   0.06103   0.07126
 Alpha virt. eigenvalues --    0.08439   0.08527   0.08930   0.09110   0.09359

 Mulliken charges:
               1
     1  Mg   0.822735
     2  C    0.039231
     3  C   -0.086587
     4  C   -0.053659
     5  C   -0.089338
     6  N   -0.269789
     7  C   -0.032533
     8  C   -0.082608
     9  C   -0.059305
    10  C    0.021316
    11  C    0.086187
    12  C    0.092662
    13  C    0.043386
    14  C    0.177582
    15  O   -0.222128
    16  O   -0.378993
    17  N   -0.416879
    18  C    0.176938
    19  C   -0.132085
    20  C   -0.034639
    21  C    0.156489
    22  C    0.093404
    23  C    0.004421
    24  O   -0.222064
    25  C    0.054947
    26  N   -0.210642
    27  C   -0.012124
    28  C   -0.053743
    29  C    0.008782
    30  C    0.023434
    31  C    0.048433
    32  C    0.012905
    33  C    0.003463
    34  N   -0.332147
    35  C    0.114734
    36  C   -0.122642
    37  C    0.028304
    38  C    0.081331
    39  C    0.093243
    40  C    0.028284
    41  O   -0.155925
    42  C   -0.042961
    43  C    0.237395
    44  O   -0.266730
    45  O   -0.358308
    46  C    0.168481
    47  C    0.274645
    48  C   -0.095080
    49  C   -0.153793
    50  C    0.024810
    51  C    0.084946
    52  C   -0.036993
    53  C    0.031093
    54  C   -0.145520
    55  C    0.042633
    56  C    0.088438
    57  C    0.008079
    58  C    0.079996
    59  C   -0.119535
    60  C    0.071808
    61  C    0.073695
    62  C    0.018099
    63  C   -0.033960
    64  C   -0.135123
    65  C    0.030631
    66  C    0.072708
    67  H   -0.029577
    68  H    0.001925
    69  H   -0.038946
    70  H    0.031295
    71  H    0.006933
    72  H    0.020678
    73  H    0.020225
    74  H    0.020074
    75  H    0.009853
    76  H    0.035574
    77  H    0.026792
    78  H    0.042272
    79  H    0.000557
    80  H    0.027713
    81  H    0.034203
    82  H    0.022819
    83  H    0.029182
    84  H    0.041462
    85  H    0.020766
    86  H    0.015453
    87  H   -0.002495
    88  H    0.028742
    89  H    0.030784
    90  H    0.008036
    91  H   -0.000668
    92  H    0.022647
    93  H    0.015051
    94  H    0.018820
    95  H    0.025216
    96  H    0.026175
    97  H    0.027762
    98  H    0.046696
    99  H    0.049028
   100  H    0.042331
   101  H    0.034172
   102  H    0.018764
   103  H    0.036532
   104  H    0.010518
   105  H    0.032695
   106  H    0.034280
   107  H    0.013494
   108  H    0.026654
   109  H    0.005292
   110  H    0.021174
   111  H   -0.002138
   112  H   -0.007608
   113  H   -0.002582
   114  H   -0.002931
   115  H    0.000603
   116  H    0.011544
   117  H    0.024790
   118  H   -0.006778
   119  H   -0.013228
   120  H   -0.018378
   121  H   -0.003701
   122  H   -0.013167
   123  H   -0.014685
   124  H   -0.008635
   125  H    0.009504
   126  H   -0.003344
   127  H    0.007241
   128  H   -0.012094
   129  H   -0.025873
   130  H   -0.000820
   131  H   -0.020080
   132  H    0.001792
   133  H   -0.008435
   134  H    0.001586
   135  H    0.003631
   136  H    0.008526
   137  H   -0.003312
   138  H    0.002376
   139  H    0.001854
   140  H    0.019553
 Sum of Mulliken charges =  -0.00000

 Dipole moment (field-independent basis, Debye):
    X=              4.9639    Y=              2.7073    Z=             -3.8553  Tot=              6.8435
 Quadrupole moment (field-independent basis, Debye-Ang):
   XX=           -387.0919   YY=           -430.0680   ZZ=           -405.4719
   XY=            -22.0803   XZ=             11.3610   YZ=              9.5322

 Normal termination of Gaussian 16 at Thu May  5 13:21:37 2022.
