 Gaussian 16, Revision A.03,
 Gaussian 16:  ES64L-G16RevA.03 25-Dec-2016

 ---------------------------------
 #p PBE1PBE/Def2SVP td=(nstates=5)
 ---------------------------------

 ----------------------------------------------------
 step_901_chromophore_3 TDDFT with PBE1PBE functional
 ----------------------------------------------------
 Symbolic Z-matrix:
 Charge =  0 Multiplicity = 1

                         Standard orientation:
 ---------------------------------------------------------------------
 Center     Atomic      Atomic             Coordinates (Angstroms)
 Number     Number       Type             X           Y           Z
 ---------------------------------------------------------------------
      1         12           0       -5.308994    0.797901   -0.282124
      2          6           0       -4.272166   -2.499434    0.042632
      3          6           0       -1.975054    1.820233    0.028597
      4          6           0       -6.500230    3.884433   -0.010076
      5          6           0       -8.600262   -0.372042   -0.013710
      6          7           0       -3.334900   -0.190200   -0.010977
      7          6           0       -3.196474   -1.609263   -0.001070
      8          6           0       -1.720161   -1.994783   -0.214862
      9          6           0       -1.020039   -0.567342   -0.008776
     10          6           0       -2.168353    0.411259   -0.062389
     11          6           0       -0.171549   -0.353488    1.217695
     12          6           0       -1.475785   -2.690805   -1.562427
     13          6           0        0.060253   -2.798658   -1.915843
     14          6           0        1.079994   -2.913108   -0.797974
     15          8           0        1.054076   -3.761761    0.084569
     16          8           0        2.126478   -1.995436   -1.085718
     17          7           0       -4.329230    2.563097   -0.020501
     18          6           0       -2.983821    2.808787    0.176384
     19          6           0       -2.798809    4.220985    0.270523
     20          6           0       -4.089651    4.844458    0.267001
     21          6           0       -5.063482    3.727795    0.088201
     22          6           0       -1.433079    4.908612    0.315378
     23          6           0       -4.448830    6.273719    0.562102
     24          8           0       -5.623621    6.661048    0.638788
     25          6           0       -3.383532    7.279647    0.770049
     26          7           0       -7.318902    1.687551   -0.181133
     27          6           0       -7.503467    2.974978   -0.133618
     28          6           0       -9.061917    3.350751   -0.039096
     29          6           0       -9.705999    1.941027    0.020913
     30          6           0       -8.457709    1.026197   -0.054268
     31          6           0       -9.334727    4.362116    1.179954
     32          6           0      -10.696537    1.695414   -1.123317
     33          6           0      -12.168513    1.470836   -0.702799
     34          7           0       -6.351512   -1.057543   -0.075115
     35          6           0       -7.658818   -1.345685   -0.023229
     36          6           0       -7.879159   -2.771499    0.151562
     37          6           0       -6.523281   -3.305067    0.179507
     38          6           0       -5.634779   -2.225075    0.049539
     39          6           0       -9.209349   -3.554013    0.273619
     40          6           0       -5.787210   -4.515404    0.221482
     41          8           0       -6.176305   -5.659992    0.364881
     42          6           0       -4.291833   -4.006806    0.010292
     43          6           0       -3.573528   -4.596296    1.106564
     44          8           0       -3.794068   -4.294565    2.326272
     45          8           0       -2.441395   -5.295257    0.657408
     46          6           0       -1.600761   -6.031446    1.638139
     47          6           0        3.324923   -2.252314   -0.235157
     48          6           0        4.539643   -1.896719   -1.070099
     49          6           0        5.622258   -2.684029   -1.223891
     50          6           0        5.633123   -4.150089   -0.636419
     51          6           0        6.619595   -2.372007   -2.374243
     52          6           0        7.058953   -0.883451   -2.450585
     53          6           0        8.516246   -0.587275   -2.994602
     54          6           0        9.268618    0.339143   -2.036322
     55          6           0        9.588426   -0.490687   -0.778049
     56          6           0       10.403081    1.016620   -2.762766
     57          6           0       10.727037    2.499923   -2.345517
     58          6           0       12.158957    2.857272   -1.848418
     59          6           0       12.351162    2.997997   -0.349332
     60          6           0       12.856809    4.354366    0.103028
     61          6           0       13.184594    1.821228    0.231828
     62          6           0       13.019380    1.606802    1.709818
     63          6           0       12.399016    0.212452    2.074521
     64          6           0       11.951736    0.033826    3.582436
     65          6           0       13.261988   -0.329644    4.346468
     66          6           0       10.822146   -1.032226    3.664014
     67          1           0       -0.930087    2.138874    0.026147
     68          1           0       -6.940798    4.874150    0.126413
     69          1           0       -9.617791   -0.768990   -0.006561
     70          1           0       -1.437463   -2.719432    0.548905
     71          1           0       -0.410708   -0.416131   -0.899937
     72          1           0       -0.563311    0.405294    1.895416
     73          1           0        0.846012   -0.055288    0.968507
     74          1           0       -0.262514   -1.286720    1.774199
     75          1           0       -1.978192   -2.079436   -2.312014
     76          1           0       -1.930306   -3.660463   -1.357238
     77          1           0        0.298590   -1.910467   -2.499502
     78          1           0        0.232233   -3.644618   -2.582163
     79          1           0       -0.590428    4.218030    0.343837
     80          1           0       -1.356425    5.577240    1.172871
     81          1           0       -1.155040    5.481542   -0.569051
     82          1           0       -3.711089    8.318254    0.725422
     83          1           0       -2.558296    7.181180    0.064691
     84          1           0       -3.064801    7.124234    1.800562
     85          1           0       -9.331085    3.919547   -0.929183
     86          1           0      -10.247548    1.863371    0.964230
     87          1           0       -9.856725    3.728885    1.896645
     88          1           0       -9.869322    5.297777    1.018768
     89          1           0       -8.393194    4.609307    1.671919
     90          1           0      -10.477186    0.812006   -1.722654
     91          1           0      -10.608569    2.540876   -1.805329
     92          1           0      -12.622721    2.441134   -0.900636
     93          1           0      -12.215776    1.196073    0.350276
     94          1           0      -12.596695    0.654858   -1.284661
     95          1           0       -9.974466   -3.270573   -0.447918
     96          1           0       -9.530076   -3.370706    1.299804
     97          1           0       -9.300598   -4.639451    0.311194
     98          1           0       -3.920129   -4.356747   -0.952591
     99          1           0       -1.883300   -5.958175    2.688485
    100          1           0       -0.577706   -5.658381    1.584631
    101          1           0       -1.550858   -7.086423    1.368591
    102          1           0        3.349599   -3.336187   -0.117201
    103          1           0        3.097158   -1.807708    0.733583
    104          1           0        4.526959   -0.981493   -1.662363
    105          1           0        5.058568   -4.763990   -1.329055
    106          1           0        5.172590   -4.262941    0.345193
    107          1           0        6.588071   -4.671576   -0.584082
    108          1           0        6.024569   -2.545452   -3.270983
    109          1           0        7.543436   -2.949228   -2.376778
    110          1           0        6.823583   -0.285455   -1.569221
    111          1           0        6.553132   -0.484078   -3.329786
    112          1           0        8.366015   -0.137173   -3.975308
    113          1           0        9.062951   -1.524210   -3.103417
    114          1           0        8.552411    1.073905   -1.669624
    115          1           0        9.040879   -1.432722   -0.747843
    116          1           0        9.203659    0.044291    0.090404
    117          1           0       10.630210   -0.763509   -0.611946
    118          1           0       10.226393    1.038364   -3.837685
    119          1           0       11.307237    0.428705   -2.605379
    120          1           0        9.977335    2.584346   -1.559572
    121          1           0       10.359238    3.245981   -3.051314
    122          1           0       12.579671    3.673581   -2.435902
    123          1           0       12.841577    2.044727   -2.097335
    124          1           0       11.342386    2.986110    0.062728
    125          1           0       12.084006    4.911643    0.634063
    126          1           0       13.150864    4.963457   -0.750924
    127          1           0       13.746295    4.181936    0.708080
    128          1           0       14.256612    1.757010    0.044696
    129          1           0       12.912973    0.864288   -0.212821
    130          1           0       12.507660    2.334525    2.339713
    131          1           0       14.039266    1.439820    2.057383
    132          1           0       13.159973   -0.505042    1.765567
    133          1           0       11.496739    0.097368    1.473594
    134          1           0       11.704747    1.001331    4.018752
    135          1           0       13.471751    0.334796    5.184129
    136          1           0       14.134164   -0.311191    3.693419
    137          1           0       13.229668   -1.316586    4.807882
    138          1           0       10.313005   -1.107463    2.703230
    139          1           0       10.022319   -0.628389    4.285030
    140          1           0       11.162675   -1.993229    4.048633
 ---------------------------------------------------------------------

 SCF Done:  E(RPBE1PBE) =  -3005.33305285     A.U. after   15 cycles

 Excitation energies and oscillator strengths:

 Excited State   1:      Singlet-A      1.8877 eV  656.81 nm  f=0.3663  <S**2>=0.000
     245 -> 248       -0.17669
     246 -> 247        0.69136
     246 <- 247       -0.10880
 This state for optimization and/or second-order correction.
 Total Energy, E(TD-HF/TD-DFT) =  -3005.26368234
 Copying the excited state density for this state as the 1-particle RhoCI density.

 Excited State   2:      Singlet-A      2.2614 eV  548.26 nm  f=0.1205  <S**2>=0.000
     245 -> 247        0.64834
     246 -> 248        0.26614

 Excited State   3:      Singlet-A      2.9878 eV  414.97 nm  f=0.0000  <S**2>=0.000
     243 -> 247        0.67236
     243 -> 249        0.16285

 Excited State   4:      Singlet-A      3.0313 eV  409.01 nm  f=0.0007  <S**2>=0.000
     242 -> 247       -0.20890
     244 -> 247        0.65638

 Excited State   5:      Singlet-A      3.0911 eV  401.10 nm  f=0.0008  <S**2>=0.000
     241 -> 247        0.61035
     241 -> 249       -0.15299
     242 -> 247       -0.23973
     244 -> 247       -0.15866

 The electronic state is 1-A.
 Alpha  occ. eigenvalues --  -46.92519 -19.26220 -19.25540 -19.22013 -19.19086
 Alpha  occ. eigenvalues --  -19.19016 -19.18413 -14.41675 -14.41133 -14.39449
 Alpha  occ. eigenvalues --  -14.38411 -10.37731 -10.36040 -10.31820 -10.31640
 Alpha  occ. eigenvalues --  -10.29680 -10.29096 -10.28703 -10.28437 -10.28251
 Alpha  occ. eigenvalues --  -10.28025 -10.27796 -10.27561 -10.26541 -10.26515
 Alpha  occ. eigenvalues --  -10.26403 -10.26295 -10.26094 -10.25787 -10.25725
 Alpha  occ. eigenvalues --  -10.25697 -10.25594 -10.25427 -10.25288 -10.25256
 Alpha  occ. eigenvalues --  -10.25225 -10.24865 -10.24848 -10.24539 -10.24415
 Alpha  occ. eigenvalues --  -10.24190 -10.23937 -10.23819 -10.23778 -10.23466
 Alpha  occ. eigenvalues --  -10.23430 -10.23409 -10.23329 -10.23213 -10.23082
 Alpha  occ. eigenvalues --  -10.23006 -10.22965 -10.22941 -10.22921 -10.22805
 Alpha  occ. eigenvalues --  -10.22566 -10.22529 -10.22366 -10.22237 -10.22182
 Alpha  occ. eigenvalues --  -10.22170 -10.22084 -10.22024 -10.21819 -10.21601
 Alpha  occ. eigenvalues --  -10.21422  -3.14532  -1.87385  -1.86920  -1.86731
 Alpha  occ. eigenvalues --   -1.10481  -1.08161  -1.04447  -1.03503  -1.03474
 Alpha  occ. eigenvalues --   -1.00298  -0.99645  -0.98409  -0.97780  -0.96718
 Alpha  occ. eigenvalues --   -0.87970  -0.84971  -0.84202  -0.83872  -0.83466
 Alpha  occ. eigenvalues --   -0.83205  -0.82296  -0.81556  -0.81508  -0.80962
 Alpha  occ. eigenvalues --   -0.79787  -0.79554  -0.78551  -0.77974  -0.77401
 Alpha  occ. eigenvalues --   -0.76819  -0.76297  -0.75523  -0.74913  -0.74809
 Alpha  occ. eigenvalues --   -0.74046  -0.72505  -0.72222  -0.71256  -0.70483
 Alpha  occ. eigenvalues --   -0.70295  -0.69810  -0.69674  -0.69485  -0.68231
 Alpha  occ. eigenvalues --   -0.67649  -0.67163  -0.66153  -0.65193  -0.63593
 Alpha  occ. eigenvalues --   -0.63291  -0.62910  -0.61674  -0.60778  -0.60126
 Alpha  occ. eigenvalues --   -0.60007  -0.59275  -0.59164  -0.59049  -0.58276
 Alpha  occ. eigenvalues --   -0.57558  -0.57377  -0.57245  -0.56241  -0.54769
 Alpha  occ. eigenvalues --   -0.54441  -0.53895  -0.53697  -0.53287  -0.52655
 Alpha  occ. eigenvalues --   -0.52308  -0.51664  -0.50984  -0.50724  -0.49974
 Alpha  occ. eigenvalues --   -0.49764  -0.49507  -0.49191  -0.48838  -0.48297
 Alpha  occ. eigenvalues --   -0.48128  -0.47923  -0.47597  -0.47464  -0.47207
 Alpha  occ. eigenvalues --   -0.46999  -0.46907  -0.46579  -0.46572  -0.46329
 Alpha  occ. eigenvalues --   -0.46078  -0.45991  -0.45558  -0.45148  -0.45078
 Alpha  occ. eigenvalues --   -0.44979  -0.44591  -0.44463  -0.44341  -0.44208
 Alpha  occ. eigenvalues --   -0.43973  -0.43842  -0.43671  -0.43376  -0.43251
 Alpha  occ. eigenvalues --   -0.43123  -0.42838  -0.42594  -0.42472  -0.42190
 Alpha  occ. eigenvalues --   -0.41868  -0.41806  -0.41604  -0.41528  -0.41280
 Alpha  occ. eigenvalues --   -0.41022  -0.40788  -0.40686  -0.40422  -0.40328
 Alpha  occ. eigenvalues --   -0.40262  -0.40182  -0.40014  -0.39644  -0.39525
 Alpha  occ. eigenvalues --   -0.39446  -0.39256  -0.39146  -0.38806  -0.38623
 Alpha  occ. eigenvalues --   -0.38533  -0.38168  -0.37825  -0.37483  -0.37450
 Alpha  occ. eigenvalues --   -0.37166  -0.37100  -0.36795  -0.36768  -0.36740
 Alpha  occ. eigenvalues --   -0.36551  -0.36351  -0.36296  -0.36057  -0.35898
 Alpha  occ. eigenvalues --   -0.35714  -0.35686  -0.35337  -0.35332  -0.35094
 Alpha  occ. eigenvalues --   -0.34587  -0.34417  -0.34173  -0.33843  -0.33826
 Alpha  occ. eigenvalues --   -0.33338  -0.32882  -0.32721  -0.32529  -0.32341
 Alpha  occ. eigenvalues --   -0.32335  -0.32154  -0.32101  -0.31304  -0.31077
 Alpha  occ. eigenvalues --   -0.30574  -0.30147  -0.30114  -0.29905  -0.29364
 Alpha  occ. eigenvalues --   -0.29301  -0.28947  -0.27949  -0.26847  -0.26190
 Alpha  occ. eigenvalues --   -0.25646  -0.25578  -0.25334  -0.24903  -0.20997
 Alpha  occ. eigenvalues --   -0.18695
 Alpha virt. eigenvalues --   -0.11041  -0.05116  -0.03990  -0.01640  -0.01523
 Alpha virt. eigenvalues --   -0.00432  -0.00233  -0.00204   0.01928   0.03664
 Alpha virt. eigenvalues --    0.04580   0.04882   0.05240   0.05582   0.05682

 Mulliken charges:
               1
     1  Mg   0.966475
     2  C    0.018580
     3  C   -0.082954
     4  C   -0.049894
     5  C   -0.075123
     6  N   -0.375445
     7  C    0.046254
     8  C   -0.152039
     9  C   -0.139076
    10  C    0.066495
    11  C    0.027281
    12  C    0.037987
    13  C   -0.033333
    14  C    0.241469
    15  O   -0.256163
    16  O   -0.405572
    17  N   -0.531774
    18  C    0.202295
    19  C   -0.159112
    20  C   -0.086382
    21  C    0.192094
    22  C    0.036410
    23  C    0.051195
    24  O   -0.260598
    25  C   -0.018905
    26  N   -0.322446
    27  C    0.028707
    28  C   -0.122522
    29  C   -0.069638
    30  C    0.063283
    31  C   -0.010936
    32  C   -0.041595
    33  C   -0.069221
    34  N   -0.458720
    35  C    0.133337
    36  C   -0.133089
    37  C   -0.020001
    38  C    0.135102
    39  C    0.042633
    40  C    0.122210
    41  O   -0.203141
    42  C   -0.161449
    43  C    0.328910
    44  O   -0.298062
    45  O   -0.390614
    46  C    0.114742
    47  C    0.232904
    48  C   -0.110538
    49  C   -0.190160
    50  C   -0.042099
    51  C    0.024965
    52  C   -0.102662
    53  C   -0.023588
    54  C   -0.237375
    55  C   -0.013220
    56  C    0.038296
    57  C   -0.055643
    58  C    0.025440
    59  C   -0.205800
    60  C    0.014768
    61  C    0.013944
    62  C   -0.041523
    63  C   -0.104888
    64  C   -0.223282
    65  C   -0.024300
    66  C    0.009838
    67  H    0.003442
    68  H    0.034624
    69  H   -0.005464
    70  H    0.071844
    71  H    0.046557
    72  H    0.049289
    73  H    0.047347
    74  H    0.047889
    75  H    0.043765
    76  H    0.072458
    77  H    0.058202
    78  H    0.075189
    79  H    0.028045
    80  H    0.054925
    81  H    0.060538
    82  H    0.050335
    83  H    0.055408
    84  H    0.068691
    85  H    0.057104
    86  H    0.051655
    87  H    0.026203
    88  H    0.055457
    89  H    0.058379
    90  H    0.040478
    91  H    0.032053
    92  H    0.050845
    93  H    0.041759
    94  H    0.046189
    95  H    0.051288
    96  H    0.054773
    97  H    0.054629
    98  H    0.083070
    99  H    0.069324
   100  H    0.064700
   101  H    0.056145
   102  H    0.045902
   103  H    0.062686
   104  H    0.040352
   105  H    0.061025
   106  H    0.060545
   107  H    0.041332
   108  H    0.060519
   109  H    0.034956
   110  H    0.051174
   111  H    0.032637
   112  H    0.024530
   113  H    0.030453
   114  H    0.035333
   115  H    0.030768
   116  H    0.037871
   117  H    0.050535
   118  H    0.025845
   119  H    0.019406
   120  H    0.015529
   121  H    0.028247
   122  H    0.018512
   123  H    0.019222
   124  H    0.030658
   125  H    0.036219
   126  H    0.024004
   127  H    0.035310
   128  H    0.019973
   129  H    0.009009
   130  H    0.029958
   131  H    0.015375
   132  H    0.034927
   133  H    0.033886
   134  H    0.037903
   135  H    0.031018
   136  H    0.034783
   137  H    0.024032
   138  H    0.029891
   139  H    0.030198
   140  H    0.045609
 Sum of Mulliken charges =  -0.00000

 Dipole moment (field-independent basis, Debye):
    X=              4.7816    Y=              2.4533    Z=             -3.9160  Tot=              6.6496
 Quadrupole moment (field-independent basis, Debye-Ang):
   XX=           -379.4258   YY=           -427.9076   ZZ=           -403.0204
   XY=            -21.4461   XZ=             11.2136   YZ=              9.4747

 Normal termination of Gaussian 16 at Thu May  5 13:39:21 2022.
