 Gaussian 16, Revision A.03,
 Gaussian 16:  ES64L-G16RevA.03 25-Dec-2016

 --------------------------------
 #p wB97XD/Def2SVP td=(nstates=5)
 --------------------------------

 ---------------------------------------------------
 step_901_chromophore_3 TDDFT with wB97XD functional
 ---------------------------------------------------
 Symbolic Z-matrix:
 Charge =  0 Multiplicity = 1

                         Standard orientation:
 ---------------------------------------------------------------------
 Center     Atomic      Atomic             Coordinates (Angstroms)
 Number     Number       Type             X           Y           Z
 ---------------------------------------------------------------------
      1         12           0       -5.308994    0.797901   -0.282124
      2          6           0       -4.272166   -2.499434    0.042632
      3          6           0       -1.975054    1.820233    0.028597
      4          6           0       -6.500230    3.884433   -0.010076
      5          6           0       -8.600262   -0.372042   -0.013710
      6          7           0       -3.334900   -0.190200   -0.010977
      7          6           0       -3.196474   -1.609263   -0.001070
      8          6           0       -1.720161   -1.994783   -0.214862
      9          6           0       -1.020039   -0.567342   -0.008776
     10          6           0       -2.168353    0.411259   -0.062389
     11          6           0       -0.171549   -0.353488    1.217695
     12          6           0       -1.475785   -2.690805   -1.562427
     13          6           0        0.060253   -2.798658   -1.915843
     14          6           0        1.079994   -2.913108   -0.797974
     15          8           0        1.054076   -3.761761    0.084569
     16          8           0        2.126478   -1.995436   -1.085718
     17          7           0       -4.329230    2.563097   -0.020501
     18          6           0       -2.983821    2.808787    0.176384
     19          6           0       -2.798809    4.220985    0.270523
     20          6           0       -4.089651    4.844458    0.267001
     21          6           0       -5.063482    3.727795    0.088201
     22          6           0       -1.433079    4.908612    0.315378
     23          6           0       -4.448830    6.273719    0.562102
     24          8           0       -5.623621    6.661048    0.638788
     25          6           0       -3.383532    7.279647    0.770049
     26          7           0       -7.318902    1.687551   -0.181133
     27          6           0       -7.503467    2.974978   -0.133618
     28          6           0       -9.061917    3.350751   -0.039096
     29          6           0       -9.705999    1.941027    0.020913
     30          6           0       -8.457709    1.026197   -0.054268
     31          6           0       -9.334727    4.362116    1.179954
     32          6           0      -10.696537    1.695414   -1.123317
     33          6           0      -12.168513    1.470836   -0.702799
     34          7           0       -6.351512   -1.057543   -0.075115
     35          6           0       -7.658818   -1.345685   -0.023229
     36          6           0       -7.879159   -2.771499    0.151562
     37          6           0       -6.523281   -3.305067    0.179507
     38          6           0       -5.634779   -2.225075    0.049539
     39          6           0       -9.209349   -3.554013    0.273619
     40          6           0       -5.787210   -4.515404    0.221482
     41          8           0       -6.176305   -5.659992    0.364881
     42          6           0       -4.291833   -4.006806    0.010292
     43          6           0       -3.573528   -4.596296    1.106564
     44          8           0       -3.794068   -4.294565    2.326272
     45          8           0       -2.441395   -5.295257    0.657408
     46          6           0       -1.600761   -6.031446    1.638139
     47          6           0        3.324923   -2.252314   -0.235157
     48          6           0        4.539643   -1.896719   -1.070099
     49          6           0        5.622258   -2.684029   -1.223891
     50          6           0        5.633123   -4.150089   -0.636419
     51          6           0        6.619595   -2.372007   -2.374243
     52          6           0        7.058953   -0.883451   -2.450585
     53          6           0        8.516246   -0.587275   -2.994602
     54          6           0        9.268618    0.339143   -2.036322
     55          6           0        9.588426   -0.490687   -0.778049
     56          6           0       10.403081    1.016620   -2.762766
     57          6           0       10.727037    2.499923   -2.345517
     58          6           0       12.158957    2.857272   -1.848418
     59          6           0       12.351162    2.997997   -0.349332
     60          6           0       12.856809    4.354366    0.103028
     61          6           0       13.184594    1.821228    0.231828
     62          6           0       13.019380    1.606802    1.709818
     63          6           0       12.399016    0.212452    2.074521
     64          6           0       11.951736    0.033826    3.582436
     65          6           0       13.261988   -0.329644    4.346468
     66          6           0       10.822146   -1.032226    3.664014
     67          1           0       -0.930087    2.138874    0.026147
     68          1           0       -6.940798    4.874150    0.126413
     69          1           0       -9.617791   -0.768990   -0.006561
     70          1           0       -1.437463   -2.719432    0.548905
     71          1           0       -0.410708   -0.416131   -0.899937
     72          1           0       -0.563311    0.405294    1.895416
     73          1           0        0.846012   -0.055288    0.968507
     74          1           0       -0.262514   -1.286720    1.774199
     75          1           0       -1.978192   -2.079436   -2.312014
     76          1           0       -1.930306   -3.660463   -1.357238
     77          1           0        0.298590   -1.910467   -2.499502
     78          1           0        0.232233   -3.644618   -2.582163
     79          1           0       -0.590428    4.218030    0.343837
     80          1           0       -1.356425    5.577240    1.172871
     81          1           0       -1.155040    5.481542   -0.569051
     82          1           0       -3.711089    8.318254    0.725422
     83          1           0       -2.558296    7.181180    0.064691
     84          1           0       -3.064801    7.124234    1.800562
     85          1           0       -9.331085    3.919547   -0.929183
     86          1           0      -10.247548    1.863371    0.964230
     87          1           0       -9.856725    3.728885    1.896645
     88          1           0       -9.869322    5.297777    1.018768
     89          1           0       -8.393194    4.609307    1.671919
     90          1           0      -10.477186    0.812006   -1.722654
     91          1           0      -10.608569    2.540876   -1.805329
     92          1           0      -12.622721    2.441134   -0.900636
     93          1           0      -12.215776    1.196073    0.350276
     94          1           0      -12.596695    0.654858   -1.284661
     95          1           0       -9.974466   -3.270573   -0.447918
     96          1           0       -9.530076   -3.370706    1.299804
     97          1           0       -9.300598   -4.639451    0.311194
     98          1           0       -3.920129   -4.356747   -0.952591
     99          1           0       -1.883300   -5.958175    2.688485
    100          1           0       -0.577706   -5.658381    1.584631
    101          1           0       -1.550858   -7.086423    1.368591
    102          1           0        3.349599   -3.336187   -0.117201
    103          1           0        3.097158   -1.807708    0.733583
    104          1           0        4.526959   -0.981493   -1.662363
    105          1           0        5.058568   -4.763990   -1.329055
    106          1           0        5.172590   -4.262941    0.345193
    107          1           0        6.588071   -4.671576   -0.584082
    108          1           0        6.024569   -2.545452   -3.270983
    109          1           0        7.543436   -2.949228   -2.376778
    110          1           0        6.823583   -0.285455   -1.569221
    111          1           0        6.553132   -0.484078   -3.329786
    112          1           0        8.366015   -0.137173   -3.975308
    113          1           0        9.062951   -1.524210   -3.103417
    114          1           0        8.552411    1.073905   -1.669624
    115          1           0        9.040879   -1.432722   -0.747843
    116          1           0        9.203659    0.044291    0.090404
    117          1           0       10.630210   -0.763509   -0.611946
    118          1           0       10.226393    1.038364   -3.837685
    119          1           0       11.307237    0.428705   -2.605379
    120          1           0        9.977335    2.584346   -1.559572
    121          1           0       10.359238    3.245981   -3.051314
    122          1           0       12.579671    3.673581   -2.435902
    123          1           0       12.841577    2.044727   -2.097335
    124          1           0       11.342386    2.986110    0.062728
    125          1           0       12.084006    4.911643    0.634063
    126          1           0       13.150864    4.963457   -0.750924
    127          1           0       13.746295    4.181936    0.708080
    128          1           0       14.256612    1.757010    0.044696
    129          1           0       12.912973    0.864288   -0.212821
    130          1           0       12.507660    2.334525    2.339713
    131          1           0       14.039266    1.439820    2.057383
    132          1           0       13.159973   -0.505042    1.765567
    133          1           0       11.496739    0.097368    1.473594
    134          1           0       11.704747    1.001331    4.018752
    135          1           0       13.471751    0.334796    5.184129
    136          1           0       14.134164   -0.311191    3.693419
    137          1           0       13.229668   -1.316586    4.807882
    138          1           0       10.313005   -1.107463    2.703230
    139          1           0       10.022319   -0.628389    4.285030
    140          1           0       11.162675   -1.993229    4.048633
 ---------------------------------------------------------------------

 SCF Done:  E(RwB97XD) =  -3007.84296525     A.U. after   19 cycles

 Excitation energies and oscillator strengths:

 Excited State   1:      Singlet-A      1.6856 eV  735.55 nm  f=0.3855  <S**2>=0.000
     245 -> 248       -0.18693
     246 -> 247        0.68160
     245 <- 248       -0.11566
 This state for optimization and/or second-order correction.
 Total Energy, E(TD-HF/TD-DFT) =  -3007.78102067
 Copying the excited state density for this state as the 1-particle RhoCI density.

 Excited State   2:      Singlet-A      2.2022 eV  563.01 nm  f=0.1138  <S**2>=0.000
     245 -> 247        0.63284
     246 -> 248        0.29822

 Excited State   3:      Singlet-A      3.4084 eV  363.76 nm  f=0.0053  <S**2>=0.000
     243 -> 247       -0.33622
     244 -> 247        0.59448

 Excited State   4:      Singlet-A      3.4844 eV  355.83 nm  f=0.2336  <S**2>=0.000
     243 -> 247       -0.44441
     244 -> 247       -0.17077
     245 -> 247       -0.16698
     246 -> 248        0.47202

 Excited State   5:      Singlet-A      3.5344 eV  350.79 nm  f=0.0019  <S**2>=0.000
     241 -> 247        0.54461
     241 -> 248       -0.13613
     241 -> 249        0.32650
     241 -> 250        0.22481

 The electronic state is 1-A.
 Alpha  occ. eigenvalues --  -46.95459 -19.30728 -19.30089 -19.26663 -19.23773
 Alpha  occ. eigenvalues --  -19.23733 -19.23359 -14.46775 -14.46230 -14.44438
 Alpha  occ. eigenvalues --  -14.43278 -10.44506 -10.42862 -10.38806 -10.38425
 Alpha  occ. eigenvalues --  -10.36179 -10.35293 -10.35203 -10.34866 -10.34510
 Alpha  occ. eigenvalues --  -10.34386 -10.34346 -10.33944 -10.32977 -10.32798
 Alpha  occ. eigenvalues --  -10.32726 -10.32673 -10.32269 -10.32097 -10.31998
 Alpha  occ. eigenvalues --  -10.31996 -10.31819 -10.31791 -10.31622 -10.31504
 Alpha  occ. eigenvalues --  -10.31415 -10.31407 -10.31326 -10.31184 -10.30791
 Alpha  occ. eigenvalues --  -10.30630 -10.30317 -10.30149 -10.30058 -10.29827
 Alpha  occ. eigenvalues --  -10.29761 -10.29691 -10.29669 -10.29665 -10.29559
 Alpha  occ. eigenvalues --  -10.29447 -10.29433 -10.29284 -10.29222 -10.29139
 Alpha  occ. eigenvalues --  -10.28931 -10.28742 -10.28707 -10.28632 -10.28620
 Alpha  occ. eigenvalues --  -10.28529 -10.28512 -10.28394 -10.28209 -10.28028
 Alpha  occ. eigenvalues --  -10.27870  -3.21344  -1.94944  -1.94478  -1.94288
 Alpha  occ. eigenvalues --   -1.17848  -1.15571  -1.11841  -1.11134  -1.10798
 Alpha  occ. eigenvalues --   -1.07629  -1.07031  -1.05789  -1.05081  -1.04192
 Alpha  occ. eigenvalues --   -0.95518  -0.92639  -0.91862  -0.91511  -0.91013
 Alpha  occ. eigenvalues --   -0.90862  -0.89932  -0.89184  -0.89150  -0.88777
 Alpha  occ. eigenvalues --   -0.87393  -0.87138  -0.86208  -0.85570  -0.85063
 Alpha  occ. eigenvalues --   -0.84469  -0.83984  -0.83269  -0.82556  -0.82428
 Alpha  occ. eigenvalues --   -0.81694  -0.80189  -0.79920  -0.78862  -0.78157
 Alpha  occ. eigenvalues --   -0.77913  -0.77516  -0.77348  -0.77074  -0.75905
 Alpha  occ. eigenvalues --   -0.75221  -0.74710  -0.73689  -0.72780  -0.71122
 Alpha  occ. eigenvalues --   -0.70884  -0.70442  -0.69300  -0.68428  -0.67614
 Alpha  occ. eigenvalues --   -0.67499  -0.66715  -0.66681  -0.66625  -0.65961
 Alpha  occ. eigenvalues --   -0.65052  -0.65022  -0.64899  -0.63637  -0.62292
 Alpha  occ. eigenvalues --   -0.61917  -0.61273  -0.61105  -0.60646  -0.60057
 Alpha  occ. eigenvalues --   -0.59776  -0.59112  -0.58392  -0.58175  -0.57378
 Alpha  occ. eigenvalues --   -0.57177  -0.56977  -0.56563  -0.56161  -0.55780
 Alpha  occ. eigenvalues --   -0.55584  -0.55310  -0.54940  -0.54796  -0.54595
 Alpha  occ. eigenvalues --   -0.54404  -0.54303  -0.54153  -0.53955  -0.53649
 Alpha  occ. eigenvalues --   -0.53461  -0.53344  -0.52891  -0.52490  -0.52403
 Alpha  occ. eigenvalues --   -0.52315  -0.51945  -0.51859  -0.51798  -0.51471
 Alpha  occ. eigenvalues --   -0.51282  -0.51151  -0.51006  -0.50634  -0.50555
 Alpha  occ. eigenvalues --   -0.50432  -0.50224  -0.49853  -0.49826  -0.49448
 Alpha  occ. eigenvalues --   -0.49147  -0.49043  -0.48853  -0.48773  -0.48503
 Alpha  occ. eigenvalues --   -0.48204  -0.48004  -0.47822  -0.47652  -0.47537
 Alpha  occ. eigenvalues --   -0.47511  -0.47377  -0.47170  -0.46798  -0.46729
 Alpha  occ. eigenvalues --   -0.46621  -0.46401  -0.46300  -0.45958  -0.45767
 Alpha  occ. eigenvalues --   -0.45761  -0.45284  -0.44859  -0.44720  -0.44605
 Alpha  occ. eigenvalues --   -0.44289  -0.44173  -0.43930  -0.43908  -0.43832
 Alpha  occ. eigenvalues --   -0.43660  -0.43469  -0.43444  -0.43200  -0.43051
 Alpha  occ. eigenvalues --   -0.42801  -0.42730  -0.42337  -0.42304  -0.42182
 Alpha  occ. eigenvalues --   -0.41627  -0.41368  -0.41186  -0.40874  -0.40761
 Alpha  occ. eigenvalues --   -0.40251  -0.39916  -0.39790  -0.39557  -0.39347
 Alpha  occ. eigenvalues --   -0.39256  -0.39185  -0.39169  -0.38344  -0.37941
 Alpha  occ. eigenvalues --   -0.37570  -0.37196  -0.37153  -0.36792  -0.36312
 Alpha  occ. eigenvalues --   -0.36066  -0.35678  -0.35070  -0.33428  -0.32957
 Alpha  occ. eigenvalues --   -0.32668  -0.32638  -0.32265  -0.31302  -0.25980
 Alpha  occ. eigenvalues --   -0.22862
 Alpha virt. eigenvalues --   -0.06935   0.00299   0.02276   0.04880   0.05177
 Alpha virt. eigenvalues --    0.05526   0.06515   0.06612   0.08595   0.09912
 Alpha virt. eigenvalues --    0.11187   0.11680   0.11914   0.12316   0.12362

 Mulliken charges:
               1
     1  Mg   0.958573
     2  C    0.021693
     3  C   -0.100062
     4  C   -0.065113
     5  C   -0.093006
     6  N   -0.341040
     7  C    0.010611
     8  C   -0.120002
     9  C   -0.112750
    10  C    0.052292
    11  C    0.036091
    12  C    0.051154
    13  C   -0.013350
    14  C    0.225636
    15  O   -0.252042
    16  O   -0.405056
    17  N   -0.501381
    18  C    0.196136
    19  C   -0.150193
    20  C   -0.077869
    21  C    0.182558
    22  C    0.048192
    23  C    0.049755
    24  O   -0.253479
    25  C   -0.008713
    26  N   -0.285476
    27  C    0.015360
    28  C   -0.101623
    29  C   -0.041597
    30  C    0.048581
    31  C    0.002470
    32  C   -0.030014
    33  C   -0.052184
    34  N   -0.418749
    35  C    0.125478
    36  C   -0.132931
    37  C   -0.015879
    38  C    0.114754
    39  C    0.050137
    40  C    0.105863
    41  O   -0.193943
    42  C   -0.119733
    43  C    0.303783
    44  O   -0.293596
    45  O   -0.388707
    46  C    0.130264
    47  C    0.252045
    48  C   -0.120139
    49  C   -0.179686
    50  C   -0.027001
    51  C    0.042718
    52  C   -0.086502
    53  C   -0.004072
    54  C   -0.200967
    55  C   -0.001831
    56  C    0.047875
    57  C   -0.034420
    58  C    0.040245
    59  C   -0.175779
    60  C    0.024355
    61  C    0.036168
    62  C   -0.029145
    63  C   -0.065588
    64  C   -0.199541
    65  C   -0.013558
    66  C    0.024544
    67  H   -0.003563
    68  H    0.027000
    69  H   -0.012854
    70  H    0.053840
    71  H    0.032512
    72  H    0.043093
    73  H    0.042659
    74  H    0.042951
    75  H    0.036365
    76  H    0.058162
    77  H    0.051870
    78  H    0.070515
    79  H    0.024470
    80  H    0.048997
    81  H    0.056583
    82  H    0.050034
    83  H    0.049985
    84  H    0.063987
    85  H    0.046844
    86  H    0.038188
    87  H    0.019284
    88  H    0.051598
    89  H    0.050843
    90  H    0.031563
    91  H    0.023518
    92  H    0.044490
    93  H    0.034983
    94  H    0.041109
    95  H    0.046261
    96  H    0.048389
    97  H    0.052119
    98  H    0.076768
    99  H    0.065820
   100  H    0.061668
   101  H    0.051953
   102  H    0.035906
   103  H    0.059320
   104  H    0.036834
   105  H    0.054236
   106  H    0.055076
   107  H    0.037184
   108  H    0.052527
   109  H    0.026596
   110  H    0.040419
   111  H    0.023991
   112  H    0.016515
   113  H    0.019537
   114  H    0.020516
   115  H    0.021623
   116  H    0.032061
   117  H    0.043074
   118  H    0.018319
   119  H    0.008332
   120  H    0.000795
   121  H    0.022710
   122  H    0.011955
   123  H    0.007747
   124  H    0.015534
   125  H    0.031705
   126  H    0.017855
   127  H    0.028411
   128  H    0.013518
   129  H   -0.007571
   130  H    0.021554
   131  H    0.004531
   132  H    0.024333
   133  H    0.006248
   134  H    0.028031
   135  H    0.025874
   136  H    0.026675
   137  H    0.017927
   138  H    0.022703
   139  H    0.024522
   140  H    0.040253
 Sum of Mulliken charges =  -0.00000

 Dipole moment (field-independent basis, Debye):
    X=              5.0493    Y=              2.8185    Z=             -3.8962  Tot=              6.9729
 Quadrupole moment (field-independent basis, Debye-Ang):
   XX=           -382.4714   YY=           -425.5816   ZZ=           -402.6594
   XY=            -22.4909   XZ=             11.6085   YZ=              9.6621

 Normal termination of Gaussian 16 at Thu May  5 14:09:04 2022.
