 Gaussian 16, Revision A.03,
 Gaussian 16:  ES64L-G16RevA.03 25-Dec-2016

 --------------------
 #p ZINDO=(nstates=5)
 --------------------

 ----------------------------
 step_901_chromophore_3 ZINDO
 ----------------------------
 Symbolic Z-matrix:
 Charge =  0 Multiplicity = 1

                         Standard orientation:
 ---------------------------------------------------------------------
 Center     Atomic      Atomic             Coordinates (Angstroms)
 Number     Number       Type             X           Y           Z
 ---------------------------------------------------------------------
      1         12           0       -5.308994    0.797901   -0.282124
      2          6           0       -4.272166   -2.499434    0.042632
      3          6           0       -1.975054    1.820233    0.028597
      4          6           0       -6.500230    3.884433   -0.010076
      5          6           0       -8.600262   -0.372042   -0.013710
      6          7           0       -3.334900   -0.190200   -0.010977
      7          6           0       -3.196474   -1.609263   -0.001070
      8          6           0       -1.720161   -1.994783   -0.214862
      9          6           0       -1.020039   -0.567342   -0.008776
     10          6           0       -2.168353    0.411259   -0.062389
     11          6           0       -0.171549   -0.353488    1.217695
     12          6           0       -1.475785   -2.690805   -1.562427
     13          6           0        0.060253   -2.798658   -1.915843
     14          6           0        1.079994   -2.913108   -0.797974
     15          8           0        1.054076   -3.761761    0.084569
     16          8           0        2.126478   -1.995436   -1.085718
     17          7           0       -4.329230    2.563097   -0.020501
     18          6           0       -2.983821    2.808787    0.176384
     19          6           0       -2.798809    4.220985    0.270523
     20          6           0       -4.089651    4.844458    0.267001
     21          6           0       -5.063482    3.727795    0.088201
     22          6           0       -1.433079    4.908612    0.315378
     23          6           0       -4.448830    6.273719    0.562102
     24          8           0       -5.623621    6.661048    0.638788
     25          6           0       -3.383532    7.279647    0.770049
     26          7           0       -7.318902    1.687551   -0.181133
     27          6           0       -7.503467    2.974978   -0.133618
     28          6           0       -9.061917    3.350751   -0.039096
     29          6           0       -9.705999    1.941027    0.020913
     30          6           0       -8.457709    1.026197   -0.054268
     31          6           0       -9.334727    4.362116    1.179954
     32          6           0      -10.696537    1.695414   -1.123317
     33          6           0      -12.168513    1.470836   -0.702799
     34          7           0       -6.351512   -1.057543   -0.075115
     35          6           0       -7.658818   -1.345685   -0.023229
     36          6           0       -7.879159   -2.771499    0.151562
     37          6           0       -6.523281   -3.305067    0.179507
     38          6           0       -5.634779   -2.225075    0.049539
     39          6           0       -9.209349   -3.554013    0.273619
     40          6           0       -5.787210   -4.515404    0.221482
     41          8           0       -6.176305   -5.659992    0.364881
     42          6           0       -4.291833   -4.006806    0.010292
     43          6           0       -3.573528   -4.596296    1.106564
     44          8           0       -3.794068   -4.294565    2.326272
     45          8           0       -2.441395   -5.295257    0.657408
     46          6           0       -1.600761   -6.031446    1.638139
     47          6           0        3.324923   -2.252314   -0.235157
     48          6           0        4.539643   -1.896719   -1.070099
     49          6           0        5.622258   -2.684029   -1.223891
     50          6           0        5.633123   -4.150089   -0.636419
     51          6           0        6.619595   -2.372007   -2.374243
     52          6           0        7.058953   -0.883451   -2.450585
     53          6           0        8.516246   -0.587275   -2.994602
     54          6           0        9.268618    0.339143   -2.036322
     55          6           0        9.588426   -0.490687   -0.778049
     56          6           0       10.403081    1.016620   -2.762766
     57          6           0       10.727037    2.499923   -2.345517
     58          6           0       12.158957    2.857272   -1.848418
     59          6           0       12.351162    2.997997   -0.349332
     60          6           0       12.856809    4.354366    0.103028
     61          6           0       13.184594    1.821228    0.231828
     62          6           0       13.019380    1.606802    1.709818
     63          6           0       12.399016    0.212452    2.074521
     64          6           0       11.951736    0.033826    3.582436
     65          6           0       13.261988   -0.329644    4.346468
     66          6           0       10.822146   -1.032226    3.664014
     67          1           0       -0.930087    2.138874    0.026147
     68          1           0       -6.940798    4.874150    0.126413
     69          1           0       -9.617791   -0.768990   -0.006561
     70          1           0       -1.437463   -2.719432    0.548905
     71          1           0       -0.410708   -0.416131   -0.899937
     72          1           0       -0.563311    0.405294    1.895416
     73          1           0        0.846012   -0.055288    0.968507
     74          1           0       -0.262514   -1.286720    1.774199
     75          1           0       -1.978192   -2.079436   -2.312014
     76          1           0       -1.930306   -3.660463   -1.357238
     77          1           0        0.298590   -1.910467   -2.499502
     78          1           0        0.232233   -3.644618   -2.582163
     79          1           0       -0.590428    4.218030    0.343837
     80          1           0       -1.356425    5.577240    1.172871
     81          1           0       -1.155040    5.481542   -0.569051
     82          1           0       -3.711089    8.318254    0.725422
     83          1           0       -2.558296    7.181180    0.064691
     84          1           0       -3.064801    7.124234    1.800562
     85          1           0       -9.331085    3.919547   -0.929183
     86          1           0      -10.247548    1.863371    0.964230
     87          1           0       -9.856725    3.728885    1.896645
     88          1           0       -9.869322    5.297777    1.018768
     89          1           0       -8.393194    4.609307    1.671919
     90          1           0      -10.477186    0.812006   -1.722654
     91          1           0      -10.608569    2.540876   -1.805329
     92          1           0      -12.622721    2.441134   -0.900636
     93          1           0      -12.215776    1.196073    0.350276
     94          1           0      -12.596695    0.654858   -1.284661
     95          1           0       -9.974466   -3.270573   -0.447918
     96          1           0       -9.530076   -3.370706    1.299804
     97          1           0       -9.300598   -4.639451    0.311194
     98          1           0       -3.920129   -4.356747   -0.952591
     99          1           0       -1.883300   -5.958175    2.688485
    100          1           0       -0.577706   -5.658381    1.584631
    101          1           0       -1.550858   -7.086423    1.368591
    102          1           0        3.349599   -3.336187   -0.117201
    103          1           0        3.097158   -1.807708    0.733583
    104          1           0        4.526959   -0.981493   -1.662363
    105          1           0        5.058568   -4.763990   -1.329055
    106          1           0        5.172590   -4.262941    0.345193
    107          1           0        6.588071   -4.671576   -0.584082
    108          1           0        6.024569   -2.545452   -3.270983
    109          1           0        7.543436   -2.949228   -2.376778
    110          1           0        6.823583   -0.285455   -1.569221
    111          1           0        6.553132   -0.484078   -3.329786
    112          1           0        8.366015   -0.137173   -3.975308
    113          1           0        9.062951   -1.524210   -3.103417
    114          1           0        8.552411    1.073905   -1.669624
    115          1           0        9.040879   -1.432722   -0.747843
    116          1           0        9.203659    0.044291    0.090404
    117          1           0       10.630210   -0.763509   -0.611946
    118          1           0       10.226393    1.038364   -3.837685
    119          1           0       11.307237    0.428705   -2.605379
    120          1           0        9.977335    2.584346   -1.559572
    121          1           0       10.359238    3.245981   -3.051314
    122          1           0       12.579671    3.673581   -2.435902
    123          1           0       12.841577    2.044727   -2.097335
    124          1           0       11.342386    2.986110    0.062728
    125          1           0       12.084006    4.911643    0.634063
    126          1           0       13.150864    4.963457   -0.750924
    127          1           0       13.746295    4.181936    0.708080
    128          1           0       14.256612    1.757010    0.044696
    129          1           0       12.912973    0.864288   -0.212821
    130          1           0       12.507660    2.334525    2.339713
    131          1           0       14.039266    1.439820    2.057383
    132          1           0       13.159973   -0.505042    1.765567
    133          1           0       11.496739    0.097368    1.473594
    134          1           0       11.704747    1.001331    4.018752
    135          1           0       13.471751    0.334796    5.184129
    136          1           0       14.134164   -0.311191    3.693419
    137          1           0       13.229668   -1.316586    4.807882
    138          1           0       10.313005   -1.107463    2.703230
    139          1           0       10.022319   -0.628389    4.285030
    140          1           0       11.162675   -1.993229    4.048633
 ---------------------------------------------------------------------

 SCF Done:  E(RZINDO/S) =  -474.178751766     A.U. after   19 cycles

 Excitation energies and oscillator strengths:

 Excited State   1:      Singlet-A      1.2743 eV  972.94 nm  f=0.6044  <S**2>=0.000
     175 ->178         0.19481
     176 ->177         0.65993
 This state for optimization and/or second-order correction.
 Total Energy, E(CIS/TDA) =  -474.131921080
 Copying the excited state density for this state as the 1-particle RhoCI density.

 Excited State   2:      Singlet-A      1.9365 eV  640.25 nm  f=0.0354  <S**2>=0.000
     175 ->177         0.53284
     176 ->178        -0.43743

 Excited State   3:      Singlet-A      2.9257 eV  423.78 nm  f=0.0014  <S**2>=0.000
     168 ->177        -0.30608
     168 ->179         0.35704
     168 ->181         0.31663
     168 ->183        -0.13064
     168 ->186         0.18583
     168 ->187        -0.13052
     169 ->179        -0.10913

 Excited State   4:      Singlet-A      2.9488 eV  420.45 nm  f=0.4087  <S**2>=0.000
     170 ->179        -0.11640
     175 ->177         0.25675
     176 ->178         0.37885
     176 ->179         0.43656
     176 ->183         0.10590

 Excited State   5:      Singlet-A      3.0344 eV  408.60 nm  f=0.2069  <S**2>=0.000
     170 ->177         0.29645
     170 ->178         0.21126
     170 ->179         0.33232
     170 ->181        -0.19985
     170 ->183         0.18855
     170 ->186         0.20482
     170 ->187         0.12743
     170 ->201        -0.12080
     175 ->177         0.15716
     176 ->178         0.20493

 The electronic state is 1-A.
 Alpha  occ. eigenvalues --   -1.84343  -1.81522  -1.80308  -1.72779  -1.70094
 Alpha  occ. eigenvalues --   -1.69077  -1.66179  -1.61629  -1.58558  -1.57999
 Alpha  occ. eigenvalues --   -1.54725  -1.52236  -1.48923  -1.48482  -1.47687
 Alpha  occ. eigenvalues --   -1.43928  -1.41840  -1.39614  -1.39285  -1.38610
 Alpha  occ. eigenvalues --   -1.36050  -1.33671  -1.31660  -1.31201  -1.28740
 Alpha  occ. eigenvalues --   -1.27243  -1.25642  -1.22373  -1.20534  -1.18016
 Alpha  occ. eigenvalues --   -1.17357  -1.16660  -1.15891  -1.14641  -1.13562
 Alpha  occ. eigenvalues --   -1.12351  -1.10561  -1.10243  -1.04716  -1.04121
 Alpha  occ. eigenvalues --   -1.02367  -1.01342  -1.00182  -0.98441  -0.96220
 Alpha  occ. eigenvalues --   -0.95054  -0.94230  -0.93658  -0.92932  -0.91743
 Alpha  occ. eigenvalues --   -0.91713  -0.89576  -0.89131  -0.88573  -0.86921
 Alpha  occ. eigenvalues --   -0.86696  -0.84207  -0.84047  -0.82828  -0.81121
 Alpha  occ. eigenvalues --   -0.79710  -0.78123  -0.77719  -0.77168  -0.76077
 Alpha  occ. eigenvalues --   -0.76027  -0.75432  -0.75078  -0.74931  -0.74149
 Alpha  occ. eigenvalues --   -0.73264  -0.72545  -0.72441  -0.71670  -0.71217
 Alpha  occ. eigenvalues --   -0.70266  -0.69521  -0.69266  -0.68669  -0.68172
 Alpha  occ. eigenvalues --   -0.67324  -0.67228  -0.66078  -0.65880  -0.65270
 Alpha  occ. eigenvalues --   -0.65169  -0.64829  -0.64430  -0.63791  -0.63552
 Alpha  occ. eigenvalues --   -0.63072  -0.62412  -0.61932  -0.61828  -0.61689
 Alpha  occ. eigenvalues --   -0.61162  -0.60928  -0.60441  -0.60361  -0.59532
 Alpha  occ. eigenvalues --   -0.59300  -0.58938  -0.58644  -0.58469  -0.57591
 Alpha  occ. eigenvalues --   -0.57483  -0.57284  -0.56866  -0.56672  -0.56323
 Alpha  occ. eigenvalues --   -0.56047  -0.55803  -0.55204  -0.54877  -0.54283
 Alpha  occ. eigenvalues --   -0.53966  -0.53559  -0.53144  -0.52827  -0.52643
 Alpha  occ. eigenvalues --   -0.52209  -0.51777  -0.51694  -0.51360  -0.51172
 Alpha  occ. eigenvalues --   -0.50999  -0.50782  -0.50647  -0.50472  -0.50311
 Alpha  occ. eigenvalues --   -0.50006  -0.49533  -0.49406  -0.49175  -0.48973
 Alpha  occ. eigenvalues --   -0.48831  -0.48575  -0.48506  -0.48270  -0.47971
 Alpha  occ. eigenvalues --   -0.47578  -0.47276  -0.47083  -0.46583  -0.46456
 Alpha  occ. eigenvalues --   -0.46269  -0.45790  -0.45708  -0.45392  -0.45139
 Alpha  occ. eigenvalues --   -0.45110  -0.45083  -0.44438  -0.44378  -0.43836
 Alpha  occ. eigenvalues --   -0.43759  -0.43271  -0.43041  -0.42802  -0.42604
 Alpha  occ. eigenvalues --   -0.41939  -0.41477  -0.40417  -0.39784  -0.38721
 Alpha  occ. eigenvalues --   -0.37763  -0.36838  -0.35037  -0.34908  -0.34440
 Alpha  occ. eigenvalues --   -0.33252  -0.33216  -0.32543  -0.31853  -0.26592
 Alpha  occ. eigenvalues --   -0.21731
 Alpha virt. eigenvalues --   -0.08411  -0.02228  -0.00612   0.00741   0.01363
 Alpha virt. eigenvalues --    0.01943   0.02200   0.03082   0.03464   0.05252
 Alpha virt. eigenvalues --    0.06585   0.07243   0.07398   0.08013   0.08385

 Mulliken charges:
               1
     1  Mg   0.427252
     2  C   -0.018830
     3  C   -0.093084
     4  C   -0.062454
     5  C   -0.057895
     6  N   -0.279506
     7  C    0.094242
     8  C   -0.003077
     9  C    0.006692
    10  C    0.162276
    11  C   -0.045122
    12  C   -0.021925
    13  C    0.003064
    14  C    0.470798
    15  O   -0.504862
    16  O   -0.285942
    17  N   -0.323765
    18  C    0.115411
    19  C    0.012645
    20  C   -0.050480
    21  C    0.133129
    22  C   -0.046249
    23  C    0.335621
    24  O   -0.538279
    25  C   -0.026571
    26  N   -0.239812
    27  C    0.137618
    28  C   -0.008196
    29  C    0.008236
    30  C    0.116937
    31  C   -0.063582
    32  C   -0.033843
    33  C   -0.061557
    34  N   -0.332906
    35  C    0.114912
    36  C    0.021134
    37  C   -0.057765
    38  C    0.105349
    39  C   -0.042482
    40  C    0.338479
    41  O   -0.518779
    42  C    0.067759
    43  C    0.491135
    44  O   -0.543058
    45  O   -0.278069
    46  C    0.073992
    47  C    0.096366
    48  C   -0.073439
    49  C   -0.015238
    50  C   -0.049491
    51  C   -0.020079
    52  C   -0.052987
    53  C   -0.037120
    54  C   -0.000754
    55  C   -0.056962
    56  C   -0.027768
    57  C   -0.048313
    58  C   -0.031481
    59  C   -0.000766
    60  C   -0.055385
    61  C   -0.028357
    62  C   -0.047195
    63  C   -0.044445
    64  C   -0.016209
    65  C   -0.061946
    66  C   -0.055743
    67  H    0.026958
    68  H    0.048681
    69  H    0.018643
    70  H    0.044585
    71  H    0.022805
    72  H    0.022553
    73  H    0.024782
    74  H    0.029513
    75  H    0.029868
    76  H    0.038937
    77  H    0.028404
    78  H    0.044597
    79  H    0.017770
    80  H    0.028528
    81  H    0.029992
    82  H    0.034679
    83  H    0.031263
    84  H    0.042328
    85  H    0.033349
    86  H    0.037850
    87  H    0.013916
    88  H    0.034559
    89  H    0.028213
    90  H    0.018102
    91  H    0.019293
    92  H    0.023807
    93  H    0.023147
    94  H    0.022935
    95  H    0.025374
    96  H    0.027952
    97  H    0.039202
    98  H    0.049243
    99  H    0.053774
   100  H    0.037594
   101  H    0.035572
   102  H    0.049297
   103  H    0.056719
   104  H    0.035921
   105  H    0.026375
   106  H    0.028033
   107  H    0.020529
   108  H    0.030730
   109  H    0.028265
   110  H    0.032761
   111  H    0.010679
   112  H    0.014090
   113  H    0.020677
   114  H    0.019196
   115  H    0.015643
   116  H    0.012844
   117  H    0.023684
   118  H    0.016533
   119  H    0.017668
   120  H    0.012870
   121  H    0.019444
   122  H    0.019179
   123  H    0.011026
   124  H    0.018686
   125  H    0.020227
   126  H    0.015735
   127  H    0.020064
   128  H    0.023854
   129  H    0.009375
   130  H    0.028821
   131  H    0.009528
   132  H    0.023726
   133  H    0.010055
   134  H    0.028741
   135  H    0.012602
   136  H    0.019826
   137  H    0.013705
   138  H    0.019690
   139  H    0.012522
   140  H    0.030635
 Sum of Mulliken charges =  -0.00000

 Dipole moment (field-independent basis, Debye):
    X=              6.2580    Y=              4.0293    Z=             -5.5704  Tot=              9.2966
 N-N= 4.305942248083D+03 E-N= 0.000000000000D+00  KE=-9.286140247320D+03
 Leave Link  601 at Thu May  5 14:23:12 2022, MaxMem=  6710886400 cpu:               0.8 elap:               0.1
 (Enter /sw/apps/gaussian-16.0/g16/l9999.exe)
 1\1\GINC-BP1-COMPUTE063\SP\RZINDO CIS\STO-3G\C55H74Mg1N4O6\OF15641\05-
 May-2022\0\\#p ZINDO=(nstates=5)\\step_901_chromophore_3 ZINDO\\0,1\Mg
 ,0,1.448,8.002,26.485\C,0,1.937,10.222,29.109\C,0,2.188,5.357,28.656\C
 ,0,1.532,6.081,23.779\C,0,1.289,10.785,24.363\N,0,1.987,7.776,28.631\C
 ,0,2.028,8.89,29.52\C,0,2.015,8.398,30.98\C,0,2.299,6.836,30.757\C,0,2
 .085,6.636,29.276\C,0,3.625,6.276,31.202\C,0,0.718,8.761,31.719\C,0,0.
 572,7.995,33.093\C,0,1.816,7.61,33.872\O,0,2.695,8.392,34.212\O,0,1.66

 Normal termination of Gaussian 16 at Thu May  5 14:23:12 2022.
