 Gaussian 16, Revision A.03,
 Gaussian 16:  ES64L-G16RevA.03 25-Dec-2016

 ------------------------------
 #p blyp/Def2SVP td=(nstates=5)
 ------------------------------

 -------------------------------------------------
 step_901_chromophore_4 TDDFT with blyp functional
 -------------------------------------------------
 Symbolic Z-matrix:
 Charge =  0 Multiplicity = 1

                         Standard orientation:
 ---------------------------------------------------------------------
 Center     Atomic      Atomic             Coordinates (Angstroms)
 Number     Number       Type             X           Y           Z
 ---------------------------------------------------------------------
      1         12           0        5.891145    0.582385    0.117637
      2          6           0        3.667407   -2.190386    0.165953
      3          6           0        3.311352    2.559791   -0.629419
      4          6           0        8.089471    3.082037   -0.094217
      5          6           0        8.499156   -1.702399    0.451507
      6          7           0        3.761180    0.166722   -0.240322
      7          6           0        3.109418   -1.019419   -0.190705
      8          6           0        1.554730   -0.831672   -0.471885
      9          6           0        1.521379    0.733166   -0.682728
     10          6           0        2.921621    1.210936   -0.511709
     11          6           0        0.950323    1.139609   -2.089486
     12          6           0        0.655479   -1.235270    0.689195
     13          6           0       -0.869884   -0.903399    0.526443
     14          6           0       -1.878201   -2.106230    0.551002
     15          8           0       -1.907708   -2.932791    1.453181
     16          8           0       -2.740050   -2.111534   -0.603463
     17          7           0        5.757129    2.470620   -0.211856
     18          6           0        4.566177    3.132899   -0.455877
     19          6           0        4.854418    4.552381   -0.420581
     20          6           0        6.247616    4.665328   -0.380313
     21          6           0        6.721528    3.331618   -0.215360
     22          6           0        3.804977    5.662043   -0.564126
     23          6           0        7.140553    5.969277   -0.444425
     24          8           0        8.318577    6.084936   -0.087406
     25          6           0        6.386886    7.283008   -0.794221
     26          7           0        8.063978    0.684184    0.050396
     27          6           0        8.728144    1.842276    0.077912
     28          6           0       10.220891    1.657026    0.183074
     29          6           0       10.370193    0.152649    0.353165
     30          6           0        8.897688   -0.356148    0.314386
     31          6           0       11.114935    2.302163   -0.965271
     32          6           0       11.161687   -0.135392    1.666964
     33          6           0       12.557501   -0.791926    1.379982
     34          7           0        6.128853   -1.529508    0.361042
     35          6           0        7.244195   -2.294720    0.561615
     36          6           0        6.870300   -3.663502    0.683924
     37          6           0        5.483505   -3.617374    0.608525
     38          6           0        5.061209   -2.324093    0.402900
     39          6           0        7.714469   -4.781157    0.981525
     40          6           0        4.276012   -4.498604    0.576242
     41          8           0        4.201213   -5.668004    0.752179
     42          6           0        3.074277   -3.567768    0.223762
     43          6           0        2.358672   -3.901587   -0.973798
     44          8           0        2.827009   -4.080719   -2.111628
     45          8           0        1.007196   -4.030103   -0.646961
     46          6           0        0.234149   -4.866980   -1.651352
     47          6           0       -3.788906   -3.100705   -0.575306
     48          6           0       -5.108957   -2.367518   -0.203363
     49          6           0       -6.343206   -2.938081   -0.183380
     50          6           0       -6.710747   -4.400456   -0.209308
     51          6           0       -7.483997   -2.055263    0.302723
     52          6           0       -7.880405   -1.002825   -0.728687
     53          6           0       -7.335432    0.385397   -0.406654
     54          6           0       -8.408141    1.489046    0.104749
     55          6           0       -7.747200    2.833754    0.197881
     56          6           0       -9.133304    1.151177    1.433050
     57          6           0      -10.664919    0.961214    1.226039
     58          6           0      -11.466889    2.271358    1.244302
     59          6           0      -12.688563    2.130367    2.136542
     60          6           0      -12.713467    3.194922    3.280586
     61          6           0      -13.935184    2.386923    1.279641
     62          6           0      -14.747836    1.135280    0.923793
     63          6           0      -15.325369    1.120820   -0.470287
     64          6           0      -14.481501    0.293719   -1.535670
     65          6           0      -13.814262    1.315358   -2.583939
     66          6           0      -15.437192   -0.745613   -2.244506
     67          1           0        2.419346    3.150292   -0.847641
     68          1           0        8.850431    3.864898   -0.129554
     69          1           0        9.378781   -2.342428    0.537533
     70          1           0        1.202712   -1.274918   -1.403317
     71          1           0        0.847007    1.246274    0.002724
     72          1           0        0.151838    1.862838   -1.923464
     73          1           0        0.416739    0.282200   -2.500445
     74          1           0        1.754955    1.590266   -2.670326
     75          1           0        1.058246   -0.805882    1.606753
     76          1           0        0.731429   -2.320194    0.757287
     77          1           0       -0.970880   -0.381693   -0.425792
     78          1           0       -1.175082   -0.126152    1.226527
     79          1           0        3.998489    6.347449   -1.389960
     80          1           0        3.968768    6.175255    0.383602
     81          1           0        2.788074    5.281275   -0.649369
     82          1           0        7.075968    8.086975   -1.054462
     83          1           0        5.701606    7.406686    0.044247
     84          1           0        5.905272    7.031718   -1.739274
     85          1           0       10.533008    2.266029    1.031624
     86          1           0       10.940946   -0.349143   -0.428542
     87          1           0       10.492031    2.766917   -1.730479
     88          1           0       11.546190    1.516654   -1.585509
     89          1           0       11.858833    3.024665   -0.630808
     90          1           0       10.575204   -0.810980    2.288740
     91          1           0       11.319167    0.785984    2.227457
     92          1           0       12.674013   -1.180940    0.368544
     93          1           0       12.667194   -1.585228    2.119796
     94          1           0       13.392503   -0.092434    1.398621
     95          1           0        7.147778   -5.639350    1.342294
     96          1           0        8.609510   -4.527548    1.549531
     97          1           0        7.957532   -5.093255   -0.033911
     98          1           0        2.371180   -3.749904    1.036399
     99          1           0        0.542172   -5.909526   -1.570124
    100          1           0        0.435707   -4.563707   -2.678161
    101          1           0       -0.855507   -4.851606   -1.618509
    102          1           0       -3.716804   -4.015909    0.012098
    103          1           0       -3.915124   -3.488279   -1.585759
    104          1           0       -4.904489   -1.323020    0.031219
    105          1           0       -5.869381   -5.086157   -0.312753
    106          1           0       -7.414807   -4.660463   -0.999544
    107          1           0       -7.229530   -4.654521    0.715091
    108          1           0       -7.147196   -1.706014    1.279587
    109          1           0       -8.377461   -2.644813    0.509951
    110          1           0       -8.961499   -0.939096   -0.853520
    111          1           0       -7.441651   -1.311885   -1.677445
    112          1           0       -6.805820    0.814903   -1.255916
    113          1           0       -6.683592    0.244965    0.455876
    114          1           0       -9.280232    1.492286   -0.549649
    115          1           0       -6.771805    2.964382   -0.269301
    116          1           0       -7.623191    3.172093    1.227229
    117          1           0       -8.421728    3.614029   -0.156776
    118          1           0       -8.780906    1.761827    2.264403
    119          1           0       -8.775597    0.193986    1.812877
    120          1           0      -11.074009    0.305786    1.993645
    121          1           0      -11.007504    0.447830    0.327664
    122          1           0      -11.693616    2.421480    0.188886
    123          1           0      -10.729327    3.028422    1.508094
    124          1           0      -12.778428    1.151201    2.605927
    125          1           0      -12.624401    4.147777    2.760171
    126          1           0      -11.893070    3.085125    3.991580
    127          1           0      -13.715835    3.255667    3.702445
    128          1           0      -13.661892    2.884997    0.348913
    129          1           0      -14.632871    3.053025    1.786963
    130          1           0      -15.651783    1.165020    1.531936
    131          1           0      -14.225287    0.207926    1.159470
    132          1           0      -15.484454    2.169754   -0.719461
    133          1           0      -16.309332    0.664905   -0.361998
    134          1           0      -13.667620   -0.216438   -1.022081
    135          1           0      -14.112612    2.349220   -2.412947
    136          1           0      -14.069381    1.104674   -3.622419
    137          1           0      -12.726722    1.326171   -2.518630
    138          1           0      -15.606188   -0.412229   -3.268042
    139          1           0      -16.387807   -0.878008   -1.727008
    140          1           0      -14.900354   -1.681461   -2.091368
 ---------------------------------------------------------------------

 SCF Done:  E(RB-LYP) =  -3007.34048397     A.U. after   21 cycles

 Excitation energies and oscillator strengths:

 Excited State   1:      Singlet-A      1.8682 eV  663.65 nm  f=0.2951  <S**2>=0.000
     245 -> 248        0.17268
     246 -> 247        0.69026
     246 <- 247       -0.14423
 This state for optimization and/or second-order correction.
 Total Energy, E(TD-HF/TD-DFT) =  -3007.27182826
 Copying the excited state density for this state as the 1-particle RhoCI density.

 Excited State   2:      Singlet-A      2.0829 eV  595.25 nm  f=0.0542  <S**2>=0.000
     243 -> 247        0.43627
     245 -> 247        0.51932
     246 -> 248       -0.16549

 Excited State   3:      Singlet-A      2.1191 eV  585.09 nm  f=0.0004  <S**2>=0.000
     244 -> 247        0.70564

 Excited State   4:      Singlet-A      2.1963 eV  564.50 nm  f=0.0353  <S**2>=0.000
     243 -> 247        0.55021
     245 -> 247       -0.37953
     246 -> 248        0.17964

 Excited State   5:      Singlet-A      2.3128 eV  536.07 nm  f=0.0000  <S**2>=0.000
     242 -> 247        0.70703

 The electronic state is 1-A.
 Alpha  occ. eigenvalues --  -46.26080 -18.82579 -18.82414 -18.77908 -18.76740
 Alpha  occ. eigenvalues --  -18.76522 -18.76135 -14.03099 -14.02589 -14.01083
 Alpha  occ. eigenvalues --  -13.99977 -10.05055 -10.03845 -10.00965  -9.99651
 Alpha  occ. eigenvalues --   -9.97767  -9.97713  -9.96410  -9.96156  -9.95999
 Alpha  occ. eigenvalues --   -9.95995  -9.95555  -9.95230  -9.94551  -9.94259
 Alpha  occ. eigenvalues --   -9.93924  -9.93794  -9.93506  -9.93464  -9.93438
 Alpha  occ. eigenvalues --   -9.93434  -9.93396  -9.93287  -9.93029  -9.92999
 Alpha  occ. eigenvalues --   -9.92758  -9.92704  -9.92621  -9.92615  -9.92571
 Alpha  occ. eigenvalues --   -9.92565  -9.92552  -9.92469  -9.92424  -9.92359
 Alpha  occ. eigenvalues --   -9.92262  -9.91860  -9.91831  -9.91805  -9.91742
 Alpha  occ. eigenvalues --   -9.91559  -9.91431  -9.91358  -9.91228  -9.91114
 Alpha  occ. eigenvalues --   -9.91091  -9.91076  -9.91034  -9.90891  -9.90777
 Alpha  occ. eigenvalues --   -9.90602  -9.90508  -9.90435  -9.90417  -9.90293
 Alpha  occ. eigenvalues --   -9.89886  -2.90971  -1.71392  -1.70837  -1.70708
 Alpha  occ. eigenvalues --   -0.96731  -0.96387  -0.93501  -0.91371  -0.90391
 Alpha  occ. eigenvalues --   -0.88613  -0.87957  -0.86775  -0.86187  -0.85484
 Alpha  occ. eigenvalues --   -0.76063  -0.73652  -0.73181  -0.72658  -0.72355
 Alpha  occ. eigenvalues --   -0.71946  -0.71623  -0.71070  -0.70840  -0.70629
 Alpha  occ. eigenvalues --   -0.70303  -0.68792  -0.67876  -0.67533  -0.66894
 Alpha  occ. eigenvalues --   -0.66306  -0.65682  -0.65200  -0.64898  -0.64624
 Alpha  occ. eigenvalues --   -0.64375  -0.63082  -0.62331  -0.61731  -0.61063
 Alpha  occ. eigenvalues --   -0.60312  -0.60157  -0.59965  -0.59645  -0.58609
 Alpha  occ. eigenvalues --   -0.58273  -0.57666  -0.57192  -0.55440  -0.54635
 Alpha  occ. eigenvalues --   -0.53704  -0.53300  -0.52446  -0.52040  -0.51875
 Alpha  occ. eigenvalues --   -0.51152  -0.51074  -0.50850  -0.50584  -0.50150
 Alpha  occ. eigenvalues --   -0.49575  -0.49310  -0.48978  -0.48634  -0.47153
 Alpha  occ. eigenvalues --   -0.46759  -0.46336  -0.46035  -0.45400  -0.44736
 Alpha  occ. eigenvalues --   -0.44193  -0.43864  -0.43115  -0.42246  -0.41960
 Alpha  occ. eigenvalues --   -0.41777  -0.41570  -0.41455  -0.41184  -0.40762
 Alpha  occ. eigenvalues --   -0.40655  -0.40432  -0.40332  -0.40215  -0.40055
 Alpha  occ. eigenvalues --   -0.39558  -0.39505  -0.39405  -0.39271  -0.38951
 Alpha  occ. eigenvalues --   -0.38846  -0.38764  -0.38663  -0.38577  -0.38349
 Alpha  occ. eigenvalues --   -0.38131  -0.37668  -0.37562  -0.37405  -0.37233
 Alpha  occ. eigenvalues --   -0.36990  -0.36858  -0.36683  -0.36563  -0.36496
 Alpha  occ. eigenvalues --   -0.36315  -0.36224  -0.36111  -0.35908  -0.35723
 Alpha  occ. eigenvalues --   -0.35484  -0.35175  -0.35164  -0.34879  -0.34731
 Alpha  occ. eigenvalues --   -0.34614  -0.34599  -0.34381  -0.34263  -0.34101
 Alpha  occ. eigenvalues --   -0.33888  -0.33762  -0.33354  -0.33178  -0.33029
 Alpha  occ. eigenvalues --   -0.32962  -0.32830  -0.32745  -0.32437  -0.32373
 Alpha  occ. eigenvalues --   -0.32305  -0.32000  -0.31943  -0.31857  -0.31719
 Alpha  occ. eigenvalues --   -0.31535  -0.31236  -0.31020  -0.30924  -0.30742
 Alpha  occ. eigenvalues --   -0.30659  -0.30522  -0.30307  -0.30204  -0.30046
 Alpha  occ. eigenvalues --   -0.29742  -0.29621  -0.29154  -0.29078  -0.29050
 Alpha  occ. eigenvalues --   -0.28958  -0.28895  -0.28260  -0.27852  -0.27514
 Alpha  occ. eigenvalues --   -0.27504  -0.27263  -0.27146  -0.27065  -0.26512
 Alpha  occ. eigenvalues --   -0.26398  -0.26331  -0.25382  -0.25058  -0.24943
 Alpha  occ. eigenvalues --   -0.24772  -0.24541  -0.24195  -0.24140  -0.23154
 Alpha  occ. eigenvalues --   -0.23000  -0.22547  -0.22299  -0.21708  -0.21318
 Alpha  occ. eigenvalues --   -0.19856  -0.19715  -0.19022  -0.18913  -0.17304
 Alpha  occ. eigenvalues --   -0.15708
 Alpha virt. eigenvalues --   -0.11216  -0.06409  -0.05689  -0.04357  -0.03933
 Alpha virt. eigenvalues --   -0.03549  -0.02252  -0.01643  -0.01103   0.00107
 Alpha virt. eigenvalues --    0.01337   0.01396   0.01502   0.02664   0.03216

 Mulliken charges:
               1
     1  Mg   0.718223
     2  C    0.026383
     3  C   -0.095999
     4  C   -0.093412
     5  C   -0.071849
     6  N   -0.207779
     7  C   -0.111959
     8  C    0.027405
     9  C   -0.032312
    10  C   -0.002665
    11  C    0.115556
    12  C    0.111280
    13  C    0.109806
    14  C    0.118841
    15  O   -0.174342
    16  O   -0.289795
    17  N   -0.302748
    18  C    0.217500
    19  C   -0.164514
    20  C   -0.011259
    21  C    0.165053
    22  C    0.182298
    23  C   -0.048794
    24  O   -0.165990
    25  C    0.137257
    26  N   -0.191378
    27  C   -0.030478
    28  C    0.031651
    29  C    0.046670
    30  C   -0.000937
    31  C    0.117539
    32  C    0.088419
    33  C    0.043458
    34  N   -0.224231
    35  C    0.120140
    36  C   -0.188594
    37  C    0.041205
    38  C    0.077181
    39  C    0.207158
    40  C   -0.047733
    41  O   -0.073369
    42  C    0.101987
    43  C    0.116701
    44  O   -0.187927
    45  O   -0.305469
    46  C    0.215840
    47  C    0.290287
    48  C   -0.135201
    49  C   -0.111937
    50  C    0.144240
    51  C    0.100435
    52  C    0.116619
    53  C    0.070118
    54  C   -0.056566
    55  C    0.127012
    56  C    0.115785
    57  C    0.012971
    58  C    0.134185
    59  C   -0.056215
    60  C    0.098824
    61  C    0.105384
    62  C    0.051573
    63  C    0.092433
    64  C   -0.089338
    65  C    0.075530
    66  C    0.105125
    67  H   -0.071642
    68  H   -0.053389
    69  H   -0.074391
    70  H   -0.016067
    71  H   -0.021786
    72  H   -0.020754
    73  H   -0.000702
    74  H    0.008276
    75  H   -0.028589
    76  H    0.016941
    77  H   -0.029524
    78  H    0.006779
    79  H    0.008279
    80  H    0.005796
    81  H   -0.015154
    82  H   -0.003923
    83  H    0.021103
    84  H    0.001512
    85  H   -0.014170
    86  H   -0.015856
    87  H   -0.014281
    88  H   -0.024292
    89  H    0.004531
    90  H   -0.022610
    91  H   -0.017680
    92  H   -0.014733
    93  H    0.000887
    94  H   -0.008036
    95  H   -0.000615
    96  H    0.002725
    97  H   -0.004142
    98  H    0.006171
    99  H    0.019015
   100  H    0.014211
   101  H    0.017042
   102  H    0.011707
   103  H   -0.007963
   104  H   -0.022091
   105  H   -0.023604
   106  H   -0.007483
   107  H    0.003557
   108  H    0.001468
   109  H   -0.052431
   110  H   -0.033399
   111  H   -0.029905
   112  H   -0.025973
   113  H   -0.022865
   114  H   -0.036720
   115  H   -0.021912
   116  H   -0.033089
   117  H   -0.024465
   118  H   -0.036338
   119  H   -0.056499
   120  H   -0.044800
   121  H   -0.026024
   122  H   -0.029998
   123  H   -0.036063
   124  H   -0.024057
   125  H   -0.025333
   126  H   -0.011432
   127  H   -0.017882
   128  H   -0.035235
   129  H   -0.047762
   130  H   -0.042476
   131  H   -0.034038
   132  H   -0.032766
   133  H   -0.045052
   134  H   -0.021421
   135  H   -0.014416
   136  H   -0.018302
   137  H   -0.013539
   138  H   -0.002517
   139  H   -0.012966
   140  H   -0.012130
 Sum of Mulliken charges =  -0.00000

 Dipole moment (field-independent basis, Debye):
    X=             -2.4068    Y=              3.0565    Z=             -0.5316  Tot=              3.9265
 Quadrupole moment (field-independent basis, Debye-Ang):
   XX=           -372.2623   YY=           -424.1160   ZZ=           -411.0174
   XY=              6.9103   XZ=              7.1157   YZ=              1.6971

 Normal termination of Gaussian 16 at Thu May  5 15:00:48 2022.
