 Gaussian 16, Revision A.03,
 Gaussian 16:  ES64L-G16RevA.03 25-Dec-2016

 -----------------------------------
 #p cam-b3lyp/Def2SVP td=(nstates=5)
 -----------------------------------

 ------------------------------------------------------
 step_901_chromophore_4 TDDFT with cam-b3lyp functional
 ------------------------------------------------------
 Symbolic Z-matrix:
 Charge =  0 Multiplicity = 1

                         Standard orientation:
 ---------------------------------------------------------------------
 Center     Atomic      Atomic             Coordinates (Angstroms)
 Number     Number       Type             X           Y           Z
 ---------------------------------------------------------------------
      1         12           0        5.891145    0.582385    0.117637
      2          6           0        3.667407   -2.190386    0.165953
      3          6           0        3.311352    2.559791   -0.629419
      4          6           0        8.089471    3.082037   -0.094217
      5          6           0        8.499156   -1.702399    0.451507
      6          7           0        3.761180    0.166722   -0.240322
      7          6           0        3.109418   -1.019419   -0.190705
      8          6           0        1.554730   -0.831672   -0.471885
      9          6           0        1.521379    0.733166   -0.682728
     10          6           0        2.921621    1.210936   -0.511709
     11          6           0        0.950323    1.139609   -2.089486
     12          6           0        0.655479   -1.235270    0.689195
     13          6           0       -0.869884   -0.903399    0.526443
     14          6           0       -1.878201   -2.106230    0.551002
     15          8           0       -1.907708   -2.932791    1.453181
     16          8           0       -2.740050   -2.111534   -0.603463
     17          7           0        5.757129    2.470620   -0.211856
     18          6           0        4.566177    3.132899   -0.455877
     19          6           0        4.854418    4.552381   -0.420581
     20          6           0        6.247616    4.665328   -0.380313
     21          6           0        6.721528    3.331618   -0.215360
     22          6           0        3.804977    5.662043   -0.564126
     23          6           0        7.140553    5.969277   -0.444425
     24          8           0        8.318577    6.084936   -0.087406
     25          6           0        6.386886    7.283008   -0.794221
     26          7           0        8.063978    0.684184    0.050396
     27          6           0        8.728144    1.842276    0.077912
     28          6           0       10.220891    1.657026    0.183074
     29          6           0       10.370193    0.152649    0.353165
     30          6           0        8.897688   -0.356148    0.314386
     31          6           0       11.114935    2.302163   -0.965271
     32          6           0       11.161687   -0.135392    1.666964
     33          6           0       12.557501   -0.791926    1.379982
     34          7           0        6.128853   -1.529508    0.361042
     35          6           0        7.244195   -2.294720    0.561615
     36          6           0        6.870300   -3.663502    0.683924
     37          6           0        5.483505   -3.617374    0.608525
     38          6           0        5.061209   -2.324093    0.402900
     39          6           0        7.714469   -4.781157    0.981525
     40          6           0        4.276012   -4.498604    0.576242
     41          8           0        4.201213   -5.668004    0.752179
     42          6           0        3.074277   -3.567768    0.223762
     43          6           0        2.358672   -3.901587   -0.973798
     44          8           0        2.827009   -4.080719   -2.111628
     45          8           0        1.007196   -4.030103   -0.646961
     46          6           0        0.234149   -4.866980   -1.651352
     47          6           0       -3.788906   -3.100705   -0.575306
     48          6           0       -5.108957   -2.367518   -0.203363
     49          6           0       -6.343206   -2.938081   -0.183380
     50          6           0       -6.710747   -4.400456   -0.209308
     51          6           0       -7.483997   -2.055263    0.302723
     52          6           0       -7.880405   -1.002825   -0.728687
     53          6           0       -7.335432    0.385397   -0.406654
     54          6           0       -8.408141    1.489046    0.104749
     55          6           0       -7.747200    2.833754    0.197881
     56          6           0       -9.133304    1.151177    1.433050
     57          6           0      -10.664919    0.961214    1.226039
     58          6           0      -11.466889    2.271358    1.244302
     59          6           0      -12.688563    2.130367    2.136542
     60          6           0      -12.713467    3.194922    3.280586
     61          6           0      -13.935184    2.386923    1.279641
     62          6           0      -14.747836    1.135280    0.923793
     63          6           0      -15.325369    1.120820   -0.470287
     64          6           0      -14.481501    0.293719   -1.535670
     65          6           0      -13.814262    1.315358   -2.583939
     66          6           0      -15.437192   -0.745613   -2.244506
     67          1           0        2.419346    3.150292   -0.847641
     68          1           0        8.850431    3.864898   -0.129554
     69          1           0        9.378781   -2.342428    0.537533
     70          1           0        1.202712   -1.274918   -1.403317
     71          1           0        0.847007    1.246274    0.002724
     72          1           0        0.151838    1.862838   -1.923464
     73          1           0        0.416739    0.282200   -2.500445
     74          1           0        1.754955    1.590266   -2.670326
     75          1           0        1.058246   -0.805882    1.606753
     76          1           0        0.731429   -2.320194    0.757287
     77          1           0       -0.970880   -0.381693   -0.425792
     78          1           0       -1.175082   -0.126152    1.226527
     79          1           0        3.998489    6.347449   -1.389960
     80          1           0        3.968768    6.175255    0.383602
     81          1           0        2.788074    5.281275   -0.649369
     82          1           0        7.075968    8.086975   -1.054462
     83          1           0        5.701606    7.406686    0.044247
     84          1           0        5.905272    7.031718   -1.739274
     85          1           0       10.533008    2.266029    1.031624
     86          1           0       10.940946   -0.349143   -0.428542
     87          1           0       10.492031    2.766917   -1.730479
     88          1           0       11.546190    1.516654   -1.585509
     89          1           0       11.858833    3.024665   -0.630808
     90          1           0       10.575204   -0.810980    2.288740
     91          1           0       11.319167    0.785984    2.227457
     92          1           0       12.674013   -1.180940    0.368544
     93          1           0       12.667194   -1.585228    2.119796
     94          1           0       13.392503   -0.092434    1.398621
     95          1           0        7.147778   -5.639350    1.342294
     96          1           0        8.609510   -4.527548    1.549531
     97          1           0        7.957532   -5.093255   -0.033911
     98          1           0        2.371180   -3.749904    1.036399
     99          1           0        0.542172   -5.909526   -1.570124
    100          1           0        0.435707   -4.563707   -2.678161
    101          1           0       -0.855507   -4.851606   -1.618509
    102          1           0       -3.716804   -4.015909    0.012098
    103          1           0       -3.915124   -3.488279   -1.585759
    104          1           0       -4.904489   -1.323020    0.031219
    105          1           0       -5.869381   -5.086157   -0.312753
    106          1           0       -7.414807   -4.660463   -0.999544
    107          1           0       -7.229530   -4.654521    0.715091
    108          1           0       -7.147196   -1.706014    1.279587
    109          1           0       -8.377461   -2.644813    0.509951
    110          1           0       -8.961499   -0.939096   -0.853520
    111          1           0       -7.441651   -1.311885   -1.677445
    112          1           0       -6.805820    0.814903   -1.255916
    113          1           0       -6.683592    0.244965    0.455876
    114          1           0       -9.280232    1.492286   -0.549649
    115          1           0       -6.771805    2.964382   -0.269301
    116          1           0       -7.623191    3.172093    1.227229
    117          1           0       -8.421728    3.614029   -0.156776
    118          1           0       -8.780906    1.761827    2.264403
    119          1           0       -8.775597    0.193986    1.812877
    120          1           0      -11.074009    0.305786    1.993645
    121          1           0      -11.007504    0.447830    0.327664
    122          1           0      -11.693616    2.421480    0.188886
    123          1           0      -10.729327    3.028422    1.508094
    124          1           0      -12.778428    1.151201    2.605927
    125          1           0      -12.624401    4.147777    2.760171
    126          1           0      -11.893070    3.085125    3.991580
    127          1           0      -13.715835    3.255667    3.702445
    128          1           0      -13.661892    2.884997    0.348913
    129          1           0      -14.632871    3.053025    1.786963
    130          1           0      -15.651783    1.165020    1.531936
    131          1           0      -14.225287    0.207926    1.159470
    132          1           0      -15.484454    2.169754   -0.719461
    133          1           0      -16.309332    0.664905   -0.361998
    134          1           0      -13.667620   -0.216438   -1.022081
    135          1           0      -14.112612    2.349220   -2.412947
    136          1           0      -14.069381    1.104674   -3.622419
    137          1           0      -12.726722    1.326171   -2.518630
    138          1           0      -15.606188   -0.412229   -3.268042
    139          1           0      -16.387807   -0.878008   -1.727008
    140          1           0      -14.900354   -1.681461   -2.091368
 ---------------------------------------------------------------------

 SCF Done:  E(RCAM-B3LYP) =  -3007.14392265     A.U. after   19 cycles

 Excitation energies and oscillator strengths:

 Excited State   1:      Singlet-A      1.7778 eV  697.39 nm  f=0.3660  <S**2>=0.000
     245 -> 248        0.18013
     246 -> 247        0.68610
     245 <- 248        0.10740
 This state for optimization and/or second-order correction.
 Total Energy, E(TD-HF/TD-DFT) =  -3007.07858852
 Copying the excited state density for this state as the 1-particle RhoCI density.

 Excited State   2:      Singlet-A      2.3554 eV  526.38 nm  f=0.1191  <S**2>=0.000
     245 -> 247        0.63389
     246 -> 248       -0.30388

 Excited State   3:      Singlet-A      3.3902 eV  365.72 nm  f=0.0022  <S**2>=0.000
     244 -> 247        0.68502

 Excited State   4:      Singlet-A      3.6506 eV  339.63 nm  f=0.0304  <S**2>=0.000
     240 -> 247        0.41268
     240 -> 249        0.34080
     240 -> 250        0.12310
     241 -> 247        0.30107
     241 -> 249        0.18097
     246 -> 248        0.13553

 Excited State   5:      Singlet-A      3.6955 eV  335.50 nm  f=0.8198  <S**2>=0.000
     240 -> 247       -0.15262
     241 -> 247        0.10639
     242 -> 247        0.16229
     245 -> 247        0.27591
     246 -> 248        0.56969
     245 <- 247       -0.10367

 The electronic state is 1-A.
 Alpha  occ. eigenvalues --  -46.87574 -19.25459 -19.25449 -19.21012 -19.19970
 Alpha  occ. eigenvalues --  -19.19901 -19.19085 -14.41949 -14.41462 -14.39654
 Alpha  occ. eigenvalues --  -14.38176 -10.40589 -10.39402 -10.36499 -10.34701
 Alpha  occ. eigenvalues --  -10.31867 -10.31745 -10.31141 -10.30707 -10.30329
 Alpha  occ. eigenvalues --  -10.30307 -10.30067 -10.29746 -10.28779 -10.28360
 Alpha  occ. eigenvalues --  -10.28309 -10.27905 -10.27543 -10.27504 -10.27444
 Alpha  occ. eigenvalues --  -10.27395 -10.27382 -10.27313 -10.27273 -10.27220
 Alpha  occ. eigenvalues --  -10.27099 -10.26800 -10.26664 -10.26572 -10.26570
 Alpha  occ. eigenvalues --  -10.26536 -10.26447 -10.26268 -10.26261 -10.26208
 Alpha  occ. eigenvalues --  -10.25960 -10.25791 -10.25612 -10.25582 -10.25431
 Alpha  occ. eigenvalues --  -10.25262 -10.25108 -10.25039 -10.24948 -10.24749
 Alpha  occ. eigenvalues --  -10.24737 -10.24726 -10.24687 -10.24575 -10.24392
 Alpha  occ. eigenvalues --  -10.24280 -10.24099 -10.24073 -10.24039 -10.23955
 Alpha  occ. eigenvalues --  -10.23608  -3.16380  -1.91273  -1.90810  -1.90730
 Alpha  occ. eigenvalues --   -1.15180  -1.14933  -1.11783  -1.09966  -1.08287
 Alpha  occ. eigenvalues --   -1.06543  -1.05894  -1.04323  -1.03862  -1.03010
 Alpha  occ. eigenvalues --   -0.93130  -0.90535  -0.90012  -0.89491  -0.89201
 Alpha  occ. eigenvalues --   -0.88572  -0.88308  -0.87862  -0.87447  -0.87036
 Alpha  occ. eigenvalues --   -0.86852  -0.85192  -0.84098  -0.83713  -0.83026
 Alpha  occ. eigenvalues --   -0.82372  -0.81717  -0.81274  -0.80789  -0.80588
 Alpha  occ. eigenvalues --   -0.80166  -0.78985  -0.77950  -0.77210  -0.76439
 Alpha  occ. eigenvalues --   -0.75609  -0.75469  -0.75316  -0.74964  -0.73849
 Alpha  occ. eigenvalues --   -0.73262  -0.72649  -0.72129  -0.70287  -0.69157
 Alpha  occ. eigenvalues --   -0.68206  -0.67838  -0.67031  -0.66391  -0.66034
 Alpha  occ. eigenvalues --   -0.65320  -0.65138  -0.65060  -0.64651  -0.64250
 Alpha  occ. eigenvalues --   -0.63519  -0.63110  -0.62902  -0.62349  -0.60969
 Alpha  occ. eigenvalues --   -0.60316  -0.59908  -0.59597  -0.58752  -0.58267
 Alpha  occ. eigenvalues --   -0.57607  -0.57237  -0.56499  -0.55637  -0.55222
 Alpha  occ. eigenvalues --   -0.54903  -0.54560  -0.54457  -0.53885  -0.53759
 Alpha  occ. eigenvalues --   -0.53717  -0.53173  -0.53068  -0.52987  -0.52776
 Alpha  occ. eigenvalues --   -0.52344  -0.52041  -0.51950  -0.51705  -0.51679
 Alpha  occ. eigenvalues --   -0.51491  -0.51417  -0.51179  -0.51082  -0.50895
 Alpha  occ. eigenvalues --   -0.50583  -0.50001  -0.49886  -0.49658  -0.49560
 Alpha  occ. eigenvalues --   -0.49520  -0.49270  -0.49215  -0.49077  -0.48955
 Alpha  occ. eigenvalues --   -0.48792  -0.48573  -0.48418  -0.48144  -0.47976
 Alpha  occ. eigenvalues --   -0.47679  -0.47222  -0.47010  -0.46927  -0.46631
 Alpha  occ. eigenvalues --   -0.46531  -0.46438  -0.46121  -0.46071  -0.46015
 Alpha  occ. eigenvalues --   -0.45754  -0.45650  -0.45210  -0.44860  -0.44715
 Alpha  occ. eigenvalues --   -0.44544  -0.44510  -0.44402  -0.44099  -0.43878
 Alpha  occ. eigenvalues --   -0.43834  -0.43742  -0.43517  -0.43480  -0.43418
 Alpha  occ. eigenvalues --   -0.43115  -0.43005  -0.42961  -0.42510  -0.42277
 Alpha  occ. eigenvalues --   -0.42091  -0.41974  -0.41910  -0.41519  -0.41281
 Alpha  occ. eigenvalues --   -0.40934  -0.40610  -0.40481  -0.40210  -0.40190
 Alpha  occ. eigenvalues --   -0.40146  -0.40033  -0.39195  -0.38788  -0.38580
 Alpha  occ. eigenvalues --   -0.38436  -0.38342  -0.38114  -0.37884  -0.37628
 Alpha  occ. eigenvalues --   -0.37231  -0.37215  -0.36634  -0.36195  -0.35980
 Alpha  occ. eigenvalues --   -0.35503  -0.35127  -0.34722  -0.34702  -0.34418
 Alpha  occ. eigenvalues --   -0.34114  -0.33351  -0.33331  -0.31645  -0.31245
 Alpha  occ. eigenvalues --   -0.30849  -0.30462  -0.29297  -0.28866  -0.24097
 Alpha  occ. eigenvalues --   -0.21035
 Alpha virt. eigenvalues --   -0.08218  -0.01165   0.00953   0.02934   0.03238
 Alpha virt. eigenvalues --    0.03837   0.04145   0.05154   0.05731   0.06746
 Alpha virt. eigenvalues --    0.07278   0.08034   0.08720   0.09050   0.09381

 Mulliken charges:
               1
     1  Mg   0.855031
     2  C   -0.003358
     3  C   -0.112201
     4  C   -0.105896
     5  C   -0.074286
     6  N   -0.283162
     7  C   -0.066225
     8  C   -0.017253
     9  C   -0.091438
    10  C    0.026180
    11  C    0.056271
    12  C    0.060044
    13  C    0.043871
    14  C    0.199316
    15  O   -0.212052
    16  O   -0.355708
    17  N   -0.401352
    18  C    0.223586
    19  C   -0.171230
    20  C   -0.071726
    21  C    0.186122
    22  C    0.124704
    23  C    0.032333
    24  O   -0.204228
    25  C    0.056547
    26  N   -0.262724
    27  C   -0.007458
    28  C   -0.025618
    29  C   -0.009004
    30  C    0.014068
    31  C    0.057899
    32  C    0.032185
    33  C   -0.015623
    34  N   -0.313526
    35  C    0.120415
    36  C   -0.177282
    37  C   -0.041858
    38  C    0.113712
    39  C    0.139691
    40  C    0.060870
    41  O   -0.114963
    42  C    0.013470
    43  C    0.207259
    44  O   -0.223556
    45  O   -0.371442
    46  C    0.178373
    47  C    0.255046
    48  C   -0.147584
    49  C   -0.136371
    50  C    0.081819
    51  C    0.035345
    52  C    0.058039
    53  C    0.022844
    54  C   -0.106597
    55  C    0.062711
    56  C    0.057106
    57  C   -0.035802
    58  C    0.084448
    59  C   -0.120641
    60  C    0.044539
    61  C    0.052568
    62  C   -0.001117
    63  C    0.039677
    64  C   -0.148279
    65  C    0.021716
    66  C    0.048125
    67  H   -0.035698
    68  H   -0.010310
    69  H   -0.038924
    70  H    0.017194
    71  H    0.012645
    72  H    0.004087
    73  H    0.023613
    74  H    0.035182
    75  H    0.004230
    76  H    0.045915
    77  H    0.003964
    78  H    0.038087
    79  H    0.035204
    80  H    0.031946
    81  H    0.014387
    82  H    0.031895
    83  H    0.046007
    84  H    0.027400
    85  H    0.020516
    86  H    0.017348
    87  H    0.011904
    88  H    0.001513
    89  H    0.029025
    90  H    0.007823
    91  H    0.010356
    92  H    0.007296
    93  H    0.023967
    94  H    0.014884
    95  H    0.028373
    96  H    0.026350
    97  H    0.023017
    98  H    0.051411
    99  H    0.042477
   100  H    0.040170
   101  H    0.037925
   102  H    0.040463
   103  H    0.018656
   104  H    0.009309
   105  H    0.000752
   106  H    0.017692
   107  H    0.027834
   108  H    0.029419
   109  H   -0.018324
   110  H   -0.005357
   111  H    0.002226
   112  H    0.002970
   113  H    0.000241
   114  H   -0.006251
   115  H    0.004169
   116  H   -0.008430
   117  H    0.000681
   118  H   -0.006159
   119  H   -0.026413
   120  H   -0.014987
   121  H   -0.002164
   122  H   -0.004197
   123  H   -0.007823
   124  H    0.006740
   125  H   -0.002067
   126  H    0.012976
   127  H    0.006546
   128  H   -0.008468
   129  H   -0.016664
   130  H   -0.012018
   131  H   -0.007704
   132  H   -0.005435
   133  H   -0.014665
   134  H    0.007076
   135  H    0.007416
   136  H    0.005544
   137  H    0.007738
   138  H    0.019483
   139  H    0.010401
   140  H    0.011246
 Sum of Mulliken charges =  -0.00000

 Dipole moment (field-independent basis, Debye):
    X=             -2.7011    Y=              4.0548    Z=             -0.7221  Tot=              4.9253
 Quadrupole moment (field-independent basis, Debye-Ang):
   XX=           -372.5159   YY=           -419.3333   ZZ=           -411.4533
   XY=             12.1309   XZ=              6.1700   YZ=              1.2415

 Normal termination of Gaussian 16 at Thu May  5 13:34:28 2022.
