 Gaussian 16, Revision A.03,
 Gaussian 16:  ES64L-G16RevA.03 25-Dec-2016

 ---------------------------------
 #p PBE1PBE/Def2SVP td=(nstates=5)
 ---------------------------------

 ----------------------------------------------------
 step_901_chromophore_4 TDDFT with PBE1PBE functional
 ----------------------------------------------------
 Symbolic Z-matrix:
 Charge =  0 Multiplicity = 1

                         Standard orientation:
 ---------------------------------------------------------------------
 Center     Atomic      Atomic             Coordinates (Angstroms)
 Number     Number       Type             X           Y           Z
 ---------------------------------------------------------------------
      1         12           0        5.891145    0.582385    0.117637
      2          6           0        3.667407   -2.190386    0.165953
      3          6           0        3.311352    2.559791   -0.629419
      4          6           0        8.089471    3.082037   -0.094217
      5          6           0        8.499156   -1.702399    0.451507
      6          7           0        3.761180    0.166722   -0.240322
      7          6           0        3.109418   -1.019419   -0.190705
      8          6           0        1.554730   -0.831672   -0.471885
      9          6           0        1.521379    0.733166   -0.682728
     10          6           0        2.921621    1.210936   -0.511709
     11          6           0        0.950323    1.139609   -2.089486
     12          6           0        0.655479   -1.235270    0.689195
     13          6           0       -0.869884   -0.903399    0.526443
     14          6           0       -1.878201   -2.106230    0.551002
     15          8           0       -1.907708   -2.932791    1.453181
     16          8           0       -2.740050   -2.111534   -0.603463
     17          7           0        5.757129    2.470620   -0.211856
     18          6           0        4.566177    3.132899   -0.455877
     19          6           0        4.854418    4.552381   -0.420581
     20          6           0        6.247616    4.665328   -0.380313
     21          6           0        6.721528    3.331618   -0.215360
     22          6           0        3.804977    5.662043   -0.564126
     23          6           0        7.140553    5.969277   -0.444425
     24          8           0        8.318577    6.084936   -0.087406
     25          6           0        6.386886    7.283008   -0.794221
     26          7           0        8.063978    0.684184    0.050396
     27          6           0        8.728144    1.842276    0.077912
     28          6           0       10.220891    1.657026    0.183074
     29          6           0       10.370193    0.152649    0.353165
     30          6           0        8.897688   -0.356148    0.314386
     31          6           0       11.114935    2.302163   -0.965271
     32          6           0       11.161687   -0.135392    1.666964
     33          6           0       12.557501   -0.791926    1.379982
     34          7           0        6.128853   -1.529508    0.361042
     35          6           0        7.244195   -2.294720    0.561615
     36          6           0        6.870300   -3.663502    0.683924
     37          6           0        5.483505   -3.617374    0.608525
     38          6           0        5.061209   -2.324093    0.402900
     39          6           0        7.714469   -4.781157    0.981525
     40          6           0        4.276012   -4.498604    0.576242
     41          8           0        4.201213   -5.668004    0.752179
     42          6           0        3.074277   -3.567768    0.223762
     43          6           0        2.358672   -3.901587   -0.973798
     44          8           0        2.827009   -4.080719   -2.111628
     45          8           0        1.007196   -4.030103   -0.646961
     46          6           0        0.234149   -4.866980   -1.651352
     47          6           0       -3.788906   -3.100705   -0.575306
     48          6           0       -5.108957   -2.367518   -0.203363
     49          6           0       -6.343206   -2.938081   -0.183380
     50          6           0       -6.710747   -4.400456   -0.209308
     51          6           0       -7.483997   -2.055263    0.302723
     52          6           0       -7.880405   -1.002825   -0.728687
     53          6           0       -7.335432    0.385397   -0.406654
     54          6           0       -8.408141    1.489046    0.104749
     55          6           0       -7.747200    2.833754    0.197881
     56          6           0       -9.133304    1.151177    1.433050
     57          6           0      -10.664919    0.961214    1.226039
     58          6           0      -11.466889    2.271358    1.244302
     59          6           0      -12.688563    2.130367    2.136542
     60          6           0      -12.713467    3.194922    3.280586
     61          6           0      -13.935184    2.386923    1.279641
     62          6           0      -14.747836    1.135280    0.923793
     63          6           0      -15.325369    1.120820   -0.470287
     64          6           0      -14.481501    0.293719   -1.535670
     65          6           0      -13.814262    1.315358   -2.583939
     66          6           0      -15.437192   -0.745613   -2.244506
     67          1           0        2.419346    3.150292   -0.847641
     68          1           0        8.850431    3.864898   -0.129554
     69          1           0        9.378781   -2.342428    0.537533
     70          1           0        1.202712   -1.274918   -1.403317
     71          1           0        0.847007    1.246274    0.002724
     72          1           0        0.151838    1.862838   -1.923464
     73          1           0        0.416739    0.282200   -2.500445
     74          1           0        1.754955    1.590266   -2.670326
     75          1           0        1.058246   -0.805882    1.606753
     76          1           0        0.731429   -2.320194    0.757287
     77          1           0       -0.970880   -0.381693   -0.425792
     78          1           0       -1.175082   -0.126152    1.226527
     79          1           0        3.998489    6.347449   -1.389960
     80          1           0        3.968768    6.175255    0.383602
     81          1           0        2.788074    5.281275   -0.649369
     82          1           0        7.075968    8.086975   -1.054462
     83          1           0        5.701606    7.406686    0.044247
     84          1           0        5.905272    7.031718   -1.739274
     85          1           0       10.533008    2.266029    1.031624
     86          1           0       10.940946   -0.349143   -0.428542
     87          1           0       10.492031    2.766917   -1.730479
     88          1           0       11.546190    1.516654   -1.585509
     89          1           0       11.858833    3.024665   -0.630808
     90          1           0       10.575204   -0.810980    2.288740
     91          1           0       11.319167    0.785984    2.227457
     92          1           0       12.674013   -1.180940    0.368544
     93          1           0       12.667194   -1.585228    2.119796
     94          1           0       13.392503   -0.092434    1.398621
     95          1           0        7.147778   -5.639350    1.342294
     96          1           0        8.609510   -4.527548    1.549531
     97          1           0        7.957532   -5.093255   -0.033911
     98          1           0        2.371180   -3.749904    1.036399
     99          1           0        0.542172   -5.909526   -1.570124
    100          1           0        0.435707   -4.563707   -2.678161
    101          1           0       -0.855507   -4.851606   -1.618509
    102          1           0       -3.716804   -4.015909    0.012098
    103          1           0       -3.915124   -3.488279   -1.585759
    104          1           0       -4.904489   -1.323020    0.031219
    105          1           0       -5.869381   -5.086157   -0.312753
    106          1           0       -7.414807   -4.660463   -0.999544
    107          1           0       -7.229530   -4.654521    0.715091
    108          1           0       -7.147196   -1.706014    1.279587
    109          1           0       -8.377461   -2.644813    0.509951
    110          1           0       -8.961499   -0.939096   -0.853520
    111          1           0       -7.441651   -1.311885   -1.677445
    112          1           0       -6.805820    0.814903   -1.255916
    113          1           0       -6.683592    0.244965    0.455876
    114          1           0       -9.280232    1.492286   -0.549649
    115          1           0       -6.771805    2.964382   -0.269301
    116          1           0       -7.623191    3.172093    1.227229
    117          1           0       -8.421728    3.614029   -0.156776
    118          1           0       -8.780906    1.761827    2.264403
    119          1           0       -8.775597    0.193986    1.812877
    120          1           0      -11.074009    0.305786    1.993645
    121          1           0      -11.007504    0.447830    0.327664
    122          1           0      -11.693616    2.421480    0.188886
    123          1           0      -10.729327    3.028422    1.508094
    124          1           0      -12.778428    1.151201    2.605927
    125          1           0      -12.624401    4.147777    2.760171
    126          1           0      -11.893070    3.085125    3.991580
    127          1           0      -13.715835    3.255667    3.702445
    128          1           0      -13.661892    2.884997    0.348913
    129          1           0      -14.632871    3.053025    1.786963
    130          1           0      -15.651783    1.165020    1.531936
    131          1           0      -14.225287    0.207926    1.159470
    132          1           0      -15.484454    2.169754   -0.719461
    133          1           0      -16.309332    0.664905   -0.361998
    134          1           0      -13.667620   -0.216438   -1.022081
    135          1           0      -14.112612    2.349220   -2.412947
    136          1           0      -14.069381    1.104674   -3.622419
    137          1           0      -12.726722    1.326171   -2.518630
    138          1           0      -15.606188   -0.412229   -3.268042
    139          1           0      -16.387807   -0.878008   -1.727008
    140          1           0      -14.900354   -1.681461   -2.091368
 ---------------------------------------------------------------------

 SCF Done:  E(RPBE1PBE) =  -3005.33082555     A.U. after   15 cycles

 Excitation energies and oscillator strengths:

 Excited State   1:      Singlet-A      1.9227 eV  644.83 nm  f=0.3564  <S**2>=0.000
     245 -> 248        0.17180
     246 -> 247        0.69267
     246 <- 247       -0.10292
 This state for optimization and/or second-order correction.
 Total Energy, E(TD-HF/TD-DFT) =  -3005.26016611
 Copying the excited state density for this state as the 1-particle RhoCI density.

 Excited State   2:      Singlet-A      2.3577 eV  525.87 nm  f=0.1180  <S**2>=0.000
     245 -> 247        0.64403
     246 -> 248       -0.27846

 Excited State   3:      Singlet-A      3.0178 eV  410.84 nm  f=0.0058  <S**2>=0.000
     243 -> 247        0.69615

 Excited State   4:      Singlet-A      3.1895 eV  388.72 nm  f=0.0037  <S**2>=0.000
     241 -> 247       -0.30741
     241 -> 249       -0.12934
     242 -> 247        0.59521

 Excited State   5:      Singlet-A      3.1995 eV  387.51 nm  f=0.0011  <S**2>=0.000
     241 -> 247        0.58541
     241 -> 249        0.14492
     242 -> 247        0.32552

 The electronic state is 1-A.
 Alpha  occ. eigenvalues --  -46.90972 -19.26209 -19.26112 -19.21276 -19.20119
 Alpha  occ. eigenvalues --  -19.20062 -19.19440 -14.41480 -14.40947 -14.39187
 Alpha  occ. eigenvalues --  -14.37936 -10.37667 -10.36402 -10.33560 -10.32004
 Alpha  occ. eigenvalues --  -10.29196 -10.29088 -10.28678 -10.28239 -10.28153
 Alpha  occ. eigenvalues --  -10.28147 -10.27675 -10.27205 -10.26278 -10.26271
 Alpha  occ. eigenvalues --  -10.25881 -10.25733 -10.25264 -10.25247 -10.25204
 Alpha  occ. eigenvalues --  -10.25175 -10.25142 -10.24955 -10.24857 -10.24819
 Alpha  occ. eigenvalues --  -10.24808 -10.24484 -10.24324 -10.24294 -10.24235
 Alpha  occ. eigenvalues --  -10.24177 -10.23918 -10.23857 -10.23726 -10.23649
 Alpha  occ. eigenvalues --  -10.23461 -10.23387 -10.23282 -10.23194 -10.22966
 Alpha  occ. eigenvalues --  -10.22924 -10.22686 -10.22611 -10.22519 -10.22305
 Alpha  occ. eigenvalues --  -10.22271 -10.22171 -10.22143 -10.22099 -10.21857
 Alpha  occ. eigenvalues --  -10.21792 -10.21617 -10.21565 -10.21557 -10.21523
 Alpha  occ. eigenvalues --  -10.21480  -3.13352  -1.86188  -1.85701  -1.85627
 Alpha  occ. eigenvalues --   -1.09988  -1.09654  -1.06706  -1.04565  -1.03180
 Alpha  occ. eigenvalues --   -1.01340  -1.00456  -0.99100  -0.98494  -0.97715
 Alpha  occ. eigenvalues --   -0.87568  -0.84635  -0.84132  -0.83711  -0.83437
 Alpha  occ. eigenvalues --   -0.82888  -0.82416  -0.82089  -0.81776  -0.81505
 Alpha  occ. eigenvalues --   -0.80966  -0.79457  -0.78341  -0.77994  -0.77281
 Alpha  occ. eigenvalues --   -0.76556  -0.75944  -0.75467  -0.75048  -0.74834
 Alpha  occ. eigenvalues --   -0.74367  -0.73186  -0.72238  -0.71522  -0.70788
 Alpha  occ. eigenvalues --   -0.69917  -0.69689  -0.69403  -0.69093  -0.68023
 Alpha  occ. eigenvalues --   -0.67754  -0.67005  -0.66553  -0.64611  -0.63579
 Alpha  occ. eigenvalues --   -0.62717  -0.62090  -0.61359  -0.60655  -0.60463
 Alpha  occ. eigenvalues --   -0.59732  -0.59643  -0.59341  -0.59222  -0.58364
 Alpha  occ. eigenvalues --   -0.57765  -0.57495  -0.57102  -0.56969  -0.55452
 Alpha  occ. eigenvalues --   -0.54707  -0.54474  -0.54156  -0.53388  -0.52779
 Alpha  occ. eigenvalues --   -0.52202  -0.51743  -0.51028  -0.50219  -0.49818
 Alpha  occ. eigenvalues --   -0.49484  -0.49146  -0.49007  -0.48335  -0.48237
 Alpha  occ. eigenvalues --   -0.47974  -0.47816  -0.47574  -0.47474  -0.47247
 Alpha  occ. eigenvalues --   -0.46867  -0.46615  -0.46455  -0.46254  -0.46184
 Alpha  occ. eigenvalues --   -0.46006  -0.46000  -0.45758  -0.45718  -0.45419
 Alpha  occ. eigenvalues --   -0.45133  -0.44569  -0.44469  -0.44282  -0.44151
 Alpha  occ. eigenvalues --   -0.44101  -0.43832  -0.43696  -0.43672  -0.43468
 Alpha  occ. eigenvalues --   -0.43349  -0.43202  -0.43044  -0.42689  -0.42659
 Alpha  occ. eigenvalues --   -0.42401  -0.41832  -0.41609  -0.41542  -0.41378
 Alpha  occ. eigenvalues --   -0.41318  -0.41117  -0.40830  -0.40781  -0.40683
 Alpha  occ. eigenvalues --   -0.40472  -0.40387  -0.39973  -0.39611  -0.39474
 Alpha  occ. eigenvalues --   -0.39320  -0.39237  -0.39157  -0.38775  -0.38724
 Alpha  occ. eigenvalues --   -0.38498  -0.38437  -0.38318  -0.38276  -0.38168
 Alpha  occ. eigenvalues --   -0.37925  -0.37758  -0.37634  -0.37254  -0.37107
 Alpha  occ. eigenvalues --   -0.36902  -0.36783  -0.36728  -0.36398  -0.36022
 Alpha  occ. eigenvalues --   -0.35786  -0.35564  -0.35363  -0.35089  -0.35007
 Alpha  occ. eigenvalues --   -0.34933  -0.34900  -0.33932  -0.33540  -0.33531
 Alpha  occ. eigenvalues --   -0.33322  -0.33200  -0.32878  -0.32691  -0.32643
 Alpha  occ. eigenvalues --   -0.32274  -0.32138  -0.31573  -0.31244  -0.30928
 Alpha  occ. eigenvalues --   -0.30423  -0.30018  -0.29639  -0.29631  -0.29452
 Alpha  occ. eigenvalues --   -0.29244  -0.28699  -0.28296  -0.27108  -0.26518
 Alpha  occ. eigenvalues --   -0.25821  -0.25598  -0.24670  -0.24584  -0.21020
 Alpha  occ. eigenvalues --   -0.18656
 Alpha virt. eigenvalues --   -0.10750  -0.04685  -0.03313  -0.01605  -0.00825
 Alpha virt. eigenvalues --   -0.00520   0.00629   0.00756   0.01660   0.02974
 Alpha virt. eigenvalues --    0.04064   0.04129   0.04490   0.05516   0.06161

 Mulliken charges:
               1
     1  Mg   1.007133
     2  C   -0.018879
     3  C   -0.097940
     4  C   -0.080854
     5  C   -0.069238
     6  N   -0.394956
     7  C    0.018527
     8  C   -0.091494
     9  C   -0.167115
    10  C    0.068956
    11  C   -0.001501
    12  C    0.006979
    13  C   -0.030940
    14  C    0.261519
    15  O   -0.242945
    16  O   -0.385923
    17  N   -0.536616
    18  C    0.231932
    19  C   -0.195438
    20  C   -0.107563
    21  C    0.205271
    22  C    0.061301
    23  C    0.080784
    24  O   -0.240788
    25  C   -0.023013
    26  N   -0.369599
    27  C    0.032403
    28  C   -0.099154
    29  C   -0.090913
    30  C    0.058635
    31  C    0.001742
    32  C   -0.024378
    33  C   -0.085732
    34  N   -0.444916
    35  C    0.148812
    36  C   -0.205633
    37  C   -0.098101
    38  C    0.180008
    39  C    0.081272
    40  C    0.178408
    41  O   -0.163782
    42  C   -0.107598
    43  C    0.300725
    44  O   -0.260088
    45  O   -0.402083
    46  C    0.120945
    47  C    0.214922
    48  C   -0.152075
    49  C   -0.184411
    50  C    0.016029
    51  C   -0.030554
    52  C   -0.004114
    53  C   -0.035729
    54  C   -0.189821
    55  C    0.003613
    56  C    0.003581
    57  C   -0.105545
    58  C    0.039974
    59  C   -0.213837
    60  C   -0.018811
    61  C    0.001299
    62  C   -0.063365
    63  C   -0.015972
    64  C   -0.238260
    65  C   -0.036029
    66  C   -0.012679
    67  H   -0.002212
    68  H    0.021920
    69  H   -0.005355
    70  H    0.054216
    71  H    0.049699
    72  H    0.031295
    73  H    0.049420
    74  H    0.063210
    75  H    0.037144
    76  H    0.085036
    77  H    0.040087
    78  H    0.069017
    79  H    0.061387
    80  H    0.060781
    81  H    0.041734
    82  H    0.058999
    83  H    0.073198
    84  H    0.055103
    85  H    0.057764
    86  H    0.053931
    87  H    0.040017
    88  H    0.029077
    89  H    0.055083
    90  H    0.040451
    91  H    0.042815
    92  H    0.033617
    93  H    0.051078
    94  H    0.042827
    95  H    0.057270
    96  H    0.053256
    97  H    0.054160
    98  H    0.087570
    99  H    0.064511
   100  H    0.061355
   101  H    0.060313
   102  H    0.066113
   103  H    0.046754
   104  H    0.040303
   105  H    0.028095
   106  H    0.046125
   107  H    0.055156
   108  H    0.060200
   109  H    0.014651
   110  H    0.027838
   111  H    0.036450
   112  H    0.034754
   113  H    0.033577
   114  H    0.033641
   115  H    0.030787
   116  H    0.018693
   117  H    0.028718
   118  H    0.024513
   119  H    0.010373
   120  H    0.017838
   121  H    0.031893
   122  H    0.028440
   123  H    0.025577
   124  H    0.042537
   125  H    0.026974
   126  H    0.041296
   127  H    0.035234
   128  H    0.024530
   129  H    0.015696
   130  H    0.022430
   131  H    0.023651
   132  H    0.026480
   133  H    0.017934
   134  H    0.044875
   135  H    0.033223
   136  H    0.032170
   137  H    0.034834
   138  H    0.045787
   139  H    0.036934
   140  H    0.038764
 Sum of Mulliken charges =  -0.00000

 Dipole moment (field-independent basis, Debye):
    X=             -2.5843    Y=              3.6466    Z=             -0.6478  Tot=              4.5162
 Quadrupole moment (field-independent basis, Debye-Ang):
   XX=           -364.7225   YY=           -416.9298   ZZ=           -409.3128
   XY=              9.1200   XZ=              6.7248   YZ=              1.1081

 Normal termination of Gaussian 16 at Thu May  5 13:58:52 2022.
