 Gaussian 16, Revision A.03,
 Gaussian 16:  ES64L-G16RevA.03 25-Dec-2016

 --------------------------------
 #p wB97XD/Def2SVP td=(nstates=5)
 --------------------------------

 ---------------------------------------------------
 step_901_chromophore_4 TDDFT with wB97XD functional
 ---------------------------------------------------
 Symbolic Z-matrix:
 Charge =  0 Multiplicity = 1

                         Standard orientation:
 ---------------------------------------------------------------------
 Center     Atomic      Atomic             Coordinates (Angstroms)
 Number     Number       Type             X           Y           Z
 ---------------------------------------------------------------------
      1         12           0        5.891145    0.582385    0.117637
      2          6           0        3.667407   -2.190386    0.165953
      3          6           0        3.311352    2.559791   -0.629419
      4          6           0        8.089471    3.082037   -0.094217
      5          6           0        8.499156   -1.702399    0.451507
      6          7           0        3.761180    0.166722   -0.240322
      7          6           0        3.109418   -1.019419   -0.190705
      8          6           0        1.554730   -0.831672   -0.471885
      9          6           0        1.521379    0.733166   -0.682728
     10          6           0        2.921621    1.210936   -0.511709
     11          6           0        0.950323    1.139609   -2.089486
     12          6           0        0.655479   -1.235270    0.689195
     13          6           0       -0.869884   -0.903399    0.526443
     14          6           0       -1.878201   -2.106230    0.551002
     15          8           0       -1.907708   -2.932791    1.453181
     16          8           0       -2.740050   -2.111534   -0.603463
     17          7           0        5.757129    2.470620   -0.211856
     18          6           0        4.566177    3.132899   -0.455877
     19          6           0        4.854418    4.552381   -0.420581
     20          6           0        6.247616    4.665328   -0.380313
     21          6           0        6.721528    3.331618   -0.215360
     22          6           0        3.804977    5.662043   -0.564126
     23          6           0        7.140553    5.969277   -0.444425
     24          8           0        8.318577    6.084936   -0.087406
     25          6           0        6.386886    7.283008   -0.794221
     26          7           0        8.063978    0.684184    0.050396
     27          6           0        8.728144    1.842276    0.077912
     28          6           0       10.220891    1.657026    0.183074
     29          6           0       10.370193    0.152649    0.353165
     30          6           0        8.897688   -0.356148    0.314386
     31          6           0       11.114935    2.302163   -0.965271
     32          6           0       11.161687   -0.135392    1.666964
     33          6           0       12.557501   -0.791926    1.379982
     34          7           0        6.128853   -1.529508    0.361042
     35          6           0        7.244195   -2.294720    0.561615
     36          6           0        6.870300   -3.663502    0.683924
     37          6           0        5.483505   -3.617374    0.608525
     38          6           0        5.061209   -2.324093    0.402900
     39          6           0        7.714469   -4.781157    0.981525
     40          6           0        4.276012   -4.498604    0.576242
     41          8           0        4.201213   -5.668004    0.752179
     42          6           0        3.074277   -3.567768    0.223762
     43          6           0        2.358672   -3.901587   -0.973798
     44          8           0        2.827009   -4.080719   -2.111628
     45          8           0        1.007196   -4.030103   -0.646961
     46          6           0        0.234149   -4.866980   -1.651352
     47          6           0       -3.788906   -3.100705   -0.575306
     48          6           0       -5.108957   -2.367518   -0.203363
     49          6           0       -6.343206   -2.938081   -0.183380
     50          6           0       -6.710747   -4.400456   -0.209308
     51          6           0       -7.483997   -2.055263    0.302723
     52          6           0       -7.880405   -1.002825   -0.728687
     53          6           0       -7.335432    0.385397   -0.406654
     54          6           0       -8.408141    1.489046    0.104749
     55          6           0       -7.747200    2.833754    0.197881
     56          6           0       -9.133304    1.151177    1.433050
     57          6           0      -10.664919    0.961214    1.226039
     58          6           0      -11.466889    2.271358    1.244302
     59          6           0      -12.688563    2.130367    2.136542
     60          6           0      -12.713467    3.194922    3.280586
     61          6           0      -13.935184    2.386923    1.279641
     62          6           0      -14.747836    1.135280    0.923793
     63          6           0      -15.325369    1.120820   -0.470287
     64          6           0      -14.481501    0.293719   -1.535670
     65          6           0      -13.814262    1.315358   -2.583939
     66          6           0      -15.437192   -0.745613   -2.244506
     67          1           0        2.419346    3.150292   -0.847641
     68          1           0        8.850431    3.864898   -0.129554
     69          1           0        9.378781   -2.342428    0.537533
     70          1           0        1.202712   -1.274918   -1.403317
     71          1           0        0.847007    1.246274    0.002724
     72          1           0        0.151838    1.862838   -1.923464
     73          1           0        0.416739    0.282200   -2.500445
     74          1           0        1.754955    1.590266   -2.670326
     75          1           0        1.058246   -0.805882    1.606753
     76          1           0        0.731429   -2.320194    0.757287
     77          1           0       -0.970880   -0.381693   -0.425792
     78          1           0       -1.175082   -0.126152    1.226527
     79          1           0        3.998489    6.347449   -1.389960
     80          1           0        3.968768    6.175255    0.383602
     81          1           0        2.788074    5.281275   -0.649369
     82          1           0        7.075968    8.086975   -1.054462
     83          1           0        5.701606    7.406686    0.044247
     84          1           0        5.905272    7.031718   -1.739274
     85          1           0       10.533008    2.266029    1.031624
     86          1           0       10.940946   -0.349143   -0.428542
     87          1           0       10.492031    2.766917   -1.730479
     88          1           0       11.546190    1.516654   -1.585509
     89          1           0       11.858833    3.024665   -0.630808
     90          1           0       10.575204   -0.810980    2.288740
     91          1           0       11.319167    0.785984    2.227457
     92          1           0       12.674013   -1.180940    0.368544
     93          1           0       12.667194   -1.585228    2.119796
     94          1           0       13.392503   -0.092434    1.398621
     95          1           0        7.147778   -5.639350    1.342294
     96          1           0        8.609510   -4.527548    1.549531
     97          1           0        7.957532   -5.093255   -0.033911
     98          1           0        2.371180   -3.749904    1.036399
     99          1           0        0.542172   -5.909526   -1.570124
    100          1           0        0.435707   -4.563707   -2.678161
    101          1           0       -0.855507   -4.851606   -1.618509
    102          1           0       -3.716804   -4.015909    0.012098
    103          1           0       -3.915124   -3.488279   -1.585759
    104          1           0       -4.904489   -1.323020    0.031219
    105          1           0       -5.869381   -5.086157   -0.312753
    106          1           0       -7.414807   -4.660463   -0.999544
    107          1           0       -7.229530   -4.654521    0.715091
    108          1           0       -7.147196   -1.706014    1.279587
    109          1           0       -8.377461   -2.644813    0.509951
    110          1           0       -8.961499   -0.939096   -0.853520
    111          1           0       -7.441651   -1.311885   -1.677445
    112          1           0       -6.805820    0.814903   -1.255916
    113          1           0       -6.683592    0.244965    0.455876
    114          1           0       -9.280232    1.492286   -0.549649
    115          1           0       -6.771805    2.964382   -0.269301
    116          1           0       -7.623191    3.172093    1.227229
    117          1           0       -8.421728    3.614029   -0.156776
    118          1           0       -8.780906    1.761827    2.264403
    119          1           0       -8.775597    0.193986    1.812877
    120          1           0      -11.074009    0.305786    1.993645
    121          1           0      -11.007504    0.447830    0.327664
    122          1           0      -11.693616    2.421480    0.188886
    123          1           0      -10.729327    3.028422    1.508094
    124          1           0      -12.778428    1.151201    2.605927
    125          1           0      -12.624401    4.147777    2.760171
    126          1           0      -11.893070    3.085125    3.991580
    127          1           0      -13.715835    3.255667    3.702445
    128          1           0      -13.661892    2.884997    0.348913
    129          1           0      -14.632871    3.053025    1.786963
    130          1           0      -15.651783    1.165020    1.531936
    131          1           0      -14.225287    0.207926    1.159470
    132          1           0      -15.484454    2.169754   -0.719461
    133          1           0      -16.309332    0.664905   -0.361998
    134          1           0      -13.667620   -0.216438   -1.022081
    135          1           0      -14.112612    2.349220   -2.412947
    136          1           0      -14.069381    1.104674   -3.622419
    137          1           0      -12.726722    1.326171   -2.518630
    138          1           0      -15.606188   -0.412229   -3.268042
    139          1           0      -16.387807   -0.878008   -1.727008
    140          1           0      -14.900354   -1.681461   -2.091368
 ---------------------------------------------------------------------

 SCF Done:  E(RwB97XD) =  -3007.84241148     A.U. after   19 cycles

 Excitation energies and oscillator strengths:

 Excited State   1:      Singlet-A      1.7286 eV  717.27 nm  f=0.3647  <S**2>=0.000
     245 -> 248        0.18484
     246 -> 247        0.68419
     245 <- 248        0.11584
 This state for optimization and/or second-order correction.
 Total Energy, E(TD-HF/TD-DFT) =  -3007.77888834
 Copying the excited state density for this state as the 1-particle RhoCI density.

 Excited State   2:      Singlet-A      2.3046 eV  537.98 nm  f=0.1171  <S**2>=0.000
     245 -> 247        0.63236
     246 -> 248       -0.30535

 Excited State   3:      Singlet-A      3.4324 eV  361.22 nm  f=0.0027  <S**2>=0.000
     244 -> 247        0.67465
     246 -> 248        0.11599

 Excited State   4:      Singlet-A      3.6593 eV  338.82 nm  f=0.0306  <S**2>=0.000
     240 -> 247        0.29853
     240 -> 249        0.28750
     240 -> 250       -0.11090
     241 -> 247        0.40453
     241 -> 249        0.29053
     241 -> 250       -0.10289
     246 -> 248        0.13338

 Excited State   5:      Singlet-A      3.7101 eV  334.18 nm  f=0.8323  <S**2>=0.000
     239 -> 247        0.12846
     240 -> 247       -0.20064
     242 -> 247        0.11565
     245 -> 247        0.27446
     246 -> 248        0.56836
     245 <- 247       -0.10809

 The electronic state is 1-A.
 Alpha  occ. eigenvalues --  -46.93929 -19.30745 -19.30651 -19.25979 -19.25051
 Alpha  occ. eigenvalues --  -19.24822 -19.24081 -14.46552 -14.46060 -14.44290
 Alpha  occ. eigenvalues --  -14.42752 -10.44471 -10.43223 -10.40548 -10.38680
 Alpha  occ. eigenvalues --  -10.35662 -10.35607 -10.35213 -10.34836 -10.34342
 Alpha  occ. eigenvalues --  -10.34289 -10.34102 -10.33791 -10.32972 -10.32320
 Alpha  occ. eigenvalues --  -10.32266 -10.31988 -10.31563 -10.31531 -10.31468
 Alpha  occ. eigenvalues --  -10.31454 -10.31429 -10.31345 -10.31312 -10.31286
 Alpha  occ. eigenvalues --  -10.31183 -10.30813 -10.30590 -10.30583 -10.30545
 Alpha  occ. eigenvalues --  -10.30545 -10.30485 -10.30175 -10.30140 -10.30096
 Alpha  occ. eigenvalues --  -10.29840 -10.29762 -10.29704 -10.29572 -10.29252
 Alpha  occ. eigenvalues --  -10.29247 -10.28982 -10.28928 -10.28894 -10.28670
 Alpha  occ. eigenvalues --  -10.28654 -10.28577 -10.28507 -10.28498 -10.28230
 Alpha  occ. eigenvalues --  -10.28199 -10.27985 -10.27935 -10.27924 -10.27888
 Alpha  occ. eigenvalues --  -10.27613  -3.20140  -1.93730  -1.93242  -1.93167
 Alpha  occ. eigenvalues --   -1.17381  -1.17059  -1.13992  -1.12231  -1.10533
 Alpha  occ. eigenvalues --   -1.08709  -1.07991  -1.06332  -1.05870  -1.05037
 Alpha  occ. eigenvalues --   -0.95081  -0.92310  -0.91795  -0.91372  -0.91140
 Alpha  occ. eigenvalues --   -0.90445  -0.90087  -0.89841  -0.89389  -0.88948
 Alpha  occ. eigenvalues --   -0.88628  -0.87115  -0.85972  -0.85604  -0.84916
 Alpha  occ. eigenvalues --   -0.84208  -0.83635  -0.83202  -0.82732  -0.82481
 Alpha  occ. eigenvalues --   -0.82023  -0.80971  -0.79861  -0.79121  -0.78358
 Alpha  occ. eigenvalues --   -0.77515  -0.77350  -0.77104  -0.76778  -0.75685
 Alpha  occ. eigenvalues --   -0.75229  -0.74597  -0.74105  -0.72238  -0.71073
 Alpha  occ. eigenvalues --   -0.70200  -0.69718  -0.69059  -0.68282  -0.67952
 Alpha  occ. eigenvalues --   -0.67241  -0.67143  -0.66955  -0.66652  -0.66051
 Alpha  occ. eigenvalues --   -0.65362  -0.65057  -0.64740  -0.64337  -0.63010
 Alpha  occ. eigenvalues --   -0.62232  -0.61895  -0.61556  -0.60727  -0.60198
 Alpha  occ. eigenvalues --   -0.59582  -0.59188  -0.58523  -0.57600  -0.57202
 Alpha  occ. eigenvalues --   -0.56876  -0.56485  -0.56363  -0.55759  -0.55693
 Alpha  occ. eigenvalues --   -0.55647  -0.55119  -0.54985  -0.54892  -0.54657
 Alpha  occ. eigenvalues --   -0.54288  -0.53950  -0.53829  -0.53661  -0.53551
 Alpha  occ. eigenvalues --   -0.53397  -0.53360  -0.53109  -0.52989  -0.52782
 Alpha  occ. eigenvalues --   -0.52469  -0.51898  -0.51807  -0.51592  -0.51494
 Alpha  occ. eigenvalues --   -0.51452  -0.51174  -0.51128  -0.50981  -0.50908
 Alpha  occ. eigenvalues --   -0.50729  -0.50505  -0.50347  -0.50005  -0.49912
 Alpha  occ. eigenvalues --   -0.49617  -0.49113  -0.48884  -0.48805  -0.48550
 Alpha  occ. eigenvalues --   -0.48466  -0.48335  -0.48002  -0.47966  -0.47923
 Alpha  occ. eigenvalues --   -0.47663  -0.47581  -0.47184  -0.46764  -0.46633
 Alpha  occ. eigenvalues --   -0.46429  -0.46413  -0.46299  -0.45987  -0.45792
 Alpha  occ. eigenvalues --   -0.45762  -0.45608  -0.45437  -0.45373  -0.45332
 Alpha  occ. eigenvalues --   -0.45096  -0.44971  -0.44825  -0.44515  -0.44217
 Alpha  occ. eigenvalues --   -0.43975  -0.43887  -0.43818  -0.43452  -0.43161
 Alpha  occ. eigenvalues --   -0.42865  -0.42538  -0.42393  -0.42076  -0.42069
 Alpha  occ. eigenvalues --   -0.42008  -0.41946  -0.41024  -0.40626  -0.40519
 Alpha  occ. eigenvalues --   -0.40313  -0.40283  -0.39950  -0.39729  -0.39552
 Alpha  occ. eigenvalues --   -0.39311  -0.39125  -0.38608  -0.38144  -0.37915
 Alpha  occ. eigenvalues --   -0.37355  -0.36968  -0.36655  -0.36568  -0.36386
 Alpha  occ. eigenvalues --   -0.36130  -0.35492  -0.35197  -0.33867  -0.33310
 Alpha  occ. eigenvalues --   -0.32985  -0.32449  -0.31344  -0.31009  -0.26035
 Alpha  occ. eigenvalues --   -0.22870
 Alpha virt. eigenvalues --   -0.06561   0.00733   0.02982   0.05043   0.05985
 Alpha virt. eigenvalues --    0.06318   0.06387   0.07459   0.08296   0.09396
 Alpha virt. eigenvalues --    0.10582   0.10765   0.11387   0.12212   0.12889

 Mulliken charges:
               1
     1  Mg   0.996617
     2  C   -0.020030
     3  C   -0.123174
     4  C   -0.105567
     5  C   -0.082109
     6  N   -0.357725
     7  C   -0.020842
     8  C   -0.059872
     9  C   -0.145582
    10  C    0.058918
    11  C    0.009657
    12  C    0.023092
    13  C   -0.013497
    14  C    0.252582
    15  O   -0.240314
    16  O   -0.385314
    17  N   -0.498989
    18  C    0.235055
    19  C   -0.188567
    20  C   -0.106068
    21  C    0.203907
    22  C    0.077453
    23  C    0.076489
    24  O   -0.234305
    25  C   -0.004145
    26  N   -0.334045
    27  C    0.019425
    28  C   -0.075676
    29  C   -0.059792
    30  C    0.039567
    31  C    0.011571
    32  C   -0.012444
    33  C   -0.069172
    34  N   -0.403852
    35  C    0.133847
    36  C   -0.191156
    37  C   -0.091707
    38  C    0.155162
    39  C    0.088050
    40  C    0.150767
    41  O   -0.155127
    42  C   -0.063160
    43  C    0.274570
    44  O   -0.253360
    45  O   -0.400998
    46  C    0.136750
    47  C    0.227956
    48  C   -0.162255
    49  C   -0.167776
    50  C    0.031202
    51  C   -0.012418
    52  C    0.012023
    53  C   -0.014859
    54  C   -0.160291
    55  C    0.014249
    56  C    0.017442
    57  C   -0.079283
    58  C    0.049110
    59  C   -0.182089
    60  C   -0.002542
    61  C    0.017443
    62  C   -0.046720
    63  C    0.001950
    64  C   -0.213500
    65  C   -0.022537
    66  C    0.001865
    67  H   -0.010360
    68  H    0.016442
    69  H   -0.011736
    70  H    0.041606
    71  H    0.038566
    72  H    0.026204
    73  H    0.044213
    74  H    0.057132
    75  H    0.030902
    76  H    0.066640
    77  H    0.029328
    78  H    0.064469
    79  H    0.056503
    80  H    0.053926
    81  H    0.038848
    82  H    0.058745
    83  H    0.066109
    84  H    0.047029
    85  H    0.046393
    86  H    0.040024
    87  H    0.032903
    88  H    0.023304
    89  H    0.051317
    90  H    0.032071
    91  H    0.034429
    92  H    0.026714
    93  H    0.045860
    94  H    0.036549
    95  H    0.053600
    96  H    0.048245
    97  H    0.047153
    98  H    0.082058
    99  H    0.060598
   100  H    0.056896
   101  H    0.057709
   102  H    0.060618
   103  H    0.041370
   104  H    0.033857
   105  H    0.022787
   106  H    0.040473
   107  H    0.049261
   108  H    0.050640
   109  H    0.008051
   110  H    0.019028
   111  H    0.027303
   112  H    0.027673
   113  H    0.018519
   114  H    0.017763
   115  H    0.026091
   116  H    0.011509
   117  H    0.023013
   118  H    0.016609
   119  H   -0.002213
   120  H    0.008303
   121  H    0.020185
   122  H    0.017677
   123  H    0.014390
   124  H    0.029742
   125  H    0.018382
   126  H    0.036450
   127  H    0.028291
   128  H    0.010464
   129  H    0.007346
   130  H    0.014825
   131  H    0.013293
   132  H    0.016243
   133  H    0.008950
   134  H    0.032886
   135  H    0.026006
   136  H    0.026086
   137  H    0.028909
   138  H    0.039420
   139  H    0.030444
   140  H    0.033108
 Sum of Mulliken charges =  -0.00000

 Dipole moment (field-independent basis, Debye):
    X=             -2.7533    Y=              4.2263    Z=             -0.7475  Tot=              5.0992
 Quadrupole moment (field-independent basis, Debye-Ang):
   XX=           -367.1925   YY=           -414.6806   ZZ=           -408.9619
   XY=             12.8579   XZ=              6.2520   YZ=              1.0712

 Normal termination of Gaussian 16 at Thu May  5 14:42:38 2022.
