 Gaussian 16, Revision A.03,
 Gaussian 16:  ES64L-G16RevA.03 25-Dec-2016

 --------------------
 #p ZINDO=(nstates=5)
 --------------------

 ----------------------------
 step_901_chromophore_4 ZINDO
 ----------------------------
 Symbolic Z-matrix:
 Charge =  0 Multiplicity = 1

                         Standard orientation:
 ---------------------------------------------------------------------
 Center     Atomic      Atomic             Coordinates (Angstroms)
 Number     Number       Type             X           Y           Z
 ---------------------------------------------------------------------
      1         12           0        5.891145    0.582385    0.117637
      2          6           0        3.667407   -2.190386    0.165953
      3          6           0        3.311352    2.559791   -0.629419
      4          6           0        8.089471    3.082037   -0.094217
      5          6           0        8.499156   -1.702399    0.451507
      6          7           0        3.761180    0.166722   -0.240322
      7          6           0        3.109418   -1.019419   -0.190705
      8          6           0        1.554730   -0.831672   -0.471885
      9          6           0        1.521379    0.733166   -0.682728
     10          6           0        2.921621    1.210936   -0.511709
     11          6           0        0.950323    1.139609   -2.089486
     12          6           0        0.655479   -1.235270    0.689195
     13          6           0       -0.869884   -0.903399    0.526443
     14          6           0       -1.878201   -2.106230    0.551002
     15          8           0       -1.907708   -2.932791    1.453181
     16          8           0       -2.740050   -2.111534   -0.603463
     17          7           0        5.757129    2.470620   -0.211856
     18          6           0        4.566177    3.132899   -0.455877
     19          6           0        4.854418    4.552381   -0.420581
     20          6           0        6.247616    4.665328   -0.380313
     21          6           0        6.721528    3.331618   -0.215360
     22          6           0        3.804977    5.662043   -0.564126
     23          6           0        7.140553    5.969277   -0.444425
     24          8           0        8.318577    6.084936   -0.087406
     25          6           0        6.386886    7.283008   -0.794221
     26          7           0        8.063978    0.684184    0.050396
     27          6           0        8.728144    1.842276    0.077912
     28          6           0       10.220891    1.657026    0.183074
     29          6           0       10.370193    0.152649    0.353165
     30          6           0        8.897688   -0.356148    0.314386
     31          6           0       11.114935    2.302163   -0.965271
     32          6           0       11.161687   -0.135392    1.666964
     33          6           0       12.557501   -0.791926    1.379982
     34          7           0        6.128853   -1.529508    0.361042
     35          6           0        7.244195   -2.294720    0.561615
     36          6           0        6.870300   -3.663502    0.683924
     37          6           0        5.483505   -3.617374    0.608525
     38          6           0        5.061209   -2.324093    0.402900
     39          6           0        7.714469   -4.781157    0.981525
     40          6           0        4.276012   -4.498604    0.576242
     41          8           0        4.201213   -5.668004    0.752179
     42          6           0        3.074277   -3.567768    0.223762
     43          6           0        2.358672   -3.901587   -0.973798
     44          8           0        2.827009   -4.080719   -2.111628
     45          8           0        1.007196   -4.030103   -0.646961
     46          6           0        0.234149   -4.866980   -1.651352
     47          6           0       -3.788906   -3.100705   -0.575306
     48          6           0       -5.108957   -2.367518   -0.203363
     49          6           0       -6.343206   -2.938081   -0.183380
     50          6           0       -6.710747   -4.400456   -0.209308
     51          6           0       -7.483997   -2.055263    0.302723
     52          6           0       -7.880405   -1.002825   -0.728687
     53          6           0       -7.335432    0.385397   -0.406654
     54          6           0       -8.408141    1.489046    0.104749
     55          6           0       -7.747200    2.833754    0.197881
     56          6           0       -9.133304    1.151177    1.433050
     57          6           0      -10.664919    0.961214    1.226039
     58          6           0      -11.466889    2.271358    1.244302
     59          6           0      -12.688563    2.130367    2.136542
     60          6           0      -12.713467    3.194922    3.280586
     61          6           0      -13.935184    2.386923    1.279641
     62          6           0      -14.747836    1.135280    0.923793
     63          6           0      -15.325369    1.120820   -0.470287
     64          6           0      -14.481501    0.293719   -1.535670
     65          6           0      -13.814262    1.315358   -2.583939
     66          6           0      -15.437192   -0.745613   -2.244506
     67          1           0        2.419346    3.150292   -0.847641
     68          1           0        8.850431    3.864898   -0.129554
     69          1           0        9.378781   -2.342428    0.537533
     70          1           0        1.202712   -1.274918   -1.403317
     71          1           0        0.847007    1.246274    0.002724
     72          1           0        0.151838    1.862838   -1.923464
     73          1           0        0.416739    0.282200   -2.500445
     74          1           0        1.754955    1.590266   -2.670326
     75          1           0        1.058246   -0.805882    1.606753
     76          1           0        0.731429   -2.320194    0.757287
     77          1           0       -0.970880   -0.381693   -0.425792
     78          1           0       -1.175082   -0.126152    1.226527
     79          1           0        3.998489    6.347449   -1.389960
     80          1           0        3.968768    6.175255    0.383602
     81          1           0        2.788074    5.281275   -0.649369
     82          1           0        7.075968    8.086975   -1.054462
     83          1           0        5.701606    7.406686    0.044247
     84          1           0        5.905272    7.031718   -1.739274
     85          1           0       10.533008    2.266029    1.031624
     86          1           0       10.940946   -0.349143   -0.428542
     87          1           0       10.492031    2.766917   -1.730479
     88          1           0       11.546190    1.516654   -1.585509
     89          1           0       11.858833    3.024665   -0.630808
     90          1           0       10.575204   -0.810980    2.288740
     91          1           0       11.319167    0.785984    2.227457
     92          1           0       12.674013   -1.180940    0.368544
     93          1           0       12.667194   -1.585228    2.119796
     94          1           0       13.392503   -0.092434    1.398621
     95          1           0        7.147778   -5.639350    1.342294
     96          1           0        8.609510   -4.527548    1.549531
     97          1           0        7.957532   -5.093255   -0.033911
     98          1           0        2.371180   -3.749904    1.036399
     99          1           0        0.542172   -5.909526   -1.570124
    100          1           0        0.435707   -4.563707   -2.678161
    101          1           0       -0.855507   -4.851606   -1.618509
    102          1           0       -3.716804   -4.015909    0.012098
    103          1           0       -3.915124   -3.488279   -1.585759
    104          1           0       -4.904489   -1.323020    0.031219
    105          1           0       -5.869381   -5.086157   -0.312753
    106          1           0       -7.414807   -4.660463   -0.999544
    107          1           0       -7.229530   -4.654521    0.715091
    108          1           0       -7.147196   -1.706014    1.279587
    109          1           0       -8.377461   -2.644813    0.509951
    110          1           0       -8.961499   -0.939096   -0.853520
    111          1           0       -7.441651   -1.311885   -1.677445
    112          1           0       -6.805820    0.814903   -1.255916
    113          1           0       -6.683592    0.244965    0.455876
    114          1           0       -9.280232    1.492286   -0.549649
    115          1           0       -6.771805    2.964382   -0.269301
    116          1           0       -7.623191    3.172093    1.227229
    117          1           0       -8.421728    3.614029   -0.156776
    118          1           0       -8.780906    1.761827    2.264403
    119          1           0       -8.775597    0.193986    1.812877
    120          1           0      -11.074009    0.305786    1.993645
    121          1           0      -11.007504    0.447830    0.327664
    122          1           0      -11.693616    2.421480    0.188886
    123          1           0      -10.729327    3.028422    1.508094
    124          1           0      -12.778428    1.151201    2.605927
    125          1           0      -12.624401    4.147777    2.760171
    126          1           0      -11.893070    3.085125    3.991580
    127          1           0      -13.715835    3.255667    3.702445
    128          1           0      -13.661892    2.884997    0.348913
    129          1           0      -14.632871    3.053025    1.786963
    130          1           0      -15.651783    1.165020    1.531936
    131          1           0      -14.225287    0.207926    1.159470
    132          1           0      -15.484454    2.169754   -0.719461
    133          1           0      -16.309332    0.664905   -0.361998
    134          1           0      -13.667620   -0.216438   -1.022081
    135          1           0      -14.112612    2.349220   -2.412947
    136          1           0      -14.069381    1.104674   -3.622419
    137          1           0      -12.726722    1.326171   -2.518630
    138          1           0      -15.606188   -0.412229   -3.268042
    139          1           0      -16.387807   -0.878008   -1.727008
    140          1           0      -14.900354   -1.681461   -2.091368
 ---------------------------------------------------------------------

 SCF Done:  E(RZINDO/S) =  -474.500081006     A.U. after   19 cycles

 Excitation energies and oscillator strengths:

 Excited State   1:      Singlet-A      1.3056 eV  949.60 nm  f=0.5710  <S**2>=0.000
     175 ->178        -0.18744
     176 ->177         0.66590
 This state for optimization and/or second-order correction.
 Total Energy, E(CIS/TDA) =  -474.452099505
 Copying the excited state density for this state as the 1-particle RhoCI density.

 Excited State   2:      Singlet-A      2.0097 eV  616.93 nm  f=0.0395  <S**2>=0.000
     175 ->177         0.54290
     176 ->178         0.42988

 Excited State   3:      Singlet-A      2.9794 eV  416.14 nm  f=0.0006  <S**2>=0.000
     167 ->177        -0.11451
     167 ->179         0.23218
     167 ->181        -0.10414
     168 ->177        -0.26193
     168 ->179         0.45307
     168 ->181        -0.19607
     168 ->186        -0.17231

 Excited State   4:      Singlet-A      3.1279 eV  396.39 nm  f=0.7995  <S**2>=0.000
     171 ->177        -0.21560
     171 ->179        -0.14149
     171 ->181        -0.21745
     171 ->182         0.19513
     171 ->186         0.14326
     171 ->187        -0.11388
     175 ->177        -0.30023
     176 ->178         0.39003

 Excited State   5:      Singlet-A      3.1507 eV  393.51 nm  f=0.6978  <S**2>=0.000
     171 ->177         0.19181
     171 ->179         0.15822
     171 ->181         0.24231
     171 ->182        -0.21707
     171 ->186        -0.16270
     171 ->187         0.13275
     175 ->177        -0.27778
     176 ->178         0.35117
     176 ->179         0.11120

 The electronic state is 1-A.
 Alpha  occ. eigenvalues --   -1.86545  -1.85956  -1.81030  -1.73367  -1.71379
 Alpha  occ. eigenvalues --   -1.69164  -1.66726  -1.61373  -1.59065  -1.57618
 Alpha  occ. eigenvalues --   -1.54492  -1.51124  -1.49660  -1.49021  -1.47675
 Alpha  occ. eigenvalues --   -1.45232  -1.43308  -1.41540  -1.39204  -1.37848
 Alpha  occ. eigenvalues --   -1.36727  -1.35905  -1.32763  -1.31947  -1.29188
 Alpha  occ. eigenvalues --   -1.28125  -1.25888  -1.21793  -1.21018  -1.18497
 Alpha  occ. eigenvalues --   -1.17928  -1.15791  -1.15061  -1.13869  -1.12704
 Alpha  occ. eigenvalues --   -1.12281  -1.11347  -1.09366  -1.05629  -1.04267
 Alpha  occ. eigenvalues --   -1.02213  -1.00770  -0.99092  -0.97550  -0.96912
 Alpha  occ. eigenvalues --   -0.95973  -0.94909  -0.93760  -0.92685  -0.92426
 Alpha  occ. eigenvalues --   -0.91845  -0.91239  -0.90265  -0.88788  -0.87703
 Alpha  occ. eigenvalues --   -0.86215  -0.84178  -0.83826  -0.82507  -0.80841
 Alpha  occ. eigenvalues --   -0.80414  -0.79503  -0.78095  -0.76191  -0.76107
 Alpha  occ. eigenvalues --   -0.75447  -0.75330  -0.74438  -0.73839  -0.72564
 Alpha  occ. eigenvalues --   -0.72269  -0.72065  -0.71682  -0.71022  -0.70397
 Alpha  occ. eigenvalues --   -0.69771  -0.69348  -0.68767  -0.68433  -0.67740
 Alpha  occ. eigenvalues --   -0.67485  -0.67151  -0.66341  -0.65303  -0.65087
 Alpha  occ. eigenvalues --   -0.64715  -0.64654  -0.64385  -0.63685  -0.63429
 Alpha  occ. eigenvalues --   -0.63074  -0.62875  -0.62491  -0.61976  -0.61637
 Alpha  occ. eigenvalues --   -0.61200  -0.60792  -0.60751  -0.60154  -0.60023
 Alpha  occ. eigenvalues --   -0.59614  -0.59451  -0.58828  -0.58421  -0.58347
 Alpha  occ. eigenvalues --   -0.58014  -0.57660  -0.57199  -0.56849  -0.56178
 Alpha  occ. eigenvalues --   -0.55859  -0.55511  -0.55183  -0.54773  -0.54598
 Alpha  occ. eigenvalues --   -0.54547  -0.54260  -0.53388  -0.53159  -0.52710
 Alpha  occ. eigenvalues --   -0.52613  -0.52305  -0.52131  -0.51928  -0.51323
 Alpha  occ. eigenvalues --   -0.51191  -0.51127  -0.50981  -0.50682  -0.50446
 Alpha  occ. eigenvalues --   -0.50226  -0.50046  -0.49690  -0.49585  -0.49290
 Alpha  occ. eigenvalues --   -0.49229  -0.48534  -0.48012  -0.47905  -0.47780
 Alpha  occ. eigenvalues --   -0.47506  -0.47315  -0.47123  -0.46878  -0.46485
 Alpha  occ. eigenvalues --   -0.46385  -0.46219  -0.45776  -0.45467  -0.45372
 Alpha  occ. eigenvalues --   -0.45275  -0.44787  -0.44612  -0.44520  -0.43085
 Alpha  occ. eigenvalues --   -0.42900  -0.42633  -0.42581  -0.42495  -0.41875
 Alpha  occ. eigenvalues --   -0.41747  -0.41104  -0.40485  -0.39597  -0.39401
 Alpha  occ. eigenvalues --   -0.38154  -0.36844  -0.35806  -0.35085  -0.34334
 Alpha  occ. eigenvalues --   -0.33855  -0.32551  -0.31699  -0.31538  -0.26731
 Alpha  occ. eigenvalues --   -0.21719
 Alpha virt. eigenvalues --   -0.08124  -0.01621  -0.00085   0.01272   0.01625
 Alpha virt. eigenvalues --    0.02745   0.02997   0.03203   0.04351   0.04764
 Alpha virt. eigenvalues --    0.06502   0.06809   0.07126   0.07592   0.08389

 Mulliken charges:
               1
     1  Mg   0.419971
     2  C   -0.023771
     3  C   -0.088746
     4  C   -0.080882
     5  C   -0.049456
     6  N   -0.287540
     7  C    0.105444
     8  C   -0.007790
     9  C   -0.005120
    10  C    0.153994
    11  C   -0.059010
    12  C   -0.020823
    13  C    0.002341
    14  C    0.461712
    15  O   -0.491417
    16  O   -0.273049
    17  N   -0.305677
    18  C    0.120823
    19  C    0.004946
    20  C   -0.044580
    21  C    0.167696
    22  C   -0.049193
    23  C    0.316729
    24  O   -0.510182
    25  C   -0.035578
    26  N   -0.258621
    27  C    0.147128
    28  C    0.008049
    29  C    0.006246
    30  C    0.085883
    31  C   -0.059569
    32  C   -0.034204
    33  C   -0.063915
    34  N   -0.322381
    35  C    0.076633
    36  C    0.040170
    37  C   -0.071578
    38  C    0.103490
    39  C   -0.037340
    40  C    0.331656
    41  O   -0.502661
    42  C    0.063164
    43  C    0.498190
    44  O   -0.530572
    45  O   -0.276876
    46  C    0.067738
    47  C    0.098311
    48  C   -0.089092
    49  C   -0.009459
    50  C   -0.035518
    51  C   -0.022340
    52  C   -0.025721
    53  C   -0.038460
    54  C   -0.014656
    55  C   -0.054614
    56  C   -0.036089
    57  C   -0.041519
    58  C   -0.033896
    59  C   -0.005775
    60  C   -0.063561
    61  C   -0.035583
    62  C   -0.038968
    63  C   -0.037996
    64  C   -0.018977
    65  C   -0.064973
    66  C   -0.062274
    67  H    0.024856
    68  H    0.047870
    69  H    0.015132
    70  H    0.044198
    71  H    0.028526
    72  H    0.011430
    73  H    0.028625
    74  H    0.035532
    75  H    0.026843
    76  H    0.033501
    77  H    0.025023
    78  H    0.043457
    79  H    0.034556
    80  H    0.033169
    81  H    0.026592
    82  H    0.044117
    83  H    0.053640
    84  H    0.028776
    85  H    0.034353
    86  H    0.037247
    87  H    0.019183
    88  H    0.018024
    89  H    0.032319
    90  H    0.021744
    91  H    0.024071
    92  H    0.020064
    93  H    0.021125
    94  H    0.019341
    95  H    0.036093
    96  H    0.031469
    97  H    0.034976
    98  H    0.054167
    99  H    0.043385
   100  H    0.041279
   101  H    0.038208
   102  H    0.062015
   103  H    0.030803
   104  H    0.040728
   105  H    0.018077
   106  H    0.026672
   107  H    0.028346
   108  H    0.029876
   109  H    0.008885
   110  H    0.019170
   111  H    0.018130
   112  H    0.020984
   113  H    0.021561
   114  H    0.023826
   115  H    0.019522
   116  H    0.012678
   117  H    0.010786
   118  H    0.029695
   119  H    0.001597
   120  H    0.008587
   121  H    0.020779
   122  H    0.019048
   123  H    0.021429
   124  H    0.028699
   125  H    0.011982
   126  H    0.022348
   127  H    0.020821
   128  H    0.019065
   129  H    0.014525
   130  H    0.007683
   131  H    0.021065
   132  H    0.022468
   133  H    0.012289
   134  H    0.028324
   135  H    0.018287
   136  H    0.018855
   137  H    0.015168
   138  H    0.030537
   139  H    0.021722
   140  H    0.019759
 Sum of Mulliken charges =  -0.00000

 Dipole moment (field-independent basis, Debye):
    X=             -4.5919    Y=              7.9434    Z=             -1.0442  Tot=              9.2343
 N-N= 4.269316419474D+03 E-N= 0.000000000000D+00  KE=-9.213127817897D+03
 Leave Link  601 at Thu May  5 15:00:55 2022, MaxMem=  6710886400 cpu:               1.0 elap:               0.1
 (Enter /sw/apps/gaussian-16.0/g16/l9999.exe)
 1\1\GINC-BP1-COMPUTE166\SP\RZINDO CIS\STO-3G\C55H74Mg1N4O6\OF15641\05-
 May-2022\0\\#p ZINDO=(nstates=5)\\step_901_chromophore_4 ZINDO\\0,1\Mg
 ,0,8.604,3.561,27.716\C,0,10.154,2.126,30.575\C,0,7.12,5.783,29.712\C,
 0,7.05,4.709,24.997\C,0,9.882,0.893,25.877\N,0,8.623,3.837,29.898\C,0,
 9.294,3.127,30.836\C,0,9.046,3.721,32.291\C,0,8.086,4.918,31.917\C,0,7
 .916,4.875,30.438\C,0,6.699,4.83,32.651\C,0,10.303,4.237,32.979\C,0,10
 .084,4.991,34.338\C,0,10.762,4.386,35.618\O,0,11.956,4.124,35.679\O,0,

 Normal termination of Gaussian 16 at Thu May  5 15:00:55 2022.
