 Gaussian 16, Revision A.03,
 Gaussian 16:  ES64L-G16RevA.03 25-Dec-2016

 ------------------------------
 #p blyp/Def2SVP td=(nstates=5)
 ------------------------------

 -------------------------------------------------
 step_301_chromophore_8 TDDFT with blyp functional
 -------------------------------------------------
 Symbolic Z-matrix:
 Charge =  0 Multiplicity = 1

                         Standard orientation:
 ---------------------------------------------------------------------
 Center     Atomic      Atomic             Coordinates (Angstroms)
 Number     Number       Type             X           Y           Z
 ---------------------------------------------------------------------
      1         12           0       -4.616549   -0.913435    0.061347
      2          6           0       -3.284487    2.264640    1.150236
      3          6           0       -4.117962    0.157611   -3.132009
      4          6           0       -5.207962   -3.965232   -0.928584
      5          6           0       -4.460553   -1.862876    3.369563
      6          7           0       -3.744528    0.926159   -0.834647
      7          6           0       -3.340128    2.143432   -0.233367
      8          6           0       -2.945492    3.246782   -1.219082
      9          6           0       -3.637740    2.623883   -2.543884
     10          6           0       -3.885404    1.165355   -2.161037
     11          6           0       -4.906472    3.432178   -3.105431
     12          6           0       -1.369051    3.381038   -1.434479
     13          6           0       -0.886604    4.807378   -1.235822
     14          6           0        0.432811    5.143090   -1.848418
     15          8           0        0.646068    5.695674   -2.897143
     16          8           0        1.480857    4.773485   -0.985458
     17          7           0       -4.704623   -1.782761   -1.810124
     18          6           0       -4.587731   -1.161972   -2.990709
     19          6           0       -4.870789   -2.151766   -4.037044
     20          6           0       -5.014524   -3.417991   -3.432052
     21          6           0       -4.920820   -3.138872   -1.980851
     22          6           0       -4.894668   -1.850833   -5.494297
     23          6           0       -5.281357   -4.727903   -4.196596
     24          8           0       -5.170224   -4.834622   -5.410964
     25          6           0       -5.591356   -6.033173   -3.380949
     26          7           0       -4.828641   -2.617891    1.124414
     27          6           0       -5.140837   -3.726631    0.481122
     28          6           0       -5.399969   -4.933178    1.460981
     29          6           0       -5.041011   -4.310658    2.857999
     30          6           0       -4.718023   -2.812191    2.448203
     31          6           0       -6.889317   -5.506110    1.343419
     32          6           0       -3.806284   -4.956270    3.614728
     33          6           0       -3.996704   -5.272635    5.100659
     34          7           0       -4.075014   -0.015382    1.983423
     35          6           0       -4.055416   -0.546241    3.192264
     36          6           0       -3.866621    0.481237    4.155995
     37          6           0       -3.476696    1.663199    3.433952
     38          6           0       -3.635129    1.278680    2.093322
     39          6           0       -3.949032    0.226846    5.670825
     40          6           0       -2.963081    3.028193    3.432999
     41          8           0       -2.683046    3.783377    4.386468
     42          6           0       -2.956828    3.499302    1.897126
     43          6           0       -4.056929    4.518229    1.780348
     44          8           0       -5.217232    4.297201    2.077846
     45          8           0       -3.542386    5.679976    1.311905
     46          6           0       -4.518351    6.757122    1.002010
     47          6           0        2.799879    4.954989   -1.497105
     48          6           0        3.318769    3.582440   -1.167599
     49          6           0        4.295234    3.313627   -0.212735
     50          6           0        5.209699    4.392306    0.411949
     51          6           0        4.404654    1.905252    0.370337
     52          6           0        5.512059    1.068761   -0.209997
     53          6           0        5.062464   -0.090151   -1.125067
     54          6           0        6.136914   -0.563957   -2.138926
     55          6           0        5.520561   -0.876798   -3.500685
     56          6           0        6.910632   -1.749790   -1.563374
     57          6           0        8.118431   -1.392210   -0.723163
     58          6           0        8.074749   -1.931189    0.675267
     59          6           0        9.406257   -2.575538    1.138790
     60          6           0        9.168040   -3.640721    2.300001
     61          6           0       10.480515   -1.453967    1.564147
     62          6           0       11.215552   -0.811711    0.386095
     63          6           0       12.753079   -0.718524    0.559193
     64          6           0       13.508480   -1.938533    0.071797
     65          6           0       14.668816   -1.468077   -0.739542
     66          6           0       13.976771   -2.801518    1.353687
     67          1           0       -4.282118    0.418050   -4.180026
     68          1           0       -5.489303   -4.997312   -1.150501
     69          1           0       -4.603005   -2.136797    4.417683
     70          1           0       -3.404436    4.226638   -1.085841
     71          1           0       -2.919670    2.636960   -3.364133
     72          1           0       -5.539854    3.874736   -2.337596
     73          1           0       -5.530016    2.692730   -3.607750
     74          1           0       -4.449960    4.163056   -3.772747
     75          1           0       -1.141503    3.134987   -2.470881
     76          1           0       -0.778052    2.762178   -0.759107
     77          1           0       -0.712231    4.816450   -0.159438
     78          1           0       -1.598800    5.535313   -1.623937
     79          1           0       -5.320097   -0.848305   -5.537982
     80          1           0       -5.413646   -2.522525   -6.178462
     81          1           0       -3.875570   -1.705245   -5.851497
     82          1           0       -4.770949   -6.331102   -2.728644
     83          1           0       -5.736007   -6.916568   -4.002162
     84          1           0       -6.517158   -5.893734   -2.821331
     85          1           0       -4.627257   -5.693139    1.338962
     86          1           0       -5.912082   -4.244986    3.510288
     87          1           0       -7.519427   -5.372316    2.222642
     88          1           0       -6.929796   -6.566009    1.091874
     89          1           0       -7.350098   -4.860923    0.595685
     90          1           0       -2.932091   -4.310151    3.543353
     91          1           0       -3.464334   -5.879820    3.148576
     92          1           0       -3.839681   -6.345126    5.217573
     93          1           0       -5.009304   -4.980459    5.381425
     94          1           0       -3.308520   -4.711724    5.731940
     95          1           0       -3.197119   -0.485338    6.011396
     96          1           0       -4.892085   -0.290639    5.847830
     97          1           0       -3.835859    1.160096    6.222355
     98          1           0       -1.983385    3.920467    1.646693
     99          1           0       -5.449518    6.699348    1.564798
    100          1           0       -4.802038    6.913256   -0.038337
    101          1           0       -4.004378    7.577148    1.502840
    102          1           0        3.209383    5.827369   -0.988002
    103          1           0        2.900094    5.188477   -2.558000
    104          1           0        2.717941    2.729839   -1.483648
    105          1           0        6.258093    4.131526    0.266661
    106          1           0        4.941400    4.572347    1.453142
    107          1           0        4.962274    5.274054   -0.179425
    108          1           0        3.462135    1.406419    0.145336
    109          1           0        4.369153    2.071199    1.447312
    110          1           0        5.874463    0.717021    0.756620
    111          1           0        6.393610    1.517392   -0.669292
    112          1           0        4.173473    0.207947   -1.681721
    113          1           0        4.647192   -0.936055   -0.576184
    114          1           0        6.849015    0.255693   -2.230888
    115          1           0        4.438771   -1.003121   -3.549499
    116          1           0        5.989180   -1.734876   -3.982755
    117          1           0        5.666038    0.030180   -4.085886
    118          1           0        7.262557   -2.368898   -2.389188
    119          1           0        6.206750   -2.397164   -1.040172
    120          1           0        8.260153   -0.323402   -0.570590
    121          1           0        9.031903   -1.692094   -1.236756
    122          1           0        7.165690   -2.522910    0.786732
    123          1           0        7.725255   -1.115079    1.308909
    124          1           0        9.827692   -3.133122    0.302919
    125          1           0        8.540802   -3.342532    3.139520
    126          1           0       10.046519   -4.170506    2.671045
    127          1           0        8.544588   -4.428025    1.876744
    128          1           0       11.089603   -1.935373    2.329402
    129          1           0        9.968428   -0.622139    2.048048
    130          1           0       10.870736    0.206322    0.204348
    131          1           0       10.955697   -1.373639   -0.510956
    132          1           0       12.990068   -0.551828    1.610222
    133          1           0       13.101698    0.192108    0.071372
    134          1           0       12.872988   -2.649152   -0.455961
    135          1           0       14.248758   -1.126546   -1.684951
    136          1           0       15.387235   -2.276866   -0.871309
    137          1           0       15.135624   -0.633043   -0.216456
    138          1           0       13.088221   -3.402852    1.546595
    139          1           0       14.125310   -2.223668    2.266146
    140          1           0       14.790583   -3.464690    1.060918
 ---------------------------------------------------------------------

 SCF Done:  E(RB-LYP) =  -3007.37635455     A.U. after   21 cycles

 Excitation energies and oscillator strengths:

 Excited State   1:      Singlet-A      1.8263 eV  678.88 nm  f=0.2953  <S**2>=0.000
     245 -> 248        0.17337
     246 -> 247        0.67490
     246 <- 247       -0.13977
 This state for optimization and/or second-order correction.
 Total Energy, E(TD-HF/TD-DFT) =  -3007.30923907
 Copying the excited state density for this state as the 1-particle RhoCI density.

 Excited State   2:      Singlet-A      1.8702 eV  662.94 nm  f=0.0127  <S**2>=0.000
     244 -> 247        0.59502
     245 -> 247       -0.36075

 Excited State   3:      Singlet-A      1.9533 eV  634.76 nm  f=0.0080  <S**2>=0.000
     243 -> 247        0.70090

 Excited State   4:      Singlet-A      2.0862 eV  594.30 nm  f=0.0461  <S**2>=0.000
     242 -> 247        0.23144
     244 -> 247        0.34218
     245 -> 247        0.50043
     246 -> 248       -0.23680

 Excited State   5:      Singlet-A      2.1047 eV  589.08 nm  f=0.0068  <S**2>=0.000
     242 -> 247        0.66722
     244 -> 247       -0.11230
     245 -> 247       -0.17489

 The electronic state is 1-A.
 Alpha  occ. eigenvalues --  -46.27607 -18.83195 -18.81328 -18.77204 -18.76779
 Alpha  occ. eigenvalues --  -18.76597 -18.75561 -14.03941 -14.03887 -14.01461
 Alpha  occ. eigenvalues --  -14.00250 -10.04146 -10.03787 -10.01200  -9.99885
 Alpha  occ. eigenvalues --   -9.98281  -9.97478  -9.97321  -9.97041  -9.96773
 Alpha  occ. eigenvalues --   -9.96562  -9.96241  -9.96076  -9.95264  -9.94796
 Alpha  occ. eigenvalues --   -9.94792  -9.94369  -9.94310  -9.94286  -9.94089
 Alpha  occ. eigenvalues --   -9.94085  -9.93780  -9.93516  -9.93514  -9.93456
 Alpha  occ. eigenvalues --   -9.93394  -9.93390  -9.93303  -9.93117  -9.93095
 Alpha  occ. eigenvalues --   -9.92875  -9.92552  -9.92508  -9.92480  -9.92184
 Alpha  occ. eigenvalues --   -9.92118  -9.92083  -9.92074  -9.91975  -9.91467
 Alpha  occ. eigenvalues --   -9.91431  -9.91422  -9.91415  -9.91283  -9.91253
 Alpha  occ. eigenvalues --   -9.91003  -9.90889  -9.90808  -9.90799  -9.90605
 Alpha  occ. eigenvalues --   -9.90500  -9.90474  -9.90394  -9.90299  -9.90279
 Alpha  occ. eigenvalues --   -9.90218  -2.92308  -1.72721  -1.72194  -1.72023
 Alpha  occ. eigenvalues --   -0.98392  -0.98007  -0.92149  -0.90671  -0.90488
 Alpha  occ. eigenvalues --   -0.89568  -0.88011  -0.86484  -0.86398  -0.85203
 Alpha  occ. eigenvalues --   -0.76180  -0.73587  -0.73371  -0.72680  -0.72543
 Alpha  occ. eigenvalues --   -0.71938  -0.71862  -0.70939  -0.70494  -0.70315
 Alpha  occ. eigenvalues --   -0.69758  -0.69154  -0.68065  -0.67838  -0.67418
 Alpha  occ. eigenvalues --   -0.66568  -0.66293  -0.65542  -0.64981  -0.64531
 Alpha  occ. eigenvalues --   -0.64070  -0.62429  -0.62146  -0.62038  -0.61055
 Alpha  occ. eigenvalues --   -0.60150  -0.60055  -0.59959  -0.59357  -0.58663
 Alpha  occ. eigenvalues --   -0.58047  -0.57564  -0.57100  -0.55726  -0.54583
 Alpha  occ. eigenvalues --   -0.54239  -0.53437  -0.53339  -0.52443  -0.52132
 Alpha  occ. eigenvalues --   -0.51547  -0.51298  -0.50987  -0.50943  -0.49946
 Alpha  occ. eigenvalues --   -0.49726  -0.49572  -0.49175  -0.48793  -0.46937
 Alpha  occ. eigenvalues --   -0.46452  -0.46082  -0.46011  -0.45779  -0.44884
 Alpha  occ. eigenvalues --   -0.44468  -0.44230  -0.43410  -0.42688  -0.42556
 Alpha  occ. eigenvalues --   -0.42345  -0.41989  -0.41487  -0.41274  -0.41082
 Alpha  occ. eigenvalues --   -0.40814  -0.40777  -0.40379  -0.39987  -0.39877
 Alpha  occ. eigenvalues --   -0.39454  -0.39373  -0.39337  -0.39058  -0.38999
 Alpha  occ. eigenvalues --   -0.38890  -0.38658  -0.38657  -0.38350  -0.38172
 Alpha  occ. eigenvalues --   -0.37993  -0.37883  -0.37813  -0.37443  -0.37177
 Alpha  occ. eigenvalues --   -0.36872  -0.36841  -0.36637  -0.36575  -0.36464
 Alpha  occ. eigenvalues --   -0.36282  -0.36167  -0.35734  -0.35590  -0.35582
 Alpha  occ. eigenvalues --   -0.35473  -0.35392  -0.35134  -0.35054  -0.34949
 Alpha  occ. eigenvalues --   -0.34798  -0.34522  -0.34408  -0.34162  -0.34039
 Alpha  occ. eigenvalues --   -0.33962  -0.33816  -0.33718  -0.33471  -0.33306
 Alpha  occ. eigenvalues --   -0.32908  -0.32832  -0.32551  -0.32526  -0.32304
 Alpha  occ. eigenvalues --   -0.32049  -0.31934  -0.31781  -0.31581  -0.31509
 Alpha  occ. eigenvalues --   -0.31401  -0.31248  -0.31226  -0.30954  -0.30887
 Alpha  occ. eigenvalues --   -0.30740  -0.30656  -0.30497  -0.30420  -0.30242
 Alpha  occ. eigenvalues --   -0.30064  -0.29911  -0.29531  -0.29148  -0.28993
 Alpha  occ. eigenvalues --   -0.28629  -0.28532  -0.28453  -0.28306  -0.27960
 Alpha  occ. eigenvalues --   -0.27908  -0.27176  -0.27133  -0.26932  -0.26569
 Alpha  occ. eigenvalues --   -0.26486  -0.26023  -0.25897  -0.25812  -0.25306
 Alpha  occ. eigenvalues --   -0.24719  -0.24656  -0.24390  -0.23972  -0.23756
 Alpha  occ. eigenvalues --   -0.23635  -0.23062  -0.22616  -0.22080  -0.21131
 Alpha  occ. eigenvalues --   -0.19933  -0.19392  -0.18916  -0.18653  -0.17747
 Alpha  occ. eigenvalues --   -0.16155
 Alpha virt. eigenvalues --   -0.11747  -0.07464  -0.06563  -0.05107  -0.03536
 Alpha virt. eigenvalues --   -0.03062  -0.02326  -0.02011  -0.01176  -0.00096
 Alpha virt. eigenvalues --    0.01088   0.01299   0.01945   0.02628   0.02677

 Mulliken charges:
               1
     1  Mg   0.703926
     2  C    0.015265
     3  C   -0.034746
     4  C   -0.053071
     5  C   -0.086074
     6  N   -0.217375
     7  C   -0.080653
     8  C    0.027981
     9  C   -0.028632
    10  C    0.065001
    11  C    0.118158
    12  C    0.103779
    13  C    0.152159
    14  C    0.037289
    15  O   -0.163195
    16  O   -0.288915
    17  N   -0.303766
    18  C    0.069856
    19  C   -0.134836
    20  C    0.027800
    21  C    0.161536
    22  C    0.181491
    23  C   -0.053180
    24  O   -0.150346
    25  C    0.104460
    26  N   -0.216539
    27  C   -0.006952
    28  C    0.021527
    29  C    0.019336
    30  C    0.026615
    31  C    0.117324
    32  C    0.076785
    33  C    0.064772
    34  N   -0.201904
    35  C    0.105557
    36  C   -0.205780
    37  C    0.133781
    38  C    0.054045
    39  C    0.169908
    40  C   -0.063081
    41  O   -0.156864
    42  C    0.076202
    43  C    0.108804
    44  O   -0.172273
    45  O   -0.261123
    46  C    0.197353
    47  C    0.301859
    48  C   -0.045649
    49  C   -0.210620
    50  C    0.151980
    51  C    0.138436
    52  C    0.101002
    53  C    0.103059
    54  C   -0.087218
    55  C    0.119394
    56  C    0.145668
    57  C    0.075852
    58  C    0.089862
    59  C   -0.050505
    60  C    0.078777
    61  C    0.106349
    62  C    0.067093
    63  C    0.117050
    64  C   -0.092709
    65  C    0.128094
    66  C    0.074317
    67  H   -0.065033
    68  H   -0.083301
    69  H   -0.072018
    70  H   -0.017653
    71  H   -0.021643
    72  H    0.001790
    73  H   -0.006090
    74  H    0.009414
    75  H   -0.015348
    76  H   -0.000309
    77  H    0.005618
    78  H   -0.005975
    79  H   -0.016174
    80  H    0.016382
    81  H    0.002086
    82  H    0.019584
    83  H   -0.016444
    84  H    0.016813
    85  H   -0.021029
    86  H   -0.020644
    87  H   -0.009093
    88  H    0.004871
    89  H   -0.005682
    90  H   -0.015939
    91  H   -0.025292
    92  H   -0.003693
    93  H   -0.012216
    94  H   -0.001705
    95  H   -0.003738
    96  H   -0.006061
    97  H    0.011803
    98  H   -0.016636
    99  H    0.019664
   100  H    0.030981
   101  H    0.021658
   102  H   -0.006621
   103  H   -0.000051
   104  H   -0.041422
   105  H    0.002190
   106  H    0.005985
   107  H   -0.026316
   108  H   -0.040788
   109  H   -0.026684
   110  H   -0.030892
   111  H   -0.023116
   112  H   -0.045699
   113  H   -0.041761
   114  H   -0.039138
   115  H   -0.017523
   116  H   -0.019946
   117  H   -0.020818
   118  H   -0.052068
   119  H   -0.038871
   120  H   -0.034382
   121  H   -0.032419
   122  H   -0.054400
   123  H   -0.047182
   124  H   -0.030970
   125  H   -0.017311
   126  H   -0.012821
   127  H   -0.030198
   128  H   -0.031572
   129  H   -0.039065
   130  H   -0.037587
   131  H   -0.025998
   132  H   -0.037686
   133  H   -0.047724
   134  H   -0.033963
   135  H   -0.013855
   136  H   -0.024480
   137  H   -0.013600
   138  H   -0.018259
   139  H   -0.009146
   140  H   -0.016289
 Sum of Mulliken charges =  -0.00000

 Dipole moment (field-independent basis, Debye):
    X=             -1.6112    Y=             -2.5567    Z=              0.2348  Tot=              3.0312
 Quadrupole moment (field-independent basis, Debye-Ang):
   XX=           -390.4310   YY=           -394.8133   ZZ=           -439.0772
   XY=              9.0767   XZ=             -0.8502   YZ=            -34.1114

 Normal termination of Gaussian 16 at Wed May  4 19:32:29 2022.
