 Gaussian 16, Revision A.03,
 Gaussian 16:  ES64L-G16RevA.03 25-Dec-2016

 -----------------------------------
 #p cam-b3lyp/Def2SVP td=(nstates=5)
 -----------------------------------

 ------------------------------------------------------
 step_301_chromophore_8 TDDFT with cam-b3lyp functional
 ------------------------------------------------------
 Symbolic Z-matrix:
 Charge =  0 Multiplicity = 1

                         Standard orientation:
 ---------------------------------------------------------------------
 Center     Atomic      Atomic             Coordinates (Angstroms)
 Number     Number       Type             X           Y           Z
 ---------------------------------------------------------------------
      1         12           0       -4.616549   -0.913435    0.061347
      2          6           0       -3.284487    2.264640    1.150236
      3          6           0       -4.117962    0.157611   -3.132009
      4          6           0       -5.207962   -3.965232   -0.928584
      5          6           0       -4.460553   -1.862876    3.369563
      6          7           0       -3.744528    0.926159   -0.834647
      7          6           0       -3.340128    2.143432   -0.233367
      8          6           0       -2.945492    3.246782   -1.219082
      9          6           0       -3.637740    2.623883   -2.543884
     10          6           0       -3.885404    1.165355   -2.161037
     11          6           0       -4.906472    3.432178   -3.105431
     12          6           0       -1.369051    3.381038   -1.434479
     13          6           0       -0.886604    4.807378   -1.235822
     14          6           0        0.432811    5.143090   -1.848418
     15          8           0        0.646068    5.695674   -2.897143
     16          8           0        1.480857    4.773485   -0.985458
     17          7           0       -4.704623   -1.782761   -1.810124
     18          6           0       -4.587731   -1.161972   -2.990709
     19          6           0       -4.870789   -2.151766   -4.037044
     20          6           0       -5.014524   -3.417991   -3.432052
     21          6           0       -4.920820   -3.138872   -1.980851
     22          6           0       -4.894668   -1.850833   -5.494297
     23          6           0       -5.281357   -4.727903   -4.196596
     24          8           0       -5.170224   -4.834622   -5.410964
     25          6           0       -5.591356   -6.033173   -3.380949
     26          7           0       -4.828641   -2.617891    1.124414
     27          6           0       -5.140837   -3.726631    0.481122
     28          6           0       -5.399969   -4.933178    1.460981
     29          6           0       -5.041011   -4.310658    2.857999
     30          6           0       -4.718023   -2.812191    2.448203
     31          6           0       -6.889317   -5.506110    1.343419
     32          6           0       -3.806284   -4.956270    3.614728
     33          6           0       -3.996704   -5.272635    5.100659
     34          7           0       -4.075014   -0.015382    1.983423
     35          6           0       -4.055416   -0.546241    3.192264
     36          6           0       -3.866621    0.481237    4.155995
     37          6           0       -3.476696    1.663199    3.433952
     38          6           0       -3.635129    1.278680    2.093322
     39          6           0       -3.949032    0.226846    5.670825
     40          6           0       -2.963081    3.028193    3.432999
     41          8           0       -2.683046    3.783377    4.386468
     42          6           0       -2.956828    3.499302    1.897126
     43          6           0       -4.056929    4.518229    1.780348
     44          8           0       -5.217232    4.297201    2.077846
     45          8           0       -3.542386    5.679976    1.311905
     46          6           0       -4.518351    6.757122    1.002010
     47          6           0        2.799879    4.954989   -1.497105
     48          6           0        3.318769    3.582440   -1.167599
     49          6           0        4.295234    3.313627   -0.212735
     50          6           0        5.209699    4.392306    0.411949
     51          6           0        4.404654    1.905252    0.370337
     52          6           0        5.512059    1.068761   -0.209997
     53          6           0        5.062464   -0.090151   -1.125067
     54          6           0        6.136914   -0.563957   -2.138926
     55          6           0        5.520561   -0.876798   -3.500685
     56          6           0        6.910632   -1.749790   -1.563374
     57          6           0        8.118431   -1.392210   -0.723163
     58          6           0        8.074749   -1.931189    0.675267
     59          6           0        9.406257   -2.575538    1.138790
     60          6           0        9.168040   -3.640721    2.300001
     61          6           0       10.480515   -1.453967    1.564147
     62          6           0       11.215552   -0.811711    0.386095
     63          6           0       12.753079   -0.718524    0.559193
     64          6           0       13.508480   -1.938533    0.071797
     65          6           0       14.668816   -1.468077   -0.739542
     66          6           0       13.976771   -2.801518    1.353687
     67          1           0       -4.282118    0.418050   -4.180026
     68          1           0       -5.489303   -4.997312   -1.150501
     69          1           0       -4.603005   -2.136797    4.417683
     70          1           0       -3.404436    4.226638   -1.085841
     71          1           0       -2.919670    2.636960   -3.364133
     72          1           0       -5.539854    3.874736   -2.337596
     73          1           0       -5.530016    2.692730   -3.607750
     74          1           0       -4.449960    4.163056   -3.772747
     75          1           0       -1.141503    3.134987   -2.470881
     76          1           0       -0.778052    2.762178   -0.759107
     77          1           0       -0.712231    4.816450   -0.159438
     78          1           0       -1.598800    5.535313   -1.623937
     79          1           0       -5.320097   -0.848305   -5.537982
     80          1           0       -5.413646   -2.522525   -6.178462
     81          1           0       -3.875570   -1.705245   -5.851497
     82          1           0       -4.770949   -6.331102   -2.728644
     83          1           0       -5.736007   -6.916568   -4.002162
     84          1           0       -6.517158   -5.893734   -2.821331
     85          1           0       -4.627257   -5.693139    1.338962
     86          1           0       -5.912082   -4.244986    3.510288
     87          1           0       -7.519427   -5.372316    2.222642
     88          1           0       -6.929796   -6.566009    1.091874
     89          1           0       -7.350098   -4.860923    0.595685
     90          1           0       -2.932091   -4.310151    3.543353
     91          1           0       -3.464334   -5.879820    3.148576
     92          1           0       -3.839681   -6.345126    5.217573
     93          1           0       -5.009304   -4.980459    5.381425
     94          1           0       -3.308520   -4.711724    5.731940
     95          1           0       -3.197119   -0.485338    6.011396
     96          1           0       -4.892085   -0.290639    5.847830
     97          1           0       -3.835859    1.160096    6.222355
     98          1           0       -1.983385    3.920467    1.646693
     99          1           0       -5.449518    6.699348    1.564798
    100          1           0       -4.802038    6.913256   -0.038337
    101          1           0       -4.004378    7.577148    1.502840
    102          1           0        3.209383    5.827369   -0.988002
    103          1           0        2.900094    5.188477   -2.558000
    104          1           0        2.717941    2.729839   -1.483648
    105          1           0        6.258093    4.131526    0.266661
    106          1           0        4.941400    4.572347    1.453142
    107          1           0        4.962274    5.274054   -0.179425
    108          1           0        3.462135    1.406419    0.145336
    109          1           0        4.369153    2.071199    1.447312
    110          1           0        5.874463    0.717021    0.756620
    111          1           0        6.393610    1.517392   -0.669292
    112          1           0        4.173473    0.207947   -1.681721
    113          1           0        4.647192   -0.936055   -0.576184
    114          1           0        6.849015    0.255693   -2.230888
    115          1           0        4.438771   -1.003121   -3.549499
    116          1           0        5.989180   -1.734876   -3.982755
    117          1           0        5.666038    0.030180   -4.085886
    118          1           0        7.262557   -2.368898   -2.389188
    119          1           0        6.206750   -2.397164   -1.040172
    120          1           0        8.260153   -0.323402   -0.570590
    121          1           0        9.031903   -1.692094   -1.236756
    122          1           0        7.165690   -2.522910    0.786732
    123          1           0        7.725255   -1.115079    1.308909
    124          1           0        9.827692   -3.133122    0.302919
    125          1           0        8.540802   -3.342532    3.139520
    126          1           0       10.046519   -4.170506    2.671045
    127          1           0        8.544588   -4.428025    1.876744
    128          1           0       11.089603   -1.935373    2.329402
    129          1           0        9.968428   -0.622139    2.048048
    130          1           0       10.870736    0.206322    0.204348
    131          1           0       10.955697   -1.373639   -0.510956
    132          1           0       12.990068   -0.551828    1.610222
    133          1           0       13.101698    0.192108    0.071372
    134          1           0       12.872988   -2.649152   -0.455961
    135          1           0       14.248758   -1.126546   -1.684951
    136          1           0       15.387235   -2.276866   -0.871309
    137          1           0       15.135624   -0.633043   -0.216456
    138          1           0       13.088221   -3.402852    1.546595
    139          1           0       14.125310   -2.223668    2.266146
    140          1           0       14.790583   -3.464690    1.060918
 ---------------------------------------------------------------------

 SCF Done:  E(RCAM-B3LYP) =  -3007.17186335     A.U. after   17 cycles

 Excitation energies and oscillator strengths:

 Excited State   1:      Singlet-A      1.8294 eV  677.74 nm  f=0.3757  <S**2>=0.000
     245 -> 248        0.16662
     246 -> 247        0.68674
 This state for optimization and/or second-order correction.
 Total Energy, E(TD-HF/TD-DFT) =  -3007.10463488
 Copying the excited state density for this state as the 1-particle RhoCI density.

 Excited State   2:      Singlet-A      2.3238 eV  533.54 nm  f=0.0745  <S**2>=0.000
     245 -> 247        0.62032
     246 -> 248       -0.31737

 Excited State   3:      Singlet-A      3.3518 eV  369.91 nm  f=0.0049  <S**2>=0.000
     241 -> 247       -0.13069
     243 -> 247        0.67380

 Excited State   4:      Singlet-A      3.4790 eV  356.38 nm  f=0.3726  <S**2>=0.000
     241 -> 247        0.38438
     245 -> 247        0.23259
     246 -> 248        0.52185

 Excited State   5:      Singlet-A      3.5700 eV  347.29 nm  f=0.0055  <S**2>=0.000
     241 -> 247        0.16245
     242 -> 247        0.51805
     242 -> 249       -0.27661
     242 -> 250        0.10688
     242 -> 251       -0.24749

 The electronic state is 1-A.
 Alpha  occ. eigenvalues --  -46.89197 -19.26012 -19.24005 -19.20306 -19.20171
 Alpha  occ. eigenvalues --  -19.19626 -19.18220 -14.42910 -14.42853 -14.40226
 Alpha  occ. eigenvalues --  -14.38244 -10.39339 -10.39045 -10.36920 -10.34850
 Alpha  occ. eigenvalues --  -10.32576 -10.32293 -10.32225 -10.31769 -10.31182
 Alpha  occ. eigenvalues --  -10.30923 -10.30822 -10.30178 -10.29712 -10.29325
 Alpha  occ. eigenvalues --  -10.29029 -10.28989 -10.28443 -10.28328 -10.27902
 Alpha  occ. eigenvalues --  -10.27875 -10.27706 -10.27602 -10.27472 -10.27427
 Alpha  occ. eigenvalues --  -10.27425 -10.27400 -10.27338 -10.27258 -10.27021
 Alpha  occ. eigenvalues --  -10.26991 -10.26600 -10.26531 -10.26353 -10.26345
 Alpha  occ. eigenvalues --  -10.25959 -10.25626 -10.25571 -10.25385 -10.25308
 Alpha  occ. eigenvalues --  -10.25092 -10.25092 -10.25060 -10.24855 -10.24693
 Alpha  occ. eigenvalues --  -10.24613 -10.24555 -10.24433 -10.24426 -10.24224
 Alpha  occ. eigenvalues --  -10.24088 -10.24046 -10.23916 -10.23909 -10.23871
 Alpha  occ. eigenvalues --  -10.23799  -3.17802  -1.92691  -1.92271  -1.92098
 Alpha  occ. eigenvalues --   -1.16760  -1.16407  -1.11016  -1.08471  -1.08286
 Alpha  occ. eigenvalues --   -1.07394  -1.05856  -1.04510  -1.03704  -1.02740
 Alpha  occ. eigenvalues --   -0.93056  -0.90384  -0.90114  -0.89640  -0.89287
 Alpha  occ. eigenvalues --   -0.88626  -0.88525  -0.87566  -0.87511  -0.87018
 Alpha  occ. eigenvalues --   -0.86184  -0.85184  -0.84130  -0.84010  -0.83596
 Alpha  occ. eigenvalues --   -0.82562  -0.82312  -0.81511  -0.81189  -0.80373
 Alpha  occ. eigenvalues --   -0.79757  -0.78111  -0.77918  -0.77514  -0.76420
 Alpha  occ. eigenvalues --   -0.75450  -0.75392  -0.75300  -0.74624  -0.73863
 Alpha  occ. eigenvalues --   -0.72983  -0.72471  -0.72001  -0.70528  -0.69141
 Alpha  occ. eigenvalues --   -0.68795  -0.68168  -0.67871  -0.66588  -0.66414
 Alpha  occ. eigenvalues --   -0.65776  -0.65252  -0.65176  -0.64989  -0.63972
 Alpha  occ. eigenvalues --   -0.63684  -0.63284  -0.62799  -0.62698  -0.60884
 Alpha  occ. eigenvalues --   -0.60085  -0.59598  -0.59464  -0.59229  -0.58362
 Alpha  occ. eigenvalues --   -0.57974  -0.57588  -0.56952  -0.55795  -0.55688
 Alpha  occ. eigenvalues --   -0.55411  -0.54861  -0.54292  -0.54140  -0.53862
 Alpha  occ. eigenvalues --   -0.53554  -0.53431  -0.53091  -0.52800  -0.52630
 Alpha  occ. eigenvalues --   -0.52373  -0.52171  -0.52029  -0.51890  -0.51649
 Alpha  occ. eigenvalues --   -0.51401  -0.51273  -0.51002  -0.50725  -0.50585
 Alpha  occ. eigenvalues --   -0.50551  -0.50288  -0.50130  -0.50073  -0.49631
 Alpha  occ. eigenvalues --   -0.49359  -0.49082  -0.49002  -0.48877  -0.48668
 Alpha  occ. eigenvalues --   -0.48537  -0.48400  -0.48160  -0.48080  -0.47690
 Alpha  occ. eigenvalues --   -0.47460  -0.47265  -0.47205  -0.46989  -0.46892
 Alpha  occ. eigenvalues --   -0.46640  -0.46328  -0.46216  -0.45876  -0.45821
 Alpha  occ. eigenvalues --   -0.45596  -0.45498  -0.45339  -0.45280  -0.45037
 Alpha  occ. eigenvalues --   -0.44663  -0.44420  -0.44376  -0.44018  -0.43872
 Alpha  occ. eigenvalues --   -0.43702  -0.43677  -0.43470  -0.43278  -0.43079
 Alpha  occ. eigenvalues --   -0.43008  -0.42932  -0.42783  -0.42466  -0.42223
 Alpha  occ. eigenvalues --   -0.42073  -0.41938  -0.41839  -0.41788  -0.41694
 Alpha  occ. eigenvalues --   -0.41439  -0.41112  -0.40628  -0.40309  -0.40089
 Alpha  occ. eigenvalues --   -0.39861  -0.39553  -0.39412  -0.39301  -0.38832
 Alpha  occ. eigenvalues --   -0.38772  -0.38070  -0.37949  -0.37807  -0.37708
 Alpha  occ. eigenvalues --   -0.37357  -0.37128  -0.37071  -0.36539  -0.35904
 Alpha  occ. eigenvalues --   -0.35440  -0.35158  -0.34801  -0.34703  -0.34520
 Alpha  occ. eigenvalues --   -0.34392  -0.34030  -0.33809  -0.32139  -0.31830
 Alpha  occ. eigenvalues --   -0.30950  -0.30163  -0.28573  -0.28424  -0.24779
 Alpha  occ. eigenvalues --   -0.21572
 Alpha virt. eigenvalues --   -0.08636  -0.02289  -0.00085   0.01722   0.01986
 Alpha virt. eigenvalues --    0.04038   0.05150   0.05721   0.06295   0.06692
 Alpha virt. eigenvalues --    0.07766   0.07962   0.08669   0.08837   0.08879

 Mulliken charges:
               1
     1  Mg   0.836784
     2  C   -0.012119
     3  C   -0.046464
     4  C   -0.082142
     5  C   -0.087491
     6  N   -0.282645
     7  C   -0.049516
     8  C   -0.018958
     9  C   -0.080182
    10  C    0.082336
    11  C    0.065360
    12  C    0.057309
    13  C    0.076771
    14  C    0.126475
    15  O   -0.205270
    16  O   -0.353007
    17  N   -0.396046
    18  C    0.088518
    19  C   -0.137401
    20  C   -0.036807
    21  C    0.198726
    22  C    0.119949
    23  C    0.024477
    24  O   -0.187871
    25  C    0.023479
    26  N   -0.293986
    27  C    0.021445
    28  C   -0.034818
    29  C   -0.027514
    30  C    0.036521
    31  C    0.058124
    32  C    0.021100
    33  C    0.003266
    34  N   -0.286573
    35  C    0.103893
    36  C   -0.199185
    37  C    0.051541
    38  C    0.086013
    39  C    0.116888
    40  C    0.034961
    41  O   -0.200007
    42  C   -0.000723
    43  C    0.198142
    44  O   -0.210838
    45  O   -0.325188
    46  C    0.160052
    47  C    0.258234
    48  C   -0.065829
    49  C   -0.225382
    50  C    0.094810
    51  C    0.078596
    52  C    0.044427
    53  C    0.052789
    54  C   -0.146593
    55  C    0.060186
    56  C    0.090300
    57  C    0.020433
    58  C    0.039887
    59  C   -0.108684
    60  C    0.023847
    61  C    0.054511
    62  C    0.012553
    63  C    0.059777
    64  C   -0.151893
    65  C    0.066060
    66  C    0.021655
    67  H   -0.032390
    68  H   -0.045353
    69  H   -0.036793
    70  H    0.014633
    71  H    0.013608
    72  H    0.026315
    73  H    0.017012
    74  H    0.033242
    75  H    0.012867
    76  H    0.030316
    77  H    0.037358
    78  H    0.025197
    79  H    0.009465
    80  H    0.049607
    81  H    0.033201
    82  H    0.047069
    83  H    0.021446
    84  H    0.042845
    85  H    0.014427
    86  H    0.012497
    87  H    0.018359
    88  H    0.028711
    89  H    0.018413
    90  H    0.015690
    91  H    0.001599
    92  H    0.019257
    93  H    0.009522
    94  H    0.021997
    95  H    0.018430
    96  H    0.014424
    97  H    0.037054
    98  H    0.026603
    99  H    0.046654
   100  H    0.048578
   101  H    0.045006
   102  H    0.021994
   103  H    0.033503
   104  H   -0.010291
   105  H    0.024985
   106  H    0.030109
   107  H   -0.003863
   108  H   -0.008759
   109  H    0.004024
   110  H   -0.003241
   111  H    0.002553
   112  H   -0.017793
   113  H   -0.013031
   114  H   -0.006262
   115  H    0.006420
   116  H    0.004440
   117  H    0.004292
   118  H   -0.020591
   119  H   -0.010692
   120  H   -0.008227
   121  H   -0.003535
   122  H   -0.023613
   123  H   -0.019115
   124  H   -0.001529
   125  H    0.006526
   126  H    0.010623
   127  H   -0.005199
   128  H   -0.004657
   129  H   -0.009448
   130  H   -0.007630
   131  H   -0.002100
   132  H   -0.008950
   133  H   -0.015233
   134  H   -0.003251
   135  H    0.010398
   136  H    0.000244
   137  H    0.009372
   138  H    0.002438
   139  H    0.013440
   140  H    0.007716
 Sum of Mulliken charges =  -0.00000

 Dipole moment (field-independent basis, Debye):
    X=             -2.1677    Y=             -3.5408    Z=             -1.0724  Tot=              4.2879
 Quadrupole moment (field-independent basis, Debye-Ang):
   XX=           -387.1916   YY=           -389.3589   ZZ=           -438.9277
   XY=             13.8855   XZ=              5.7808   YZ=            -33.9588

 Normal termination of Gaussian 16 at Wed May  4 18:34:31 2022.
