 Gaussian 16, Revision A.03,
 Gaussian 16:  ES64L-G16RevA.03 25-Dec-2016

 ---------------------------------
 #p PBE1PBE/Def2SVP td=(nstates=5)
 ---------------------------------

 ----------------------------------------------------
 step_301_chromophore_8 TDDFT with PBE1PBE functional
 ----------------------------------------------------
 Symbolic Z-matrix:
 Charge =  0 Multiplicity = 1

                         Standard orientation:
 ---------------------------------------------------------------------
 Center     Atomic      Atomic             Coordinates (Angstroms)
 Number     Number       Type             X           Y           Z
 ---------------------------------------------------------------------
      1         12           0       -4.616549   -0.913435    0.061347
      2          6           0       -3.284487    2.264640    1.150236
      3          6           0       -4.117962    0.157611   -3.132009
      4          6           0       -5.207962   -3.965232   -0.928584
      5          6           0       -4.460553   -1.862876    3.369563
      6          7           0       -3.744528    0.926159   -0.834647
      7          6           0       -3.340128    2.143432   -0.233367
      8          6           0       -2.945492    3.246782   -1.219082
      9          6           0       -3.637740    2.623883   -2.543884
     10          6           0       -3.885404    1.165355   -2.161037
     11          6           0       -4.906472    3.432178   -3.105431
     12          6           0       -1.369051    3.381038   -1.434479
     13          6           0       -0.886604    4.807378   -1.235822
     14          6           0        0.432811    5.143090   -1.848418
     15          8           0        0.646068    5.695674   -2.897143
     16          8           0        1.480857    4.773485   -0.985458
     17          7           0       -4.704623   -1.782761   -1.810124
     18          6           0       -4.587731   -1.161972   -2.990709
     19          6           0       -4.870789   -2.151766   -4.037044
     20          6           0       -5.014524   -3.417991   -3.432052
     21          6           0       -4.920820   -3.138872   -1.980851
     22          6           0       -4.894668   -1.850833   -5.494297
     23          6           0       -5.281357   -4.727903   -4.196596
     24          8           0       -5.170224   -4.834622   -5.410964
     25          6           0       -5.591356   -6.033173   -3.380949
     26          7           0       -4.828641   -2.617891    1.124414
     27          6           0       -5.140837   -3.726631    0.481122
     28          6           0       -5.399969   -4.933178    1.460981
     29          6           0       -5.041011   -4.310658    2.857999
     30          6           0       -4.718023   -2.812191    2.448203
     31          6           0       -6.889317   -5.506110    1.343419
     32          6           0       -3.806284   -4.956270    3.614728
     33          6           0       -3.996704   -5.272635    5.100659
     34          7           0       -4.075014   -0.015382    1.983423
     35          6           0       -4.055416   -0.546241    3.192264
     36          6           0       -3.866621    0.481237    4.155995
     37          6           0       -3.476696    1.663199    3.433952
     38          6           0       -3.635129    1.278680    2.093322
     39          6           0       -3.949032    0.226846    5.670825
     40          6           0       -2.963081    3.028193    3.432999
     41          8           0       -2.683046    3.783377    4.386468
     42          6           0       -2.956828    3.499302    1.897126
     43          6           0       -4.056929    4.518229    1.780348
     44          8           0       -5.217232    4.297201    2.077846
     45          8           0       -3.542386    5.679976    1.311905
     46          6           0       -4.518351    6.757122    1.002010
     47          6           0        2.799879    4.954989   -1.497105
     48          6           0        3.318769    3.582440   -1.167599
     49          6           0        4.295234    3.313627   -0.212735
     50          6           0        5.209699    4.392306    0.411949
     51          6           0        4.404654    1.905252    0.370337
     52          6           0        5.512059    1.068761   -0.209997
     53          6           0        5.062464   -0.090151   -1.125067
     54          6           0        6.136914   -0.563957   -2.138926
     55          6           0        5.520561   -0.876798   -3.500685
     56          6           0        6.910632   -1.749790   -1.563374
     57          6           0        8.118431   -1.392210   -0.723163
     58          6           0        8.074749   -1.931189    0.675267
     59          6           0        9.406257   -2.575538    1.138790
     60          6           0        9.168040   -3.640721    2.300001
     61          6           0       10.480515   -1.453967    1.564147
     62          6           0       11.215552   -0.811711    0.386095
     63          6           0       12.753079   -0.718524    0.559193
     64          6           0       13.508480   -1.938533    0.071797
     65          6           0       14.668816   -1.468077   -0.739542
     66          6           0       13.976771   -2.801518    1.353687
     67          1           0       -4.282118    0.418050   -4.180026
     68          1           0       -5.489303   -4.997312   -1.150501
     69          1           0       -4.603005   -2.136797    4.417683
     70          1           0       -3.404436    4.226638   -1.085841
     71          1           0       -2.919670    2.636960   -3.364133
     72          1           0       -5.539854    3.874736   -2.337596
     73          1           0       -5.530016    2.692730   -3.607750
     74          1           0       -4.449960    4.163056   -3.772747
     75          1           0       -1.141503    3.134987   -2.470881
     76          1           0       -0.778052    2.762178   -0.759107
     77          1           0       -0.712231    4.816450   -0.159438
     78          1           0       -1.598800    5.535313   -1.623937
     79          1           0       -5.320097   -0.848305   -5.537982
     80          1           0       -5.413646   -2.522525   -6.178462
     81          1           0       -3.875570   -1.705245   -5.851497
     82          1           0       -4.770949   -6.331102   -2.728644
     83          1           0       -5.736007   -6.916568   -4.002162
     84          1           0       -6.517158   -5.893734   -2.821331
     85          1           0       -4.627257   -5.693139    1.338962
     86          1           0       -5.912082   -4.244986    3.510288
     87          1           0       -7.519427   -5.372316    2.222642
     88          1           0       -6.929796   -6.566009    1.091874
     89          1           0       -7.350098   -4.860923    0.595685
     90          1           0       -2.932091   -4.310151    3.543353
     91          1           0       -3.464334   -5.879820    3.148576
     92          1           0       -3.839681   -6.345126    5.217573
     93          1           0       -5.009304   -4.980459    5.381425
     94          1           0       -3.308520   -4.711724    5.731940
     95          1           0       -3.197119   -0.485338    6.011396
     96          1           0       -4.892085   -0.290639    5.847830
     97          1           0       -3.835859    1.160096    6.222355
     98          1           0       -1.983385    3.920467    1.646693
     99          1           0       -5.449518    6.699348    1.564798
    100          1           0       -4.802038    6.913256   -0.038337
    101          1           0       -4.004378    7.577148    1.502840
    102          1           0        3.209383    5.827369   -0.988002
    103          1           0        2.900094    5.188477   -2.558000
    104          1           0        2.717941    2.729839   -1.483648
    105          1           0        6.258093    4.131526    0.266661
    106          1           0        4.941400    4.572347    1.453142
    107          1           0        4.962274    5.274054   -0.179425
    108          1           0        3.462135    1.406419    0.145336
    109          1           0        4.369153    2.071199    1.447312
    110          1           0        5.874463    0.717021    0.756620
    111          1           0        6.393610    1.517392   -0.669292
    112          1           0        4.173473    0.207947   -1.681721
    113          1           0        4.647192   -0.936055   -0.576184
    114          1           0        6.849015    0.255693   -2.230888
    115          1           0        4.438771   -1.003121   -3.549499
    116          1           0        5.989180   -1.734876   -3.982755
    117          1           0        5.666038    0.030180   -4.085886
    118          1           0        7.262557   -2.368898   -2.389188
    119          1           0        6.206750   -2.397164   -1.040172
    120          1           0        8.260153   -0.323402   -0.570590
    121          1           0        9.031903   -1.692094   -1.236756
    122          1           0        7.165690   -2.522910    0.786732
    123          1           0        7.725255   -1.115079    1.308909
    124          1           0        9.827692   -3.133122    0.302919
    125          1           0        8.540802   -3.342532    3.139520
    126          1           0       10.046519   -4.170506    2.671045
    127          1           0        8.544588   -4.428025    1.876744
    128          1           0       11.089603   -1.935373    2.329402
    129          1           0        9.968428   -0.622139    2.048048
    130          1           0       10.870736    0.206322    0.204348
    131          1           0       10.955697   -1.373639   -0.510956
    132          1           0       12.990068   -0.551828    1.610222
    133          1           0       13.101698    0.192108    0.071372
    134          1           0       12.872988   -2.649152   -0.455961
    135          1           0       14.248758   -1.126546   -1.684951
    136          1           0       15.387235   -2.276866   -0.871309
    137          1           0       15.135624   -0.633043   -0.216456
    138          1           0       13.088221   -3.402852    1.546595
    139          1           0       14.125310   -2.223668    2.266146
    140          1           0       14.790583   -3.464690    1.060918
 ---------------------------------------------------------------------

 SCF Done:  E(RPBE1PBE) =  -3005.35975380     A.U. after   16 cycles

 Excitation energies and oscillator strengths:

 Excited State   1:      Singlet-A      1.9060 eV  650.48 nm  f=0.3647  <S**2>=0.000
     245 -> 248        0.16788
     246 -> 247        0.69177
 This state for optimization and/or second-order correction.
 Total Energy, E(TD-HF/TD-DFT) =  -3005.28970794
 Copying the excited state density for this state as the 1-particle RhoCI density.

 Excited State   2:      Singlet-A      2.3030 eV  538.36 nm  f=0.0753  <S**2>=0.000
     245 -> 247        0.63652
     246 -> 248       -0.28703

 Excited State   3:      Singlet-A      2.9241 eV  424.01 nm  f=0.0087  <S**2>=0.000
     243 -> 247        0.69491

 Excited State   4:      Singlet-A      3.0023 eV  412.96 nm  f=0.0020  <S**2>=0.000
     242 -> 247        0.66115
     242 -> 249       -0.16647
     242 -> 250       -0.11398
     246 -> 248       -0.10248

 Excited State   5:      Singlet-A      3.0340 eV  408.65 nm  f=0.0001  <S**2>=0.000
     244 -> 247        0.70432

 The electronic state is 1-A.
 Alpha  occ. eigenvalues --  -46.92576 -19.26783 -19.24821 -19.20487 -19.20225
 Alpha  occ. eigenvalues --  -19.20009 -19.18839 -14.42425 -14.42256 -14.39689
 Alpha  occ. eigenvalues --  -14.38138 -10.36496 -10.36122 -10.33808 -10.32362
 Alpha  occ. eigenvalues --  -10.29937 -10.29703 -10.29550 -10.28942 -10.28919
 Alpha  occ. eigenvalues --  -10.28365 -10.28350 -10.28188 -10.27250 -10.26862
 Alpha  occ. eigenvalues --  -10.26773 -10.26752 -10.26237 -10.25855 -10.25797
 Alpha  occ. eigenvalues --  -10.25752 -10.25698 -10.25621 -10.25348 -10.25315
 Alpha  occ. eigenvalues --  -10.24966 -10.24960 -10.24900 -10.24822 -10.24637
 Alpha  occ. eigenvalues --  -10.24332 -10.24231 -10.24091 -10.24068 -10.23662
 Alpha  occ. eigenvalues --  -10.23489 -10.23171 -10.23110 -10.22992 -10.22924
 Alpha  occ. eigenvalues --  -10.22903 -10.22758 -10.22733 -10.22657 -10.22414
 Alpha  occ. eigenvalues --  -10.22188 -10.22102 -10.21967 -10.21837 -10.21644
 Alpha  occ. eigenvalues --  -10.21640 -10.21449 -10.21434 -10.21428 -10.21314
 Alpha  occ. eigenvalues --  -10.21270  -3.14759  -1.87589  -1.87147  -1.86978
 Alpha  occ. eigenvalues --   -1.11664  -1.11279  -1.05471  -1.03413  -1.03244
 Alpha  occ. eigenvalues --   -1.02461  -1.00424  -0.98872  -0.98669  -0.97417
 Alpha  occ. eigenvalues --   -0.87647  -0.84546  -0.84311  -0.83827  -0.83381
 Alpha  occ. eigenvalues --   -0.82860  -0.82674  -0.81865  -0.81492  -0.81148
 Alpha  occ. eigenvalues --   -0.80445  -0.79776  -0.78536  -0.78257  -0.77818
 Alpha  occ. eigenvalues --   -0.76782  -0.76524  -0.75780  -0.75311  -0.74553
 Alpha  occ. eigenvalues --   -0.73999  -0.72294  -0.72188  -0.71890  -0.70786
 Alpha  occ. eigenvalues --   -0.69749  -0.69605  -0.69368  -0.68761  -0.68029
 Alpha  occ. eigenvalues --   -0.67430  -0.66923  -0.66452  -0.64829  -0.63513
 Alpha  occ. eigenvalues --   -0.63297  -0.62533  -0.62082  -0.60980  -0.60671
 Alpha  occ. eigenvalues --   -0.60185  -0.59867  -0.59585  -0.59392  -0.58074
 Alpha  occ. eigenvalues --   -0.57874  -0.57779  -0.57471  -0.56865  -0.55255
 Alpha  occ. eigenvalues --   -0.54576  -0.54133  -0.53975  -0.53839  -0.52912
 Alpha  occ. eigenvalues --   -0.52494  -0.52207  -0.51393  -0.50322  -0.50241
 Alpha  occ. eigenvalues --   -0.50096  -0.49488  -0.48829  -0.48768  -0.48390
 Alpha  occ. eigenvalues --   -0.48066  -0.47886  -0.47733  -0.47539  -0.47028
 Alpha  occ. eigenvalues --   -0.46974  -0.46589  -0.46428  -0.46351  -0.46157
 Alpha  occ. eigenvalues --   -0.46044  -0.45847  -0.45539  -0.45308  -0.45162
 Alpha  occ. eigenvalues --   -0.45002  -0.44848  -0.44621  -0.44524  -0.44237
 Alpha  occ. eigenvalues --   -0.43980  -0.43681  -0.43634  -0.43407  -0.43334
 Alpha  occ. eigenvalues --   -0.43133  -0.43058  -0.42829  -0.42619  -0.42214
 Alpha  occ. eigenvalues --   -0.42082  -0.41888  -0.41800  -0.41639  -0.41522
 Alpha  occ. eigenvalues --   -0.41379  -0.41056  -0.40915  -0.40627  -0.40485
 Alpha  occ. eigenvalues --   -0.40417  -0.40198  -0.40180  -0.40092  -0.39869
 Alpha  occ. eigenvalues --   -0.39520  -0.39094  -0.39042  -0.38695  -0.38637
 Alpha  occ. eigenvalues --   -0.38430  -0.38351  -0.38112  -0.37962  -0.37813
 Alpha  occ. eigenvalues --   -0.37743  -0.37643  -0.37607  -0.37346  -0.37027
 Alpha  occ. eigenvalues --   -0.36968  -0.36900  -0.36875  -0.36653  -0.36514
 Alpha  occ. eigenvalues --   -0.36261  -0.36017  -0.35687  -0.35109  -0.35023
 Alpha  occ. eigenvalues --   -0.34791  -0.34366  -0.34146  -0.34056  -0.33868
 Alpha  occ. eigenvalues --   -0.33536  -0.33052  -0.32852  -0.32738  -0.32581
 Alpha  occ. eigenvalues --   -0.32425  -0.32151  -0.32045  -0.31355  -0.30783
 Alpha  occ. eigenvalues --   -0.30360  -0.30043  -0.29911  -0.29748  -0.29577
 Alpha  occ. eigenvalues --   -0.29367  -0.29306  -0.28951  -0.27478  -0.26577
 Alpha  occ. eigenvalues --   -0.26246  -0.25380  -0.24619  -0.23786  -0.21579
 Alpha  occ. eigenvalues --   -0.19135
 Alpha virt. eigenvalues --   -0.11263  -0.05818  -0.04304  -0.02539  -0.00987
 Alpha virt. eigenvalues --   -0.00381   0.00840   0.00913   0.01958   0.02875
 Alpha virt. eigenvalues --    0.03855   0.04258   0.04724   0.05551   0.05598

 Mulliken charges:
               1
     1  Mg   0.983404
     2  C   -0.036439
     3  C   -0.031532
     4  C   -0.075039
     5  C   -0.086965
     6  N   -0.381094
     7  C    0.026004
     8  C   -0.089990
     9  C   -0.148673
    10  C    0.111788
    11  C    0.005435
    12  C    0.014166
    13  C   -0.011190
    14  C    0.201930
    15  O   -0.240871
    16  O   -0.380693
    17  N   -0.509276
    18  C    0.108814
    19  C   -0.171042
    20  C   -0.073544
    21  C    0.220043
    22  C    0.060626
    23  C    0.074354
    24  O   -0.224882
    25  C   -0.053207
    26  N   -0.411059
    27  C    0.051500
    28  C   -0.108186
    29  C   -0.098429
    30  C    0.073206
    31  C   -0.000284
    32  C   -0.033576
    33  C   -0.069394
    34  N   -0.407926
    35  C    0.138954
    36  C   -0.208414
    37  C    0.003323
    38  C    0.145179
    39  C    0.060832
    40  C    0.128861
    41  O   -0.241325
    42  C   -0.120411
    43  C    0.293873
    44  O   -0.244850
    45  O   -0.357826
    46  C    0.105273
    47  C    0.214232
    48  C   -0.084522
    49  C   -0.255607
    50  C    0.028305
    51  C    0.012138
    52  C   -0.018287
    53  C    0.005331
    54  C   -0.240913
    55  C    0.001405
    56  C    0.037684
    57  C   -0.040403
    58  C   -0.007683
    59  C   -0.205633
    60  C   -0.036652
    61  C    0.008782
    62  C   -0.057203
    63  C    0.007936
    64  C   -0.241266
    65  C   -0.000843
    66  C   -0.040420
    67  H   -0.001652
    68  H   -0.011469
    69  H   -0.003686
    70  H    0.055477
    71  H    0.049358
    72  H    0.052237
    73  H    0.045967
    74  H    0.059807
    75  H    0.046849
    76  H    0.061307
    77  H    0.073271
    78  H    0.056596
    79  H    0.035929
    80  H    0.074666
    81  H    0.060107
    82  H    0.072194
    83  H    0.048931
    84  H    0.068212
    85  H    0.050623
    86  H    0.048553
    87  H    0.043984
    88  H    0.055041
    89  H    0.046768
    90  H    0.048022
    91  H    0.034400
    92  H    0.047279
    93  H    0.036634
    94  H    0.048558
    95  H    0.048652
    96  H    0.043695
    97  H    0.066277
    98  H    0.068069
    99  H    0.067802
   100  H    0.069150
   101  H    0.066965
   102  H    0.047353
   103  H    0.061151
   104  H    0.019790
   105  H    0.053056
   106  H    0.057147
   107  H    0.025323
   108  H    0.023567
   109  H    0.035798
   110  H    0.031568
   111  H    0.032322
   112  H    0.015957
   113  H    0.018632
   114  H    0.032045
   115  H    0.033331
   116  H    0.031273
   117  H    0.032765
   118  H    0.012892
   119  H    0.020761
   120  H    0.024492
   121  H    0.029610
   122  H    0.007713
   123  H    0.014578
   124  H    0.037205
   125  H    0.034017
   126  H    0.037786
   127  H    0.023723
   128  H    0.026760
   129  H    0.023484
   130  H    0.025012
   131  H    0.031374
   132  H    0.023755
   133  H    0.017112
   134  H    0.033307
   135  H    0.039968
   136  H    0.028341
   137  H    0.037336
   138  H    0.032356
   139  H    0.039622
   140  H    0.035314
 Sum of Mulliken charges =  -0.00000

 Dipole moment (field-independent basis, Debye):
    X=             -2.0401    Y=             -3.1179    Z=             -0.2407  Tot=              3.7338
 Quadrupole moment (field-independent basis, Debye-Ang):
   XX=           -386.1966   YY=           -386.5632   ZZ=           -434.7024
   XY=             12.0690   XZ=              2.2791   YZ=            -35.7012

 Normal termination of Gaussian 16 at Wed May  4 18:49:52 2022.
