 Gaussian 16, Revision A.03,
 Gaussian 16:  ES64L-G16RevA.03 25-Dec-2016

 --------------------------------
 #p wB97XD/Def2SVP td=(nstates=5)
 --------------------------------

 ---------------------------------------------------
 step_301_chromophore_8 TDDFT with wB97XD functional
 ---------------------------------------------------
 Symbolic Z-matrix:
 Charge =  0 Multiplicity = 1

                         Standard orientation:
 ---------------------------------------------------------------------
 Center     Atomic      Atomic             Coordinates (Angstroms)
 Number     Number       Type             X           Y           Z
 ---------------------------------------------------------------------
      1         12           0       -4.616549   -0.913435    0.061347
      2          6           0       -3.284487    2.264640    1.150236
      3          6           0       -4.117962    0.157611   -3.132009
      4          6           0       -5.207962   -3.965232   -0.928584
      5          6           0       -4.460553   -1.862876    3.369563
      6          7           0       -3.744528    0.926159   -0.834647
      7          6           0       -3.340128    2.143432   -0.233367
      8          6           0       -2.945492    3.246782   -1.219082
      9          6           0       -3.637740    2.623883   -2.543884
     10          6           0       -3.885404    1.165355   -2.161037
     11          6           0       -4.906472    3.432178   -3.105431
     12          6           0       -1.369051    3.381038   -1.434479
     13          6           0       -0.886604    4.807378   -1.235822
     14          6           0        0.432811    5.143090   -1.848418
     15          8           0        0.646068    5.695674   -2.897143
     16          8           0        1.480857    4.773485   -0.985458
     17          7           0       -4.704623   -1.782761   -1.810124
     18          6           0       -4.587731   -1.161972   -2.990709
     19          6           0       -4.870789   -2.151766   -4.037044
     20          6           0       -5.014524   -3.417991   -3.432052
     21          6           0       -4.920820   -3.138872   -1.980851
     22          6           0       -4.894668   -1.850833   -5.494297
     23          6           0       -5.281357   -4.727903   -4.196596
     24          8           0       -5.170224   -4.834622   -5.410964
     25          6           0       -5.591356   -6.033173   -3.380949
     26          7           0       -4.828641   -2.617891    1.124414
     27          6           0       -5.140837   -3.726631    0.481122
     28          6           0       -5.399969   -4.933178    1.460981
     29          6           0       -5.041011   -4.310658    2.857999
     30          6           0       -4.718023   -2.812191    2.448203
     31          6           0       -6.889317   -5.506110    1.343419
     32          6           0       -3.806284   -4.956270    3.614728
     33          6           0       -3.996704   -5.272635    5.100659
     34          7           0       -4.075014   -0.015382    1.983423
     35          6           0       -4.055416   -0.546241    3.192264
     36          6           0       -3.866621    0.481237    4.155995
     37          6           0       -3.476696    1.663199    3.433952
     38          6           0       -3.635129    1.278680    2.093322
     39          6           0       -3.949032    0.226846    5.670825
     40          6           0       -2.963081    3.028193    3.432999
     41          8           0       -2.683046    3.783377    4.386468
     42          6           0       -2.956828    3.499302    1.897126
     43          6           0       -4.056929    4.518229    1.780348
     44          8           0       -5.217232    4.297201    2.077846
     45          8           0       -3.542386    5.679976    1.311905
     46          6           0       -4.518351    6.757122    1.002010
     47          6           0        2.799879    4.954989   -1.497105
     48          6           0        3.318769    3.582440   -1.167599
     49          6           0        4.295234    3.313627   -0.212735
     50          6           0        5.209699    4.392306    0.411949
     51          6           0        4.404654    1.905252    0.370337
     52          6           0        5.512059    1.068761   -0.209997
     53          6           0        5.062464   -0.090151   -1.125067
     54          6           0        6.136914   -0.563957   -2.138926
     55          6           0        5.520561   -0.876798   -3.500685
     56          6           0        6.910632   -1.749790   -1.563374
     57          6           0        8.118431   -1.392210   -0.723163
     58          6           0        8.074749   -1.931189    0.675267
     59          6           0        9.406257   -2.575538    1.138790
     60          6           0        9.168040   -3.640721    2.300001
     61          6           0       10.480515   -1.453967    1.564147
     62          6           0       11.215552   -0.811711    0.386095
     63          6           0       12.753079   -0.718524    0.559193
     64          6           0       13.508480   -1.938533    0.071797
     65          6           0       14.668816   -1.468077   -0.739542
     66          6           0       13.976771   -2.801518    1.353687
     67          1           0       -4.282118    0.418050   -4.180026
     68          1           0       -5.489303   -4.997312   -1.150501
     69          1           0       -4.603005   -2.136797    4.417683
     70          1           0       -3.404436    4.226638   -1.085841
     71          1           0       -2.919670    2.636960   -3.364133
     72          1           0       -5.539854    3.874736   -2.337596
     73          1           0       -5.530016    2.692730   -3.607750
     74          1           0       -4.449960    4.163056   -3.772747
     75          1           0       -1.141503    3.134987   -2.470881
     76          1           0       -0.778052    2.762178   -0.759107
     77          1           0       -0.712231    4.816450   -0.159438
     78          1           0       -1.598800    5.535313   -1.623937
     79          1           0       -5.320097   -0.848305   -5.537982
     80          1           0       -5.413646   -2.522525   -6.178462
     81          1           0       -3.875570   -1.705245   -5.851497
     82          1           0       -4.770949   -6.331102   -2.728644
     83          1           0       -5.736007   -6.916568   -4.002162
     84          1           0       -6.517158   -5.893734   -2.821331
     85          1           0       -4.627257   -5.693139    1.338962
     86          1           0       -5.912082   -4.244986    3.510288
     87          1           0       -7.519427   -5.372316    2.222642
     88          1           0       -6.929796   -6.566009    1.091874
     89          1           0       -7.350098   -4.860923    0.595685
     90          1           0       -2.932091   -4.310151    3.543353
     91          1           0       -3.464334   -5.879820    3.148576
     92          1           0       -3.839681   -6.345126    5.217573
     93          1           0       -5.009304   -4.980459    5.381425
     94          1           0       -3.308520   -4.711724    5.731940
     95          1           0       -3.197119   -0.485338    6.011396
     96          1           0       -4.892085   -0.290639    5.847830
     97          1           0       -3.835859    1.160096    6.222355
     98          1           0       -1.983385    3.920467    1.646693
     99          1           0       -5.449518    6.699348    1.564798
    100          1           0       -4.802038    6.913256   -0.038337
    101          1           0       -4.004378    7.577148    1.502840
    102          1           0        3.209383    5.827369   -0.988002
    103          1           0        2.900094    5.188477   -2.558000
    104          1           0        2.717941    2.729839   -1.483648
    105          1           0        6.258093    4.131526    0.266661
    106          1           0        4.941400    4.572347    1.453142
    107          1           0        4.962274    5.274054   -0.179425
    108          1           0        3.462135    1.406419    0.145336
    109          1           0        4.369153    2.071199    1.447312
    110          1           0        5.874463    0.717021    0.756620
    111          1           0        6.393610    1.517392   -0.669292
    112          1           0        4.173473    0.207947   -1.681721
    113          1           0        4.647192   -0.936055   -0.576184
    114          1           0        6.849015    0.255693   -2.230888
    115          1           0        4.438771   -1.003121   -3.549499
    116          1           0        5.989180   -1.734876   -3.982755
    117          1           0        5.666038    0.030180   -4.085886
    118          1           0        7.262557   -2.368898   -2.389188
    119          1           0        6.206750   -2.397164   -1.040172
    120          1           0        8.260153   -0.323402   -0.570590
    121          1           0        9.031903   -1.692094   -1.236756
    122          1           0        7.165690   -2.522910    0.786732
    123          1           0        7.725255   -1.115079    1.308909
    124          1           0        9.827692   -3.133122    0.302919
    125          1           0        8.540802   -3.342532    3.139520
    126          1           0       10.046519   -4.170506    2.671045
    127          1           0        8.544588   -4.428025    1.876744
    128          1           0       11.089603   -1.935373    2.329402
    129          1           0        9.968428   -0.622139    2.048048
    130          1           0       10.870736    0.206322    0.204348
    131          1           0       10.955697   -1.373639   -0.510956
    132          1           0       12.990068   -0.551828    1.610222
    133          1           0       13.101698    0.192108    0.071372
    134          1           0       12.872988   -2.649152   -0.455961
    135          1           0       14.248758   -1.126546   -1.684951
    136          1           0       15.387235   -2.276866   -0.871309
    137          1           0       15.135624   -0.633043   -0.216456
    138          1           0       13.088221   -3.402852    1.546595
    139          1           0       14.125310   -2.223668    2.266146
    140          1           0       14.790583   -3.464690    1.060918
 ---------------------------------------------------------------------

 SCF Done:  E(RwB97XD) =  -3007.87063829     A.U. after   17 cycles

 Excitation energies and oscillator strengths:

 Excited State   1:      Singlet-A      1.8112 eV  684.56 nm  f=0.3760  <S**2>=0.000
     245 -> 248        0.16787
     246 -> 247        0.68457
     245 <- 248        0.10218
 This state for optimization and/or second-order correction.
 Total Energy, E(TD-HF/TD-DFT) =  -3007.80407941
 Copying the excited state density for this state as the 1-particle RhoCI density.

 Excited State   2:      Singlet-A      2.2794 eV  543.93 nm  f=0.0736  <S**2>=0.000
     245 -> 247        0.61801
     246 -> 248       -0.31701

 Excited State   3:      Singlet-A      3.4235 eV  362.16 nm  f=0.0043  <S**2>=0.000
     241 -> 247       -0.19732
     242 -> 247       -0.10074
     243 -> 247        0.64753

 Excited State   4:      Singlet-A      3.4896 eV  355.30 nm  f=0.3403  <S**2>=0.000
     241 -> 247        0.40900
     245 -> 247        0.21237
     246 -> 248        0.50252

 Excited State   5:      Singlet-A      3.6300 eV  341.55 nm  f=0.0389  <S**2>=0.000
     240 -> 247       -0.14626
     241 -> 247        0.16613
     242 -> 247        0.44596
     242 -> 249       -0.28617
     242 -> 250       -0.28390
     243 -> 247        0.14262
     246 -> 248       -0.10851

 The electronic state is 1-A.
 Alpha  occ. eigenvalues --  -46.95558 -19.31210 -19.29254 -19.25400 -19.25102
 Alpha  occ. eigenvalues --  -19.24539 -19.23224 -14.47529 -14.47447 -14.44877
 Alpha  occ. eigenvalues --  -14.42786 -10.43152 -10.42849 -10.40984 -10.38838
 Alpha  occ. eigenvalues --  -10.36694 -10.36403 -10.35959 -10.35946 -10.35343
 Alpha  occ. eigenvalues --  -10.34810 -10.34785 -10.34125 -10.33976 -10.33417
 Alpha  occ. eigenvalues --  -10.33116 -10.33084 -10.32652 -10.32390 -10.31872
 Alpha  occ. eigenvalues --  -10.31864 -10.31617 -10.31568 -10.31538 -10.31485
 Alpha  occ. eigenvalues --  -10.31468 -10.31301 -10.31235 -10.31164 -10.31039
 Alpha  occ. eigenvalues --  -10.30927 -10.30606 -10.30454 -10.30362 -10.30341
 Alpha  occ. eigenvalues --  -10.29923 -10.29426 -10.29392 -10.29238 -10.29196
 Alpha  occ. eigenvalues --  -10.29019 -10.29003 -10.28998 -10.28769 -10.28662
 Alpha  occ. eigenvalues --  -10.28534 -10.28470 -10.28340 -10.28255 -10.28050
 Alpha  occ. eigenvalues --  -10.27993 -10.27853 -10.27816 -10.27786 -10.27703
 Alpha  occ. eigenvalues --  -10.27701  -3.21597  -1.95177  -1.94733  -1.94564
 Alpha  occ. eigenvalues --   -1.18912  -1.18572  -1.13306  -1.10675  -1.10443
 Alpha  occ. eigenvalues --   -1.09573  -1.07881  -1.06631  -1.05687  -1.04760
 Alpha  occ. eigenvalues --   -0.94987  -0.92160  -0.91926  -0.91634  -0.91034
 Alpha  occ. eigenvalues --   -0.90485  -0.90308  -0.89606  -0.89495  -0.88795
 Alpha  occ. eigenvalues --   -0.88073  -0.87079  -0.86022  -0.85869  -0.85459
 Alpha  occ. eigenvalues --   -0.84411  -0.84204  -0.83467  -0.83126  -0.82188
 Alpha  occ. eigenvalues --   -0.81612  -0.80127  -0.79834  -0.79412  -0.78335
 Alpha  occ. eigenvalues --   -0.77390  -0.77254  -0.77071  -0.76427  -0.75681
 Alpha  occ. eigenvalues --   -0.74905  -0.74443  -0.73970  -0.72448  -0.71069
 Alpha  occ. eigenvalues --   -0.70798  -0.70204  -0.69716  -0.68506  -0.68268
 Alpha  occ. eigenvalues --   -0.67751  -0.67253  -0.67009  -0.66985  -0.65756
 Alpha  occ. eigenvalues --   -0.65483  -0.65238  -0.64769  -0.64505  -0.62949
 Alpha  occ. eigenvalues --   -0.62054  -0.61495  -0.61441  -0.61212  -0.60273
 Alpha  occ. eigenvalues --   -0.59932  -0.59567  -0.58977  -0.57646  -0.57585
 Alpha  occ. eigenvalues --   -0.57376  -0.56785  -0.56182  -0.56091  -0.55774
 Alpha  occ. eigenvalues --   -0.55450  -0.55285  -0.55037  -0.54747  -0.54610
 Alpha  occ. eigenvalues --   -0.54317  -0.54083  -0.53985  -0.53745  -0.53530
 Alpha  occ. eigenvalues --   -0.53304  -0.53171  -0.52877  -0.52653  -0.52532
 Alpha  occ. eigenvalues --   -0.52493  -0.52212  -0.52117  -0.51944  -0.51552
 Alpha  occ. eigenvalues --   -0.51266  -0.51025  -0.50900  -0.50723  -0.50564
 Alpha  occ. eigenvalues --   -0.50423  -0.50326  -0.50139  -0.49981  -0.49679
 Alpha  occ. eigenvalues --   -0.49355  -0.49144  -0.49133  -0.48876  -0.48787
 Alpha  occ. eigenvalues --   -0.48535  -0.48224  -0.48115  -0.47820  -0.47678
 Alpha  occ. eigenvalues --   -0.47444  -0.47352  -0.47255  -0.47156  -0.46956
 Alpha  occ. eigenvalues --   -0.46597  -0.46328  -0.46259  -0.45874  -0.45838
 Alpha  occ. eigenvalues --   -0.45672  -0.45649  -0.45401  -0.45220  -0.44975
 Alpha  occ. eigenvalues --   -0.44853  -0.44838  -0.44671  -0.44392  -0.44093
 Alpha  occ. eigenvalues --   -0.43997  -0.43890  -0.43730  -0.43692  -0.43588
 Alpha  occ. eigenvalues --   -0.43324  -0.42992  -0.42517  -0.42156  -0.41997
 Alpha  occ. eigenvalues --   -0.41771  -0.41396  -0.41213  -0.41139  -0.40776
 Alpha  occ. eigenvalues --   -0.40586  -0.40084  -0.39880  -0.39777  -0.39557
 Alpha  occ. eigenvalues --   -0.39308  -0.39109  -0.39056  -0.38360  -0.37726
 Alpha  occ. eigenvalues --   -0.37302  -0.36983  -0.36724  -0.36657  -0.36435
 Alpha  occ. eigenvalues --   -0.36272  -0.36022  -0.35846  -0.34260  -0.33956
 Alpha  occ. eigenvalues --   -0.33201  -0.32099  -0.30679  -0.30434  -0.26749
 Alpha  occ. eigenvalues --   -0.23429
 Alpha virt. eigenvalues --   -0.06943  -0.00370   0.01946   0.04037   0.04930
 Alpha virt. eigenvalues --    0.06304   0.07585   0.07909   0.08759   0.09326
 Alpha virt. eigenvalues --    0.10230   0.11196   0.11450   0.12292   0.12334

 Mulliken charges:
               1
     1  Mg   0.974619
     2  C   -0.028883
     3  C   -0.051634
     4  C   -0.093455
     5  C   -0.095476
     6  N   -0.350074
     7  C   -0.011859
     8  C   -0.061491
     9  C   -0.125608
    10  C    0.102886
    11  C    0.017950
    12  C    0.020774
    13  C    0.011177
    14  C    0.190426
    15  O   -0.238795
    16  O   -0.380458
    17  N   -0.479466
    18  C    0.106836
    19  C   -0.156416
    20  C   -0.072681
    21  C    0.224086
    22  C    0.071705
    23  C    0.070001
    24  O   -0.218367
    25  C   -0.038989
    26  N   -0.373450
    27  C    0.047063
    28  C   -0.087375
    29  C   -0.072820
    30  C    0.058467
    31  C    0.011667
    32  C   -0.022042
    33  C   -0.052502
    34  N   -0.369661
    35  C    0.119604
    36  C   -0.210194
    37  C    0.006454
    38  C    0.119614
    39  C    0.071307
    40  C    0.110703
    41  O   -0.235733
    42  C   -0.073817
    43  C    0.267439
    44  O   -0.240701
    45  O   -0.355962
    46  C    0.121076
    47  C    0.224909
    48  C   -0.087309
    49  C   -0.249462
    50  C    0.045230
    51  C    0.034770
    52  C   -0.002143
    53  C    0.017284
    54  C   -0.204932
    55  C    0.012901
    56  C    0.053905
    57  C   -0.023349
    58  C    0.005859
    59  C   -0.166528
    60  C   -0.023473
    61  C    0.015782
    62  C   -0.032130
    63  C    0.021701
    64  C   -0.215513
    65  C    0.014703
    66  C   -0.024956
    67  H   -0.009265
    68  H   -0.023740
    69  H   -0.011101
    70  H    0.038131
    71  H    0.039213
    72  H    0.048061
    73  H    0.038174
    74  H    0.055465
    75  H    0.036692
    76  H    0.055357
    77  H    0.063889
    78  H    0.051433
    79  H    0.030458
    80  H    0.074064
    81  H    0.057911
    82  H    0.067897
    83  H    0.048899
    84  H    0.063084
    85  H    0.041095
    86  H    0.036056
    87  H    0.040701
    88  H    0.050717
    89  H    0.038162
    90  H    0.039925
    91  H    0.025431
    92  H    0.041538
    93  H    0.029224
    94  H    0.043683
    95  H    0.040715
    96  H    0.034955
    97  H    0.061886
    98  H    0.057703
    99  H    0.063754
   100  H    0.065026
   101  H    0.063080
   102  H    0.043667
   103  H    0.056862
   104  H    0.014948
   105  H    0.047535
   106  H    0.052351
   107  H    0.016312
   108  H    0.014552
   109  H    0.029500
   110  H    0.021389
   111  H    0.022468
   112  H    0.003175
   113  H    0.010247
   114  H    0.018164
   115  H    0.027314
   116  H    0.025500
   117  H    0.026989
   118  H    0.004284
   119  H    0.009556
   120  H    0.011792
   121  H    0.019532
   122  H   -0.002235
   123  H    0.002812
   124  H    0.022727
   125  H    0.028103
   126  H    0.032472
   127  H    0.016511
   128  H    0.015935
   129  H    0.015542
   130  H    0.018255
   131  H    0.014919
   132  H    0.013155
   133  H    0.009377
   134  H    0.023018
   135  H    0.033176
   136  H    0.022574
   137  H    0.029829
   138  H    0.022869
   139  H    0.033500
   140  H    0.029858
 Sum of Mulliken charges =  -0.00000

 Dipole moment (field-independent basis, Debye):
    X=             -2.3017    Y=             -3.6982    Z=             -1.2398  Tot=              4.5290
 Quadrupole moment (field-independent basis, Debye-Ang):
   XX=           -383.1837   YY=           -384.8637   ZZ=           -434.8665
   XY=             14.7255   XZ=              7.0829   YZ=            -34.2941

 Normal termination of Gaussian 16 at Wed May  4 19:18:48 2022.
