 Gaussian 16, Revision A.03,
 Gaussian 16:  ES64L-G16RevA.03 25-Dec-2016

 --------------------
 #p ZINDO=(nstates=5)
 --------------------

 ----------------------------
 step_301_chromophore_8 ZINDO
 ----------------------------
 Symbolic Z-matrix:
 Charge =  0 Multiplicity = 1

                         Standard orientation:
 ---------------------------------------------------------------------
 Center     Atomic      Atomic             Coordinates (Angstroms)
 Number     Number       Type             X           Y           Z
 ---------------------------------------------------------------------
      1         12           0       -4.616549   -0.913435    0.061347
      2          6           0       -3.284487    2.264640    1.150236
      3          6           0       -4.117962    0.157611   -3.132009
      4          6           0       -5.207962   -3.965232   -0.928584
      5          6           0       -4.460553   -1.862876    3.369563
      6          7           0       -3.744528    0.926159   -0.834647
      7          6           0       -3.340128    2.143432   -0.233367
      8          6           0       -2.945492    3.246782   -1.219082
      9          6           0       -3.637740    2.623883   -2.543884
     10          6           0       -3.885404    1.165355   -2.161037
     11          6           0       -4.906472    3.432178   -3.105431
     12          6           0       -1.369051    3.381038   -1.434479
     13          6           0       -0.886604    4.807378   -1.235822
     14          6           0        0.432811    5.143090   -1.848418
     15          8           0        0.646068    5.695674   -2.897143
     16          8           0        1.480857    4.773485   -0.985458
     17          7           0       -4.704623   -1.782761   -1.810124
     18          6           0       -4.587731   -1.161972   -2.990709
     19          6           0       -4.870789   -2.151766   -4.037044
     20          6           0       -5.014524   -3.417991   -3.432052
     21          6           0       -4.920820   -3.138872   -1.980851
     22          6           0       -4.894668   -1.850833   -5.494297
     23          6           0       -5.281357   -4.727903   -4.196596
     24          8           0       -5.170224   -4.834622   -5.410964
     25          6           0       -5.591356   -6.033173   -3.380949
     26          7           0       -4.828641   -2.617891    1.124414
     27          6           0       -5.140837   -3.726631    0.481122
     28          6           0       -5.399969   -4.933178    1.460981
     29          6           0       -5.041011   -4.310658    2.857999
     30          6           0       -4.718023   -2.812191    2.448203
     31          6           0       -6.889317   -5.506110    1.343419
     32          6           0       -3.806284   -4.956270    3.614728
     33          6           0       -3.996704   -5.272635    5.100659
     34          7           0       -4.075014   -0.015382    1.983423
     35          6           0       -4.055416   -0.546241    3.192264
     36          6           0       -3.866621    0.481237    4.155995
     37          6           0       -3.476696    1.663199    3.433952
     38          6           0       -3.635129    1.278680    2.093322
     39          6           0       -3.949032    0.226846    5.670825
     40          6           0       -2.963081    3.028193    3.432999
     41          8           0       -2.683046    3.783377    4.386468
     42          6           0       -2.956828    3.499302    1.897126
     43          6           0       -4.056929    4.518229    1.780348
     44          8           0       -5.217232    4.297201    2.077846
     45          8           0       -3.542386    5.679976    1.311905
     46          6           0       -4.518351    6.757122    1.002010
     47          6           0        2.799879    4.954989   -1.497105
     48          6           0        3.318769    3.582440   -1.167599
     49          6           0        4.295234    3.313627   -0.212735
     50          6           0        5.209699    4.392306    0.411949
     51          6           0        4.404654    1.905252    0.370337
     52          6           0        5.512059    1.068761   -0.209997
     53          6           0        5.062464   -0.090151   -1.125067
     54          6           0        6.136914   -0.563957   -2.138926
     55          6           0        5.520561   -0.876798   -3.500685
     56          6           0        6.910632   -1.749790   -1.563374
     57          6           0        8.118431   -1.392210   -0.723163
     58          6           0        8.074749   -1.931189    0.675267
     59          6           0        9.406257   -2.575538    1.138790
     60          6           0        9.168040   -3.640721    2.300001
     61          6           0       10.480515   -1.453967    1.564147
     62          6           0       11.215552   -0.811711    0.386095
     63          6           0       12.753079   -0.718524    0.559193
     64          6           0       13.508480   -1.938533    0.071797
     65          6           0       14.668816   -1.468077   -0.739542
     66          6           0       13.976771   -2.801518    1.353687
     67          1           0       -4.282118    0.418050   -4.180026
     68          1           0       -5.489303   -4.997312   -1.150501
     69          1           0       -4.603005   -2.136797    4.417683
     70          1           0       -3.404436    4.226638   -1.085841
     71          1           0       -2.919670    2.636960   -3.364133
     72          1           0       -5.539854    3.874736   -2.337596
     73          1           0       -5.530016    2.692730   -3.607750
     74          1           0       -4.449960    4.163056   -3.772747
     75          1           0       -1.141503    3.134987   -2.470881
     76          1           0       -0.778052    2.762178   -0.759107
     77          1           0       -0.712231    4.816450   -0.159438
     78          1           0       -1.598800    5.535313   -1.623937
     79          1           0       -5.320097   -0.848305   -5.537982
     80          1           0       -5.413646   -2.522525   -6.178462
     81          1           0       -3.875570   -1.705245   -5.851497
     82          1           0       -4.770949   -6.331102   -2.728644
     83          1           0       -5.736007   -6.916568   -4.002162
     84          1           0       -6.517158   -5.893734   -2.821331
     85          1           0       -4.627257   -5.693139    1.338962
     86          1           0       -5.912082   -4.244986    3.510288
     87          1           0       -7.519427   -5.372316    2.222642
     88          1           0       -6.929796   -6.566009    1.091874
     89          1           0       -7.350098   -4.860923    0.595685
     90          1           0       -2.932091   -4.310151    3.543353
     91          1           0       -3.464334   -5.879820    3.148576
     92          1           0       -3.839681   -6.345126    5.217573
     93          1           0       -5.009304   -4.980459    5.381425
     94          1           0       -3.308520   -4.711724    5.731940
     95          1           0       -3.197119   -0.485338    6.011396
     96          1           0       -4.892085   -0.290639    5.847830
     97          1           0       -3.835859    1.160096    6.222355
     98          1           0       -1.983385    3.920467    1.646693
     99          1           0       -5.449518    6.699348    1.564798
    100          1           0       -4.802038    6.913256   -0.038337
    101          1           0       -4.004378    7.577148    1.502840
    102          1           0        3.209383    5.827369   -0.988002
    103          1           0        2.900094    5.188477   -2.558000
    104          1           0        2.717941    2.729839   -1.483648
    105          1           0        6.258093    4.131526    0.266661
    106          1           0        4.941400    4.572347    1.453142
    107          1           0        4.962274    5.274054   -0.179425
    108          1           0        3.462135    1.406419    0.145336
    109          1           0        4.369153    2.071199    1.447312
    110          1           0        5.874463    0.717021    0.756620
    111          1           0        6.393610    1.517392   -0.669292
    112          1           0        4.173473    0.207947   -1.681721
    113          1           0        4.647192   -0.936055   -0.576184
    114          1           0        6.849015    0.255693   -2.230888
    115          1           0        4.438771   -1.003121   -3.549499
    116          1           0        5.989180   -1.734876   -3.982755
    117          1           0        5.666038    0.030180   -4.085886
    118          1           0        7.262557   -2.368898   -2.389188
    119          1           0        6.206750   -2.397164   -1.040172
    120          1           0        8.260153   -0.323402   -0.570590
    121          1           0        9.031903   -1.692094   -1.236756
    122          1           0        7.165690   -2.522910    0.786732
    123          1           0        7.725255   -1.115079    1.308909
    124          1           0        9.827692   -3.133122    0.302919
    125          1           0        8.540802   -3.342532    3.139520
    126          1           0       10.046519   -4.170506    2.671045
    127          1           0        8.544588   -4.428025    1.876744
    128          1           0       11.089603   -1.935373    2.329402
    129          1           0        9.968428   -0.622139    2.048048
    130          1           0       10.870736    0.206322    0.204348
    131          1           0       10.955697   -1.373639   -0.510956
    132          1           0       12.990068   -0.551828    1.610222
    133          1           0       13.101698    0.192108    0.071372
    134          1           0       12.872988   -2.649152   -0.455961
    135          1           0       14.248758   -1.126546   -1.684951
    136          1           0       15.387235   -2.276866   -0.871309
    137          1           0       15.135624   -0.633043   -0.216456
    138          1           0       13.088221   -3.402852    1.546595
    139          1           0       14.125310   -2.223668    2.266146
    140          1           0       14.790583   -3.464690    1.060918
 ---------------------------------------------------------------------

 SCF Done:  E(RZINDO/S) =  -474.355319359     A.U. after   18 cycles

 Excitation energies and oscillator strengths:

 Excited State   1:      Singlet-A      1.4704 eV  843.20 nm  f=0.5267  <S**2>=0.000
     175 ->178         0.13497
     176 ->177         0.67695
 This state for optimization and/or second-order correction.
 Total Energy, E(CIS/TDA) =  -474.301282873
 Copying the excited state density for this state as the 1-particle RhoCI density.

 Excited State   2:      Singlet-A      2.0187 eV  614.19 nm  f=0.0151  <S**2>=0.000
     175 ->177         0.50529
     176 ->178        -0.44473
     176 ->179         0.10812

 Excited State   3:      Singlet-A      3.0138 eV  411.38 nm  f=0.0035  <S**2>=0.000
     167 ->177         0.25627
     167 ->178        -0.20129
     167 ->179        -0.37122
     167 ->180         0.22649
     167 ->184         0.10059
     167 ->185         0.16986
     168 ->177         0.15678
     168 ->178        -0.11596
     168 ->179        -0.21028
     168 ->180         0.12447

 Excited State   4:      Singlet-A      3.0292 eV  409.30 nm  f=0.8976  <S**2>=0.000
     170 ->177         0.10553
     175 ->177         0.40137
     176 ->178         0.43227
     176 ->179        -0.23324
     176 ->180        -0.19426

 Excited State   5:      Singlet-A      3.0740 eV  403.33 nm  f=0.3063  <S**2>=0.000
     171 ->179         0.10415
     171 ->180         0.12245
     175 ->177         0.11709
     176 ->178         0.24532
     176 ->179         0.47527
     176 ->180         0.28265
     176 ->181         0.12853

 The electronic state is 1-A.
 Alpha  occ. eigenvalues --   -1.84674  -1.82928  -1.80444  -1.75206  -1.72098
 Alpha  occ. eigenvalues --   -1.70601  -1.66587  -1.61638  -1.58959  -1.57908
 Alpha  occ. eigenvalues --   -1.55088  -1.51968  -1.48345  -1.47192  -1.46676
 Alpha  occ. eigenvalues --   -1.45494  -1.43793  -1.40993  -1.38699  -1.36533
 Alpha  occ. eigenvalues --   -1.35435  -1.33834  -1.32319  -1.31610  -1.29738
 Alpha  occ. eigenvalues --   -1.29255  -1.27720  -1.23660  -1.20101  -1.17709
 Alpha  occ. eigenvalues --   -1.16942  -1.16446  -1.14338  -1.14059  -1.13353
 Alpha  occ. eigenvalues --   -1.13270  -1.10315  -1.09580  -1.05304  -1.03417
 Alpha  occ. eigenvalues --   -1.02820  -1.01082  -0.98541  -0.97451  -0.96690
 Alpha  occ. eigenvalues --   -0.95997  -0.94810  -0.94138  -0.93837  -0.93409
 Alpha  occ. eigenvalues --   -0.91418  -0.91052  -0.89593  -0.88502  -0.87923
 Alpha  occ. eigenvalues --   -0.86470  -0.84842  -0.83762  -0.82469  -0.80320
 Alpha  occ. eigenvalues --   -0.79886  -0.78815  -0.77248  -0.76995  -0.76670
 Alpha  occ. eigenvalues --   -0.76311  -0.75692  -0.75093  -0.74135  -0.73497
 Alpha  occ. eigenvalues --   -0.72875  -0.72151  -0.71398  -0.71311  -0.70630
 Alpha  occ. eigenvalues --   -0.70245  -0.69859  -0.68943  -0.68120  -0.67925
 Alpha  occ. eigenvalues --   -0.67763  -0.67017  -0.66423  -0.65837  -0.65407
 Alpha  occ. eigenvalues --   -0.65349  -0.64728  -0.64504  -0.63803  -0.63556
 Alpha  occ. eigenvalues --   -0.63066  -0.62814  -0.62479  -0.61995  -0.61953
 Alpha  occ. eigenvalues --   -0.61419  -0.61201  -0.60802  -0.60495  -0.60242
 Alpha  occ. eigenvalues --   -0.59833  -0.59652  -0.59548  -0.59011  -0.58690
 Alpha  occ. eigenvalues --   -0.58420  -0.57430  -0.56875  -0.56517  -0.56372
 Alpha  occ. eigenvalues --   -0.56117  -0.55531  -0.55480  -0.54999  -0.54780
 Alpha  occ. eigenvalues --   -0.53967  -0.53814  -0.53328  -0.53220  -0.52993
 Alpha  occ. eigenvalues --   -0.52900  -0.52426  -0.52235  -0.51657  -0.51475
 Alpha  occ. eigenvalues --   -0.51334  -0.51200  -0.50958  -0.50694  -0.50312
 Alpha  occ. eigenvalues --   -0.49880  -0.49829  -0.49707  -0.49439  -0.49141
 Alpha  occ. eigenvalues --   -0.49020  -0.48659  -0.48187  -0.48153  -0.48067
 Alpha  occ. eigenvalues --   -0.47963  -0.47573  -0.47327  -0.47173  -0.46939
 Alpha  occ. eigenvalues --   -0.46606  -0.46366  -0.46150  -0.45900  -0.45672
 Alpha  occ. eigenvalues --   -0.44950  -0.44851  -0.44499  -0.43958  -0.43834
 Alpha  occ. eigenvalues --   -0.43583  -0.43341  -0.42897  -0.42464  -0.42052
 Alpha  occ. eigenvalues --   -0.41454  -0.41250  -0.40771  -0.39780  -0.39092
 Alpha  occ. eigenvalues --   -0.38174  -0.37430  -0.36806  -0.35401  -0.34521
 Alpha  occ. eigenvalues --   -0.34261  -0.33138  -0.30848  -0.30348  -0.27570
 Alpha  occ. eigenvalues --   -0.22440
 Alpha virt. eigenvalues --   -0.08163  -0.02640  -0.01068   0.00856   0.01337
 Alpha virt. eigenvalues --    0.02054   0.02744   0.03335   0.04146   0.04695
 Alpha virt. eigenvalues --    0.05488   0.06370   0.07035   0.07328   0.07596

 Mulliken charges:
               1
     1  Mg   0.433337
     2  C   -0.010809
     3  C   -0.109939
     4  C   -0.090360
     5  C   -0.038147
     6  N   -0.289817
     7  C    0.068879
     8  C   -0.005523
     9  C   -0.009733
    10  C    0.197503
    11  C   -0.051070
    12  C   -0.018164
    13  C    0.004926
    14  C    0.462940
    15  O   -0.509414
    16  O   -0.271605
    17  N   -0.337548
    18  C    0.161962
    19  C    0.070463
    20  C   -0.047285
    21  C    0.147432
    22  C   -0.036299
    23  C    0.329514
    24  O   -0.499804
    25  C   -0.031351
    26  N   -0.231483
    27  C    0.174578
    28  C   -0.006534
    29  C   -0.011762
    30  C    0.069818
    31  C   -0.054082
    32  C   -0.032329
    33  C   -0.057280
    34  N   -0.322915
    35  C    0.075925
    36  C   -0.005774
    37  C   -0.061016
    38  C    0.084784
    39  C   -0.045984
    40  C    0.331515
    41  O   -0.539319
    42  C    0.056478
    43  C    0.496899
    44  O   -0.523331
    45  O   -0.267787
    46  C    0.065771
    47  C    0.111425
    48  C   -0.092544
    49  C   -0.032789
    50  C   -0.047925
    51  C   -0.014364
    52  C   -0.030148
    53  C   -0.033025
    54  C   -0.007392
    55  C   -0.058044
    56  C   -0.029257
    57  C   -0.032696
    58  C   -0.033345
    59  C   -0.009193
    60  C   -0.067876
    61  C   -0.035474
    62  C   -0.034959
    63  C   -0.030426
    64  C   -0.011468
    65  C   -0.049612
    66  C   -0.072461
    67  H    0.020407
    68  H    0.025952
    69  H    0.018498
    70  H    0.042084
    71  H    0.029236
    72  H    0.033085
    73  H    0.023019
    74  H    0.029390
    75  H    0.027482
    76  H    0.034871
    77  H    0.041104
    78  H    0.044317
    79  H    0.019485
    80  H    0.051605
    81  H    0.037929
    82  H    0.037934
    83  H    0.034008
    84  H    0.033901
    85  H    0.036664
    86  H    0.034310
    87  H    0.026843
    88  H    0.027006
    89  H    0.022143
    90  H    0.021817
    91  H    0.014382
    92  H    0.020591
    93  H    0.019966
    94  H    0.024169
    95  H    0.022770
    96  H    0.023285
    97  H    0.034047
    98  H    0.047432
    99  H    0.048958
   100  H    0.048153
   101  H    0.035074
   102  H    0.041156
   103  H    0.049824
   104  H    0.035463
   105  H    0.031247
   106  H    0.035096
   107  H    0.020325
   108  H    0.014454
   109  H    0.026806
   110  H    0.010394
   111  H    0.031024
   112  H    0.011470
   113  H    0.018827
   114  H    0.021845
   115  H    0.020287
   116  H    0.020173
   117  H    0.011394
   118  H    0.008001
   119  H    0.019542
   120  H    0.014845
   121  H    0.017597
   122  H    0.015411
   123  H    0.011746
   124  H    0.024542
   125  H    0.022873
   126  H    0.021272
   127  H    0.004711
   128  H    0.023959
   129  H    0.016654
   130  H    0.013786
   131  H    0.020860
   132  H    0.017417
   133  H    0.011986
   134  H    0.024164
   135  H    0.016714
   136  H    0.014854
   137  H    0.021491
   138  H    0.009300
   139  H    0.029400
   140  H    0.022488
 Sum of Mulliken charges =  -0.00000

 Dipole moment (field-independent basis, Debye):
    X=             -2.8163    Y=             -6.2092    Z=             -3.5314  Tot=              7.6783
 N-N= 4.408261815430D+03 E-N= 0.000000000000D+00  KE=-9.490489449602D+03
 Leave Link  601 at Wed May  4 19:32:37 2022, MaxMem=  6710886400 cpu:               1.1 elap:               0.1
 (Enter /sw/apps/gaussian-16.0/g16/l9999.exe)
 1\1\GINC-BP1-COMPUTE122\SP\RZINDO CIS\STO-3G\C55H74Mg1N4O6\OF15641\04-
 May-2022\0\\#p ZINDO=(nstates=5)\\step_301_chromophore_8 ZINDO\\0,1\Mg
 ,0,44.995,2.38,46.797\C,0,43.25,5.477,46.146\C,0,41.976,0.822,46.57\C,
 0,46.598,-0.461,46.749\C,0,47.9,4.191,46.408\N,0,42.93,3.068,46.339\C,
 0,42.404,4.375,46.191\C,0,40.881,4.442,46.047\C,0,40.536,2.963,46.609\
 C,0,41.879,2.237,46.542\C,0,39.78,2.921,48.025\C,0,40.385,4.585,44.536
 \C,0,39.423,5.747,44.36\C,0,38.554,5.699,43.147\O,0,37.411,5.328,43.06

 Normal termination of Gaussian 16 at Wed May  4 19:32:37 2022.
