 Gaussian 16, Revision A.03,
 Gaussian 16:  ES64L-G16RevA.03 25-Dec-2016

 ------------------------------
 #p blyp/Def2SVP td=(nstates=5)
 ------------------------------

 ---------------------------------------------------
 step_1601_chromophore_10 TDDFT with blyp functional
 ---------------------------------------------------
 Symbolic Z-matrix:
 Charge =  0 Multiplicity = 1

                         Standard orientation:
 ---------------------------------------------------------------------
 Center     Atomic      Atomic             Coordinates (Angstroms)
 Number     Number       Type             X           Y           Z
 ---------------------------------------------------------------------
      1         12           0        6.325930    0.508177    0.030138
      2          6           0        4.107650   -2.223757   -0.043704
      3          6           0        3.970308    2.406979   -1.486484
      4          6           0        8.621042    3.009233    0.251394
      5          6           0        8.853555   -1.688711    1.157638
      6          7           0        4.290269    0.092856   -0.682898
      7          6           0        3.494403   -1.083063   -0.560575
      8          6           0        2.017949   -0.812488   -0.741389
      9          6           0        2.138394    0.608521   -1.590089
     10          6           0        3.540785    1.119648   -1.113150
     11          6           0        2.117221    0.431391   -3.204597
     12          6           0        1.076149   -0.923028    0.534257
     13          6           0       -0.386918   -0.628999    0.226559
     14          6           0       -1.393933   -1.759812    0.392914
     15          8           0       -1.218572   -2.884935    0.943824
     16          8           0       -2.656588   -1.400168   -0.128025
     17          7           0        6.336436    2.464778   -0.488032
     18          6           0        5.215588    3.070020   -1.167952
     19          6           0        5.605964    4.467437   -1.493101
     20          6           0        6.821176    4.657744   -0.762716
     21          6           0        7.334841    3.364534   -0.223212
     22          6           0        4.703352    5.318352   -2.252836
     23          6           0        7.662044    5.969270   -0.584583
     24          8           0        8.741936    5.951667    0.077307
     25          6           0        7.200445    7.349665   -1.035148
     26          7           0        8.429604    0.663267    0.601392
     27          6           0        9.162677    1.787634    0.542988
     28          6           0       10.600617    1.504042    1.051447
     29          6           0       10.482317    0.151975    1.648789
     30          6           0        9.160781   -0.373050    1.079290
     31          6           0       11.528453    1.496908   -0.207712
     32          6           0       10.352897    0.140802    3.256908
     33          6           0        9.166980    0.830968    4.001321
     34          7           0        6.536306   -1.521103    0.472449
     35          6           0        7.610984   -2.286843    0.892412
     36          6           0        7.210836   -3.648683    1.154721
     37          6           0        5.850450   -3.660964    0.799432
     38          6           0        5.443525   -2.378105    0.455738
     39          6           0        7.995564   -4.846226    1.666386
     40          6           0        4.626062   -4.463778    0.708228
     41          8           0        4.441534   -5.591548    1.132540
     42          6           0        3.454304   -3.572606    0.169710
     43          6           0        2.722297   -4.156809   -0.985294
     44          8           0        3.201062   -4.445049   -2.087138
     45          8           0        1.387232   -3.953942   -0.781948
     46          6           0        0.420920   -3.988113   -1.903097
     47          6           0       -3.766743   -2.346786   -0.139522
     48          6           0       -4.830785   -1.747111   -1.064941
     49          6           0       -6.042529   -2.278001   -1.340225
     50          6           0       -6.431931   -3.653093   -0.801491
     51          6           0       -6.940180   -1.711056   -2.484332
     52          6           0       -8.384184   -1.561591   -1.909348
     53          6           0       -8.807952   -0.090692   -1.748852
     54          6           0      -10.351303    0.044750   -2.020623
     55          6           0      -10.540269    1.122622   -3.096470
     56          6           0      -11.222152    0.242072   -0.803679
     57          6           0      -12.695473   -0.306932   -0.971951
     58          6           0      -13.713499    0.894650   -1.284787
     59          6           0      -14.773450    1.189622   -0.154271
     60          6           0      -16.200660    1.084461   -0.697614
     61          6           0      -14.444322    2.556742    0.492042
     62          6           0      -13.357521    2.396969    1.610308
     63          6           0      -13.985566    2.780117    2.937249
     64          6           0      -13.734731    1.734429    4.042462
     65          6           0      -14.621477    0.485658    3.685716
     66          6           0      -14.045751    2.294327    5.442973
     67          1           0        3.280806    2.974781   -2.115943
     68          1           0        9.330994    3.830836    0.138865
     69          1           0        9.606090   -2.347494    1.595632
     70          1           0        1.743030   -1.506632   -1.535586
     71          1           0        1.344401    1.270232   -1.245121
     72          1           0        2.910111    0.824993   -3.841997
     73          1           0        1.247877    1.045373   -3.443185
     74          1           0        1.897896   -0.574558   -3.561985
     75          1           0        1.361825   -0.161501    1.258914
     76          1           0        1.276799   -1.926641    0.909207
     77          1           0       -0.453863   -0.230919   -0.785579
     78          1           0       -0.747521    0.141956    0.909074
     79          1           0        4.508688    6.160433   -1.589309
     80          1           0        3.839805    4.825701   -2.701801
     81          1           0        5.198462    5.642098   -3.168727
     82          1           0        7.904839    8.138756   -0.771012
     83          1           0        6.280527    7.414998   -0.453630
     84          1           0        7.065691    7.247430   -2.111394
     85          1           0       10.787081    2.172476    1.891518
     86          1           0       11.254364   -0.590589    1.445579
     87          1           0       11.105118    1.922628   -1.117623
     88          1           0       11.938970    0.497980   -0.355981
     89          1           0       12.422268    2.050524    0.079242
     90          1           0       11.215708    0.538975    3.791521
     91          1           0       10.410855   -0.889425    3.607265
     92          1           0        8.431968    1.151136    3.262059
     93          1           0        9.532741    1.765803    4.424561
     94          1           0        8.675184    0.221394    4.758970
     95          1           0        7.430015   -5.328634    2.464435
     96          1           0        9.039056   -4.579216    1.832543
     97          1           0        7.988430   -5.479127    0.779542
     98          1           0        2.771545   -3.652605    1.015251
     99          1           0        0.970323   -3.867981   -2.836560
    100          1           0       -0.344867   -3.215837   -1.826957
    101          1           0        0.015966   -4.999471   -1.915983
    102          1           0       -4.185463   -2.481892    0.857743
    103          1           0       -3.446276   -3.362100   -0.372388
    104          1           0       -4.407004   -0.870091   -1.556417
    105          1           0       -7.009666   -3.619483    0.121890
    106          1           0       -5.523114   -4.205373   -0.563819
    107          1           0       -7.026767   -4.111142   -1.591956
    108          1           0       -6.955849   -2.454854   -3.281104
    109          1           0       -6.510960   -0.745925   -2.752058
    110          1           0       -8.445954   -2.006634   -0.916178
    111          1           0       -9.067145   -2.075532   -2.585463
    112          1           0       -8.266582    0.645726   -2.342590
    113          1           0       -8.637710    0.295425   -0.743810
    114          1           0      -10.796937   -0.853775   -2.446517
    115          1           0       -9.736908    1.049448   -3.830247
    116          1           0      -10.469552    2.077155   -2.575968
    117          1           0      -11.598350    1.100046   -3.355122
    118          1           0      -11.252882    1.287451   -0.494823
    119          1           0      -10.850568   -0.358071    0.026799
    120          1           0      -13.041408   -0.775417   -0.050887
    121          1           0      -12.885771   -0.976486   -1.810277
    122          1           0      -14.197386    0.627397   -2.223716
    123          1           0      -13.150771    1.789946   -1.550350
    124          1           0      -14.860934    0.354049    0.538848
    125          1           0      -16.812173    0.560461    0.037520
    126          1           0      -16.211674    0.606407   -1.677063
    127          1           0      -16.776752    2.009680   -0.727770
    128          1           0      -15.361229    3.061014    0.797768
    129          1           0      -13.963462    3.275396   -0.170978
    130          1           0      -12.555080    3.113738    1.437223
    131          1           0      -12.921506    1.401026    1.687309
    132          1           0      -15.073001    2.845043    2.892550
    133          1           0      -13.760092    3.788049    3.287071
    134          1           0      -12.697784    1.401175    3.993262
    135          1           0      -15.079532    0.028283    4.561806
    136          1           0      -13.913919   -0.281923    3.370032
    137          1           0      -15.435155    0.608784    2.970446
    138          1           0      -13.092943    2.257746    5.970470
    139          1           0      -14.796883    1.828463    6.081093
    140          1           0      -14.293524    3.346544    5.304523
 ---------------------------------------------------------------------

 SCF Done:  E(RB-LYP) =  -3007.34629701     A.U. after   22 cycles

 Excitation energies and oscillator strengths:

 Excited State   1:      Singlet-A      1.7453 eV  710.38 nm  f=0.0275  <S**2>=0.000
     243 -> 247        0.51939
     244 -> 247       -0.17949
     245 -> 247        0.36105
     246 -> 247        0.24945
 This state for optimization and/or second-order correction.
 Total Energy, E(TD-HF/TD-DFT) =  -3007.28215716
 Copying the excited state density for this state as the 1-particle RhoCI density.

 Excited State   2:      Singlet-A      1.7773 eV  697.61 nm  f=0.0006  <S**2>=0.000
     243 -> 247        0.17791
     244 -> 247        0.68037

 Excited State   3:      Singlet-A      1.8228 eV  680.18 nm  f=0.2694  <S**2>=0.000
     243 -> 247       -0.21342
     245 -> 247       -0.13356
     245 -> 248        0.18088
     246 -> 247        0.64317
     246 <- 247       -0.13939

 Excited State   4:      Singlet-A      2.0440 eV  606.59 nm  f=0.0831  <S**2>=0.000
     243 -> 247       -0.37537
     245 -> 247        0.52900
     246 -> 248       -0.24385

 Excited State   5:      Singlet-A      2.3611 eV  525.10 nm  f=0.0000  <S**2>=0.000
     241 -> 247        0.70708

 The electronic state is 1-A.
 Alpha  occ. eigenvalues --  -46.26226 -18.82432 -18.81752 -18.77714 -18.76192
 Alpha  occ. eigenvalues --  -18.75281 -18.74983 -14.03430 -14.02318 -14.01240
 Alpha  occ. eigenvalues --  -14.00357 -10.05454 -10.03793 -10.00220  -9.98892
 Alpha  occ. eigenvalues --   -9.98436  -9.97951  -9.96774  -9.96637  -9.96595
 Alpha  occ. eigenvalues --   -9.96438  -9.95778  -9.95482  -9.95261  -9.95150
 Alpha  occ. eigenvalues --   -9.95008  -9.94888  -9.94707  -9.94279  -9.94060
 Alpha  occ. eigenvalues --   -9.94052  -9.93928  -9.93773  -9.93737  -9.93444
 Alpha  occ. eigenvalues --   -9.93427  -9.93377  -9.93250  -9.93205  -9.93190
 Alpha  occ. eigenvalues --   -9.92738  -9.92680  -9.92666  -9.92420  -9.92322
 Alpha  occ. eigenvalues --   -9.92213  -9.92076  -9.91980  -9.91960  -9.91952
 Alpha  occ. eigenvalues --   -9.91822  -9.91565  -9.91552  -9.91413  -9.91403
 Alpha  occ. eigenvalues --   -9.91326  -9.91256  -9.91134  -9.91103  -9.90957
 Alpha  occ. eigenvalues --   -9.90877  -9.90675  -9.90568  -9.90468  -9.90400
 Alpha  occ. eigenvalues --   -9.90400  -2.90894  -1.71335  -1.70767  -1.70605
 Alpha  occ. eigenvalues --   -0.97056  -0.96524  -0.90866  -0.89256  -0.88776
 Alpha  occ. eigenvalues --   -0.88638  -0.86452  -0.85280  -0.84455  -0.83433
 Alpha  occ. eigenvalues --   -0.75270  -0.73658  -0.73022  -0.72775  -0.72305
 Alpha  occ. eigenvalues --   -0.72147  -0.71579  -0.70858  -0.70667  -0.70110
 Alpha  occ. eigenvalues --   -0.69186  -0.69039  -0.67963  -0.67431  -0.66806
 Alpha  occ. eigenvalues --   -0.66255  -0.66047  -0.65642  -0.65216  -0.64651
 Alpha  occ. eigenvalues --   -0.64112  -0.62506  -0.62366  -0.61686  -0.60814
 Alpha  occ. eigenvalues --   -0.60516  -0.60158  -0.59896  -0.59557  -0.58931
 Alpha  occ. eigenvalues --   -0.58598  -0.57628  -0.56829  -0.56095  -0.54672
 Alpha  occ. eigenvalues --   -0.53677  -0.53335  -0.52398  -0.52080  -0.51549
 Alpha  occ. eigenvalues --   -0.51074  -0.50549  -0.50475  -0.50150  -0.49980
 Alpha  occ. eigenvalues --   -0.49857  -0.49355  -0.49111  -0.48350  -0.46579
 Alpha  occ. eigenvalues --   -0.46279  -0.45823  -0.45430  -0.44965  -0.44265
 Alpha  occ. eigenvalues --   -0.44007  -0.43758  -0.42893  -0.42663  -0.42044
 Alpha  occ. eigenvalues --   -0.41746  -0.41712  -0.41536  -0.41261  -0.41082
 Alpha  occ. eigenvalues --   -0.40929  -0.40504  -0.40374  -0.40189  -0.40038
 Alpha  occ. eigenvalues --   -0.39620  -0.39543  -0.39485  -0.39293  -0.38961
 Alpha  occ. eigenvalues --   -0.38809  -0.38750  -0.38557  -0.38319  -0.38183
 Alpha  occ. eigenvalues --   -0.37867  -0.37740  -0.37669  -0.37502  -0.37176
 Alpha  occ. eigenvalues --   -0.37153  -0.37023  -0.36772  -0.36709  -0.36667
 Alpha  occ. eigenvalues --   -0.36484  -0.36224  -0.35861  -0.35540  -0.35347
 Alpha  occ. eigenvalues --   -0.35307  -0.35243  -0.34914  -0.34728  -0.34650
 Alpha  occ. eigenvalues --   -0.34623  -0.34539  -0.34419  -0.34361  -0.34191
 Alpha  occ. eigenvalues --   -0.33944  -0.33809  -0.33635  -0.33449  -0.32938
 Alpha  occ. eigenvalues --   -0.32768  -0.32658  -0.32526  -0.32488  -0.32295
 Alpha  occ. eigenvalues --   -0.32157  -0.32003  -0.31670  -0.31576  -0.31549
 Alpha  occ. eigenvalues --   -0.31392  -0.30950  -0.30880  -0.30527  -0.30472
 Alpha  occ. eigenvalues --   -0.30236  -0.30161  -0.30105  -0.29885  -0.29768
 Alpha  occ. eigenvalues --   -0.29677  -0.29545  -0.29096  -0.28863  -0.28719
 Alpha  occ. eigenvalues --   -0.28590  -0.28358  -0.27951  -0.27695  -0.27618
 Alpha  occ. eigenvalues --   -0.27219  -0.27113  -0.26956  -0.26768  -0.26463
 Alpha  occ. eigenvalues --   -0.26149  -0.25928  -0.25627  -0.25625  -0.25540
 Alpha  occ. eigenvalues --   -0.25344  -0.24714  -0.23858  -0.23605  -0.23347
 Alpha  occ. eigenvalues --   -0.23047  -0.22317  -0.22255  -0.21188  -0.20500
 Alpha  occ. eigenvalues --   -0.20276  -0.19859  -0.18134  -0.18025  -0.17200
 Alpha  occ. eigenvalues --   -0.15911
 Alpha virt. eigenvalues --   -0.11599  -0.06743  -0.05996  -0.04549  -0.04262
 Alpha virt. eigenvalues --   -0.03462  -0.01930  -0.01782  -0.00944   0.00093
 Alpha virt. eigenvalues --    0.00996   0.01505   0.01902   0.02488   0.02680

 Mulliken charges:
               1
     1  Mg   0.675283
     2  C    0.070257
     3  C   -0.042706
     4  C   -0.032491
     5  C   -0.088839
     6  N   -0.233826
     7  C   -0.114239
     8  C    0.046410
     9  C   -0.058451
    10  C    0.059923
    11  C    0.099236
    12  C    0.197776
    13  C    0.099642
    14  C    0.108178
    15  O   -0.215451
    16  O   -0.303822
    17  N   -0.361738
    18  C    0.134854
    19  C   -0.129918
    20  C   -0.002318
    21  C    0.116521
    22  C    0.183051
    23  C   -0.072622
    24  O   -0.212288
    25  C    0.147234
    26  N   -0.179103
    27  C   -0.009027
    28  C    0.105292
    29  C    0.017518
    30  C    0.050374
    31  C    0.141228
    32  C    0.042925
    33  C    0.048605
    34  N   -0.279487
    35  C    0.113445
    36  C   -0.207323
    37  C    0.087235
    38  C    0.047009
    39  C    0.201070
    40  C   -0.072174
    41  O   -0.130279
    42  C    0.073501
    43  C    0.109369
    44  O   -0.188127
    45  O   -0.280902
    46  C    0.214672
    47  C    0.293246
    48  C   -0.116845
    49  C   -0.166034
    50  C    0.149319
    51  C    0.165096
    52  C    0.063998
    53  C    0.125080
    54  C   -0.090320
    55  C    0.120691
    56  C    0.094469
    57  C    0.050097
    58  C    0.064692
    59  C   -0.052557
    60  C    0.093376
    61  C    0.111303
    62  C    0.091341
    63  C    0.075568
    64  C   -0.120174
    65  C    0.086770
    66  C    0.127854
    67  H   -0.059308
    68  H   -0.036018
    69  H   -0.069305
    70  H   -0.042768
    71  H   -0.024706
    72  H    0.010281
    73  H   -0.010748
    74  H    0.007550
    75  H   -0.030437
    76  H    0.015140
    77  H    0.008273
    78  H    0.016567
    79  H    0.017320
    80  H   -0.014696
    81  H   -0.001232
    82  H    0.004042
    83  H    0.015770
    84  H    0.008158
    85  H   -0.023606
    86  H   -0.042443
    87  H    0.013299
    88  H   -0.012779
    89  H   -0.009002
    90  H   -0.027511
    91  H   -0.033948
    92  H    0.001720
    93  H   -0.009226
    94  H    0.003301
    95  H    0.023791
    96  H   -0.019583
    97  H    0.009815
    98  H    0.018416
    99  H    0.011314
   100  H    0.028089
   101  H    0.022501
   102  H   -0.003260
   103  H    0.007640
   104  H   -0.031966
   105  H    0.010391
   106  H   -0.010909
   107  H   -0.007500
   108  H   -0.013497
   109  H   -0.023984
   110  H   -0.016417
   111  H   -0.026952
   112  H   -0.044223
   113  H   -0.043344
   114  H   -0.038789
   115  H   -0.001905
   116  H   -0.034743
   117  H   -0.019479
   118  H   -0.020676
   119  H   -0.042279
   120  H   -0.025608
   121  H   -0.023718
   122  H   -0.043029
   123  H   -0.029945
   124  H   -0.026772
   125  H   -0.027885
   126  H   -0.013980
   127  H   -0.031155
   128  H   -0.031764
   129  H   -0.038068
   130  H   -0.031069
   131  H   -0.007253
   132  H   -0.039092
   133  H   -0.041919
   134  H   -0.031392
   135  H   -0.030450
   136  H   -0.020139
   137  H    0.002337
   138  H   -0.020948
   139  H   -0.009804
   140  H   -0.026938
 Sum of Mulliken charges =  -0.00000

 Dipole moment (field-independent basis, Debye):
    X=             -3.8542    Y=              4.6809    Z=             -1.7416  Tot=              6.3086
 Quadrupole moment (field-independent basis, Debye-Ang):
   XX=           -390.1223   YY=           -438.0569   ZZ=           -400.6915
   XY=             11.3374   XZ=              5.8404   YZ=             -6.1438

 Normal termination of Gaussian 16 at Wed May  4 10:33:31 2022.
