 Gaussian 16, Revision A.03,
 Gaussian 16:  ES64L-G16RevA.03 25-Dec-2016

 -----------------------------------
 #p cam-b3lyp/Def2SVP td=(nstates=5)
 -----------------------------------

 --------------------------------------------------------
 step_1601_chromophore_10 TDDFT with cam-b3lyp functional
 --------------------------------------------------------
 Symbolic Z-matrix:
 Charge =  0 Multiplicity = 1

                         Standard orientation:
 ---------------------------------------------------------------------
 Center     Atomic      Atomic             Coordinates (Angstroms)
 Number     Number       Type             X           Y           Z
 ---------------------------------------------------------------------
      1         12           0        6.325930    0.508177    0.030138
      2          6           0        4.107650   -2.223757   -0.043704
      3          6           0        3.970308    2.406979   -1.486484
      4          6           0        8.621042    3.009233    0.251394
      5          6           0        8.853555   -1.688711    1.157638
      6          7           0        4.290269    0.092856   -0.682898
      7          6           0        3.494403   -1.083063   -0.560575
      8          6           0        2.017949   -0.812488   -0.741389
      9          6           0        2.138394    0.608521   -1.590089
     10          6           0        3.540785    1.119648   -1.113150
     11          6           0        2.117221    0.431391   -3.204597
     12          6           0        1.076149   -0.923028    0.534257
     13          6           0       -0.386918   -0.628999    0.226559
     14          6           0       -1.393933   -1.759812    0.392914
     15          8           0       -1.218572   -2.884935    0.943824
     16          8           0       -2.656588   -1.400168   -0.128025
     17          7           0        6.336436    2.464778   -0.488032
     18          6           0        5.215588    3.070020   -1.167952
     19          6           0        5.605964    4.467437   -1.493101
     20          6           0        6.821176    4.657744   -0.762716
     21          6           0        7.334841    3.364534   -0.223212
     22          6           0        4.703352    5.318352   -2.252836
     23          6           0        7.662044    5.969270   -0.584583
     24          8           0        8.741936    5.951667    0.077307
     25          6           0        7.200445    7.349665   -1.035148
     26          7           0        8.429604    0.663267    0.601392
     27          6           0        9.162677    1.787634    0.542988
     28          6           0       10.600617    1.504042    1.051447
     29          6           0       10.482317    0.151975    1.648789
     30          6           0        9.160781   -0.373050    1.079290
     31          6           0       11.528453    1.496908   -0.207712
     32          6           0       10.352897    0.140802    3.256908
     33          6           0        9.166980    0.830968    4.001321
     34          7           0        6.536306   -1.521103    0.472449
     35          6           0        7.610984   -2.286843    0.892412
     36          6           0        7.210836   -3.648683    1.154721
     37          6           0        5.850450   -3.660964    0.799432
     38          6           0        5.443525   -2.378105    0.455738
     39          6           0        7.995564   -4.846226    1.666386
     40          6           0        4.626062   -4.463778    0.708228
     41          8           0        4.441534   -5.591548    1.132540
     42          6           0        3.454304   -3.572606    0.169710
     43          6           0        2.722297   -4.156809   -0.985294
     44          8           0        3.201062   -4.445049   -2.087138
     45          8           0        1.387232   -3.953942   -0.781948
     46          6           0        0.420920   -3.988113   -1.903097
     47          6           0       -3.766743   -2.346786   -0.139522
     48          6           0       -4.830785   -1.747111   -1.064941
     49          6           0       -6.042529   -2.278001   -1.340225
     50          6           0       -6.431931   -3.653093   -0.801491
     51          6           0       -6.940180   -1.711056   -2.484332
     52          6           0       -8.384184   -1.561591   -1.909348
     53          6           0       -8.807952   -0.090692   -1.748852
     54          6           0      -10.351303    0.044750   -2.020623
     55          6           0      -10.540269    1.122622   -3.096470
     56          6           0      -11.222152    0.242072   -0.803679
     57          6           0      -12.695473   -0.306932   -0.971951
     58          6           0      -13.713499    0.894650   -1.284787
     59          6           0      -14.773450    1.189622   -0.154271
     60          6           0      -16.200660    1.084461   -0.697614
     61          6           0      -14.444322    2.556742    0.492042
     62          6           0      -13.357521    2.396969    1.610308
     63          6           0      -13.985566    2.780117    2.937249
     64          6           0      -13.734731    1.734429    4.042462
     65          6           0      -14.621477    0.485658    3.685716
     66          6           0      -14.045751    2.294327    5.442973
     67          1           0        3.280806    2.974781   -2.115943
     68          1           0        9.330994    3.830836    0.138865
     69          1           0        9.606090   -2.347494    1.595632
     70          1           0        1.743030   -1.506632   -1.535586
     71          1           0        1.344401    1.270232   -1.245121
     72          1           0        2.910111    0.824993   -3.841997
     73          1           0        1.247877    1.045373   -3.443185
     74          1           0        1.897896   -0.574558   -3.561985
     75          1           0        1.361825   -0.161501    1.258914
     76          1           0        1.276799   -1.926641    0.909207
     77          1           0       -0.453863   -0.230919   -0.785579
     78          1           0       -0.747521    0.141956    0.909074
     79          1           0        4.508688    6.160433   -1.589309
     80          1           0        3.839805    4.825701   -2.701801
     81          1           0        5.198462    5.642098   -3.168727
     82          1           0        7.904839    8.138756   -0.771012
     83          1           0        6.280527    7.414998   -0.453630
     84          1           0        7.065691    7.247430   -2.111394
     85          1           0       10.787081    2.172476    1.891518
     86          1           0       11.254364   -0.590589    1.445579
     87          1           0       11.105118    1.922628   -1.117623
     88          1           0       11.938970    0.497980   -0.355981
     89          1           0       12.422268    2.050524    0.079242
     90          1           0       11.215708    0.538975    3.791521
     91          1           0       10.410855   -0.889425    3.607265
     92          1           0        8.431968    1.151136    3.262059
     93          1           0        9.532741    1.765803    4.424561
     94          1           0        8.675184    0.221394    4.758970
     95          1           0        7.430015   -5.328634    2.464435
     96          1           0        9.039056   -4.579216    1.832543
     97          1           0        7.988430   -5.479127    0.779542
     98          1           0        2.771545   -3.652605    1.015251
     99          1           0        0.970323   -3.867981   -2.836560
    100          1           0       -0.344867   -3.215837   -1.826957
    101          1           0        0.015966   -4.999471   -1.915983
    102          1           0       -4.185463   -2.481892    0.857743
    103          1           0       -3.446276   -3.362100   -0.372388
    104          1           0       -4.407004   -0.870091   -1.556417
    105          1           0       -7.009666   -3.619483    0.121890
    106          1           0       -5.523114   -4.205373   -0.563819
    107          1           0       -7.026767   -4.111142   -1.591956
    108          1           0       -6.955849   -2.454854   -3.281104
    109          1           0       -6.510960   -0.745925   -2.752058
    110          1           0       -8.445954   -2.006634   -0.916178
    111          1           0       -9.067145   -2.075532   -2.585463
    112          1           0       -8.266582    0.645726   -2.342590
    113          1           0       -8.637710    0.295425   -0.743810
    114          1           0      -10.796937   -0.853775   -2.446517
    115          1           0       -9.736908    1.049448   -3.830247
    116          1           0      -10.469552    2.077155   -2.575968
    117          1           0      -11.598350    1.100046   -3.355122
    118          1           0      -11.252882    1.287451   -0.494823
    119          1           0      -10.850568   -0.358071    0.026799
    120          1           0      -13.041408   -0.775417   -0.050887
    121          1           0      -12.885771   -0.976486   -1.810277
    122          1           0      -14.197386    0.627397   -2.223716
    123          1           0      -13.150771    1.789946   -1.550350
    124          1           0      -14.860934    0.354049    0.538848
    125          1           0      -16.812173    0.560461    0.037520
    126          1           0      -16.211674    0.606407   -1.677063
    127          1           0      -16.776752    2.009680   -0.727770
    128          1           0      -15.361229    3.061014    0.797768
    129          1           0      -13.963462    3.275396   -0.170978
    130          1           0      -12.555080    3.113738    1.437223
    131          1           0      -12.921506    1.401026    1.687309
    132          1           0      -15.073001    2.845043    2.892550
    133          1           0      -13.760092    3.788049    3.287071
    134          1           0      -12.697784    1.401175    3.993262
    135          1           0      -15.079532    0.028283    4.561806
    136          1           0      -13.913919   -0.281923    3.370032
    137          1           0      -15.435155    0.608784    2.970446
    138          1           0      -13.092943    2.257746    5.970470
    139          1           0      -14.796883    1.828463    6.081093
    140          1           0      -14.293524    3.346544    5.304523
 ---------------------------------------------------------------------

 SCF Done:  E(RCAM-B3LYP) =  -3007.12862217     A.U. after   17 cycles

 Excitation energies and oscillator strengths:

 Excited State   1:      Singlet-A      1.7276 eV  717.68 nm  f=0.3599  <S**2>=0.000
     245 -> 248       -0.17611
     246 -> 247        0.68657
     245 <- 248       -0.10652
 This state for optimization and/or second-order correction.
 Total Energy, E(TD-HF/TD-DFT) =  -3007.06513526
 Copying the excited state density for this state as the 1-particle RhoCI density.

 Excited State   2:      Singlet-A      2.2307 eV  555.81 nm  f=0.1280  <S**2>=0.000
     245 -> 247        0.64096
     246 -> 248        0.28455

 Excited State   3:      Singlet-A      3.2621 eV  380.07 nm  f=0.0038  <S**2>=0.000
     241 -> 247       -0.21912
     243 -> 247        0.18347
     244 -> 247        0.63458

 Excited State   4:      Singlet-A      3.3692 eV  367.99 nm  f=0.0031  <S**2>=0.000
     240 -> 247        0.50653
     240 -> 249        0.32909
     240 -> 250       -0.12533
     241 -> 247       -0.24458

 Excited State   5:      Singlet-A      3.4201 eV  362.52 nm  f=0.0157  <S**2>=0.000
     239 -> 247        0.15398
     240 -> 247        0.17124
     240 -> 249        0.11311
     241 -> 247        0.43754
     243 -> 247       -0.31638
     244 -> 247        0.24547
     246 -> 248       -0.23927

 The electronic state is 1-A.
 Alpha  occ. eigenvalues --  -46.87713 -19.25270 -19.24600 -19.20695 -19.19181
 Alpha  occ. eigenvalues --  -19.18858 -19.17887 -14.42524 -14.41000 -14.39931
 Alpha  occ. eigenvalues --  -14.38548 -10.40932 -10.39164 -10.35894 -10.33919
 Alpha  occ. eigenvalues --  -10.32421 -10.31986 -10.31675 -10.31620 -10.31352
 Alpha  occ. eigenvalues --  -10.30889 -10.30421 -10.29950 -10.29811 -10.29263
 Alpha  occ. eigenvalues --  -10.29165 -10.29022 -10.28920 -10.28759 -10.28384
 Alpha  occ. eigenvalues --  -10.28215 -10.28158 -10.28027 -10.27963 -10.27669
 Alpha  occ. eigenvalues --  -10.27333 -10.27328 -10.27260 -10.27069 -10.27032
 Alpha  occ. eigenvalues --  -10.27008 -10.26410 -10.26389 -10.26051 -10.26031
 Alpha  occ. eigenvalues --  -10.25864 -10.25693 -10.25678 -10.25660 -10.25633
 Alpha  occ. eigenvalues --  -10.25595 -10.25548 -10.25305 -10.25091 -10.24994
 Alpha  occ. eigenvalues --  -10.24922 -10.24883 -10.24811 -10.24758 -10.24701
 Alpha  occ. eigenvalues --  -10.24477 -10.24285 -10.24150 -10.24123 -10.24107
 Alpha  occ. eigenvalues --  -10.24000  -3.16290  -1.91209  -1.90733  -1.90603
 Alpha  occ. eigenvalues --   -1.15473  -1.14849  -1.09025  -1.07922  -1.06562
 Alpha  occ. eigenvalues --   -1.06447  -1.04089  -1.03005  -1.01795  -1.01192
 Alpha  occ. eigenvalues --   -0.92253  -0.90511  -0.89814  -0.89544  -0.89282
 Alpha  occ. eigenvalues --   -0.88858  -0.88193  -0.87407  -0.87235  -0.86813
 Alpha  occ. eigenvalues --   -0.85445  -0.85313  -0.84203  -0.83506  -0.83023
 Alpha  occ. eigenvalues --   -0.82432  -0.82246  -0.81497  -0.81038  -0.80604
 Alpha  occ. eigenvalues --   -0.79842  -0.78605  -0.77886  -0.77104  -0.76152
 Alpha  occ. eigenvalues --   -0.75854  -0.75524  -0.75162  -0.74860  -0.74153
 Alpha  occ. eigenvalues --   -0.73690  -0.72550  -0.71748  -0.70903  -0.69220
 Alpha  occ. eigenvalues --   -0.68148  -0.67861  -0.66794  -0.66477  -0.65811
 Alpha  occ. eigenvalues --   -0.65264  -0.64693  -0.64418  -0.64019  -0.63875
 Alpha  occ. eigenvalues --   -0.63809  -0.63332  -0.63068  -0.61986  -0.60116
 Alpha  occ. eigenvalues --   -0.60059  -0.59343  -0.58981  -0.58282  -0.57559
 Alpha  occ. eigenvalues --   -0.57381  -0.56957  -0.56085  -0.55983  -0.54933
 Alpha  occ. eigenvalues --   -0.54788  -0.54669  -0.54382  -0.54178  -0.53911
 Alpha  occ. eigenvalues --   -0.53630  -0.53482  -0.53413  -0.52847  -0.52702
 Alpha  occ. eigenvalues --   -0.52331  -0.52283  -0.52139  -0.51968  -0.51551
 Alpha  occ. eigenvalues --   -0.51355  -0.51245  -0.51073  -0.51004  -0.50715
 Alpha  occ. eigenvalues --   -0.50324  -0.50123  -0.49978  -0.49913  -0.49493
 Alpha  occ. eigenvalues --   -0.49395  -0.49147  -0.49109  -0.49001  -0.48769
 Alpha  occ. eigenvalues --   -0.48665  -0.48413  -0.48131  -0.47666  -0.47593
 Alpha  occ. eigenvalues --   -0.47190  -0.47088  -0.47078  -0.46831  -0.46733
 Alpha  occ. eigenvalues --   -0.46462  -0.46349  -0.46278  -0.46104  -0.45954
 Alpha  occ. eigenvalues --   -0.45912  -0.45668  -0.45383  -0.45032  -0.44685
 Alpha  occ. eigenvalues --   -0.44494  -0.44316  -0.44228  -0.43994  -0.43884
 Alpha  occ. eigenvalues --   -0.43775  -0.43512  -0.43477  -0.43345  -0.43073
 Alpha  occ. eigenvalues --   -0.43023  -0.42685  -0.42398  -0.42027  -0.41766
 Alpha  occ. eigenvalues --   -0.41576  -0.41526  -0.41447  -0.41206  -0.40951
 Alpha  occ. eigenvalues --   -0.40894  -0.40745  -0.40674  -0.40322  -0.40170
 Alpha  occ. eigenvalues --   -0.39567  -0.39217  -0.38842  -0.38545  -0.38437
 Alpha  occ. eigenvalues --   -0.38136  -0.37988  -0.37797  -0.37539  -0.37342
 Alpha  occ. eigenvalues --   -0.37188  -0.36861  -0.36768  -0.36621  -0.36275
 Alpha  occ. eigenvalues --   -0.36171  -0.36002  -0.34579  -0.34216  -0.34038
 Alpha  occ. eigenvalues --   -0.33832  -0.33785  -0.32754  -0.31482  -0.30554
 Alpha  occ. eigenvalues --   -0.30229  -0.29890  -0.29784  -0.28751  -0.24106
 Alpha  occ. eigenvalues --   -0.21286
 Alpha virt. eigenvalues --   -0.08755  -0.01595   0.00500   0.02842   0.03351
 Alpha virt. eigenvalues --    0.03832   0.04443   0.05306   0.05596   0.06386
 Alpha virt. eigenvalues --    0.07675   0.08050   0.08476   0.08669   0.09187

 Mulliken charges:
               1
     1  Mg   0.809630
     2  C    0.044160
     3  C   -0.063304
     4  C   -0.053331
     5  C   -0.089805
     6  N   -0.297992
     7  C   -0.069351
     8  C   -0.005334
     9  C   -0.107110
    10  C    0.079184
    11  C    0.044067
    12  C    0.145093
    13  C    0.027222
    14  C    0.190854
    15  O   -0.254947
    16  O   -0.371497
    17  N   -0.451595
    18  C    0.149592
    19  C   -0.131351
    20  C   -0.065786
    21  C    0.149098
    22  C    0.119116
    23  C    0.003933
    24  O   -0.250811
    25  C    0.072613
    26  N   -0.249739
    27  C    0.011818
    28  C    0.040771
    29  C   -0.037325
    30  C    0.058195
    31  C    0.083317
    32  C   -0.006193
    33  C   -0.008855
    34  N   -0.366497
    35  C    0.117339
    36  C   -0.211563
    37  C    0.014470
    38  C    0.075568
    39  C    0.151767
    40  C    0.030663
    41  O   -0.170571
    42  C   -0.012042
    43  C    0.200102
    44  O   -0.226535
    45  O   -0.345732
    46  C    0.179386
    47  C    0.264047
    48  C   -0.135916
    49  C   -0.183908
    50  C    0.083122
    51  C    0.105109
    52  C    0.005922
    53  C    0.070991
    54  C   -0.143756
    55  C    0.063538
    56  C    0.042925
    57  C   -0.003135
    58  C    0.018007
    59  C   -0.110717
    60  C    0.039515
    61  C    0.054768
    62  C    0.034634
    63  C    0.024895
    64  C   -0.174760
    65  C    0.027993
    66  C    0.065969
    67  H   -0.024534
    68  H    0.003199
    69  H   -0.034981
    70  H   -0.009144
    71  H    0.008387
    72  H    0.035767
    73  H    0.012181
    74  H    0.031876
    75  H    0.001362
    76  H    0.046487
    77  H    0.038307
    78  H    0.049316
    79  H    0.043421
    80  H    0.016323
    81  H    0.028321
    82  H    0.040120
    83  H    0.039971
    84  H    0.033701
    85  H    0.013168
    86  H   -0.004926
    87  H    0.037688
    88  H    0.013293
    89  H    0.016159
    90  H    0.000557
    91  H   -0.004978
    92  H    0.020062
    93  H    0.012506
    94  H    0.027756
    95  H    0.047766
    96  H    0.003076
    97  H    0.034191
    98  H    0.060314
    99  H    0.037445
   100  H    0.042785
   101  H    0.047006
   102  H    0.023512
   103  H    0.033910
   104  H    0.003711
   105  H    0.034404
   106  H    0.013300
   107  H    0.017362
   108  H    0.016378
   109  H    0.005240
   110  H    0.010237
   111  H    0.002741
   112  H   -0.014769
   113  H   -0.012676
   114  H   -0.008790
   115  H    0.022295
   116  H   -0.011025
   117  H    0.003045
   118  H    0.003224
   119  H   -0.011758
   120  H    0.001737
   121  H    0.004885
   122  H   -0.013952
   123  H   -0.005254
   124  H    0.002285
   125  H   -0.004276
   126  H    0.010139
   127  H   -0.006218
   128  H   -0.002789
   129  H   -0.007640
   130  H   -0.000932
   131  H    0.015356
   132  H   -0.011243
   133  H   -0.012182
   134  H    0.000149
   135  H   -0.004108
   136  H    0.002680
   137  H    0.021805
   138  H    0.003479
   139  H    0.014581
   140  H   -0.002724
 Sum of Mulliken charges =  -0.00000

 Dipole moment (field-independent basis, Debye):
    X=             -4.0904    Y=              6.1985    Z=             -2.2323  Tot=              7.7547
 Quadrupole moment (field-independent basis, Debye-Ang):
   XX=           -390.0037   YY=           -433.6357   ZZ=           -400.1249
   XY=             19.4892   XZ=              4.0024   YZ=             -7.8100

 Normal termination of Gaussian 16 at Wed May  4 09:38:25 2022.
