 Gaussian 16, Revision A.03,
 Gaussian 16:  ES64L-G16RevA.03 25-Dec-2016

 ---------------------------------
 #p PBE1PBE/Def2SVP td=(nstates=5)
 ---------------------------------

 ------------------------------------------------------
 step_1601_chromophore_10 TDDFT with PBE1PBE functional
 ------------------------------------------------------
 Symbolic Z-matrix:
 Charge =  0 Multiplicity = 1

                         Standard orientation:
 ---------------------------------------------------------------------
 Center     Atomic      Atomic             Coordinates (Angstroms)
 Number     Number       Type             X           Y           Z
 ---------------------------------------------------------------------
      1         12           0        6.325930    0.508177    0.030138
      2          6           0        4.107650   -2.223757   -0.043704
      3          6           0        3.970308    2.406979   -1.486484
      4          6           0        8.621042    3.009233    0.251394
      5          6           0        8.853555   -1.688711    1.157638
      6          7           0        4.290269    0.092856   -0.682898
      7          6           0        3.494403   -1.083063   -0.560575
      8          6           0        2.017949   -0.812488   -0.741389
      9          6           0        2.138394    0.608521   -1.590089
     10          6           0        3.540785    1.119648   -1.113150
     11          6           0        2.117221    0.431391   -3.204597
     12          6           0        1.076149   -0.923028    0.534257
     13          6           0       -0.386918   -0.628999    0.226559
     14          6           0       -1.393933   -1.759812    0.392914
     15          8           0       -1.218572   -2.884935    0.943824
     16          8           0       -2.656588   -1.400168   -0.128025
     17          7           0        6.336436    2.464778   -0.488032
     18          6           0        5.215588    3.070020   -1.167952
     19          6           0        5.605964    4.467437   -1.493101
     20          6           0        6.821176    4.657744   -0.762716
     21          6           0        7.334841    3.364534   -0.223212
     22          6           0        4.703352    5.318352   -2.252836
     23          6           0        7.662044    5.969270   -0.584583
     24          8           0        8.741936    5.951667    0.077307
     25          6           0        7.200445    7.349665   -1.035148
     26          7           0        8.429604    0.663267    0.601392
     27          6           0        9.162677    1.787634    0.542988
     28          6           0       10.600617    1.504042    1.051447
     29          6           0       10.482317    0.151975    1.648789
     30          6           0        9.160781   -0.373050    1.079290
     31          6           0       11.528453    1.496908   -0.207712
     32          6           0       10.352897    0.140802    3.256908
     33          6           0        9.166980    0.830968    4.001321
     34          7           0        6.536306   -1.521103    0.472449
     35          6           0        7.610984   -2.286843    0.892412
     36          6           0        7.210836   -3.648683    1.154721
     37          6           0        5.850450   -3.660964    0.799432
     38          6           0        5.443525   -2.378105    0.455738
     39          6           0        7.995564   -4.846226    1.666386
     40          6           0        4.626062   -4.463778    0.708228
     41          8           0        4.441534   -5.591548    1.132540
     42          6           0        3.454304   -3.572606    0.169710
     43          6           0        2.722297   -4.156809   -0.985294
     44          8           0        3.201062   -4.445049   -2.087138
     45          8           0        1.387232   -3.953942   -0.781948
     46          6           0        0.420920   -3.988113   -1.903097
     47          6           0       -3.766743   -2.346786   -0.139522
     48          6           0       -4.830785   -1.747111   -1.064941
     49          6           0       -6.042529   -2.278001   -1.340225
     50          6           0       -6.431931   -3.653093   -0.801491
     51          6           0       -6.940180   -1.711056   -2.484332
     52          6           0       -8.384184   -1.561591   -1.909348
     53          6           0       -8.807952   -0.090692   -1.748852
     54          6           0      -10.351303    0.044750   -2.020623
     55          6           0      -10.540269    1.122622   -3.096470
     56          6           0      -11.222152    0.242072   -0.803679
     57          6           0      -12.695473   -0.306932   -0.971951
     58          6           0      -13.713499    0.894650   -1.284787
     59          6           0      -14.773450    1.189622   -0.154271
     60          6           0      -16.200660    1.084461   -0.697614
     61          6           0      -14.444322    2.556742    0.492042
     62          6           0      -13.357521    2.396969    1.610308
     63          6           0      -13.985566    2.780117    2.937249
     64          6           0      -13.734731    1.734429    4.042462
     65          6           0      -14.621477    0.485658    3.685716
     66          6           0      -14.045751    2.294327    5.442973
     67          1           0        3.280806    2.974781   -2.115943
     68          1           0        9.330994    3.830836    0.138865
     69          1           0        9.606090   -2.347494    1.595632
     70          1           0        1.743030   -1.506632   -1.535586
     71          1           0        1.344401    1.270232   -1.245121
     72          1           0        2.910111    0.824993   -3.841997
     73          1           0        1.247877    1.045373   -3.443185
     74          1           0        1.897896   -0.574558   -3.561985
     75          1           0        1.361825   -0.161501    1.258914
     76          1           0        1.276799   -1.926641    0.909207
     77          1           0       -0.453863   -0.230919   -0.785579
     78          1           0       -0.747521    0.141956    0.909074
     79          1           0        4.508688    6.160433   -1.589309
     80          1           0        3.839805    4.825701   -2.701801
     81          1           0        5.198462    5.642098   -3.168727
     82          1           0        7.904839    8.138756   -0.771012
     83          1           0        6.280527    7.414998   -0.453630
     84          1           0        7.065691    7.247430   -2.111394
     85          1           0       10.787081    2.172476    1.891518
     86          1           0       11.254364   -0.590589    1.445579
     87          1           0       11.105118    1.922628   -1.117623
     88          1           0       11.938970    0.497980   -0.355981
     89          1           0       12.422268    2.050524    0.079242
     90          1           0       11.215708    0.538975    3.791521
     91          1           0       10.410855   -0.889425    3.607265
     92          1           0        8.431968    1.151136    3.262059
     93          1           0        9.532741    1.765803    4.424561
     94          1           0        8.675184    0.221394    4.758970
     95          1           0        7.430015   -5.328634    2.464435
     96          1           0        9.039056   -4.579216    1.832543
     97          1           0        7.988430   -5.479127    0.779542
     98          1           0        2.771545   -3.652605    1.015251
     99          1           0        0.970323   -3.867981   -2.836560
    100          1           0       -0.344867   -3.215837   -1.826957
    101          1           0        0.015966   -4.999471   -1.915983
    102          1           0       -4.185463   -2.481892    0.857743
    103          1           0       -3.446276   -3.362100   -0.372388
    104          1           0       -4.407004   -0.870091   -1.556417
    105          1           0       -7.009666   -3.619483    0.121890
    106          1           0       -5.523114   -4.205373   -0.563819
    107          1           0       -7.026767   -4.111142   -1.591956
    108          1           0       -6.955849   -2.454854   -3.281104
    109          1           0       -6.510960   -0.745925   -2.752058
    110          1           0       -8.445954   -2.006634   -0.916178
    111          1           0       -9.067145   -2.075532   -2.585463
    112          1           0       -8.266582    0.645726   -2.342590
    113          1           0       -8.637710    0.295425   -0.743810
    114          1           0      -10.796937   -0.853775   -2.446517
    115          1           0       -9.736908    1.049448   -3.830247
    116          1           0      -10.469552    2.077155   -2.575968
    117          1           0      -11.598350    1.100046   -3.355122
    118          1           0      -11.252882    1.287451   -0.494823
    119          1           0      -10.850568   -0.358071    0.026799
    120          1           0      -13.041408   -0.775417   -0.050887
    121          1           0      -12.885771   -0.976486   -1.810277
    122          1           0      -14.197386    0.627397   -2.223716
    123          1           0      -13.150771    1.789946   -1.550350
    124          1           0      -14.860934    0.354049    0.538848
    125          1           0      -16.812173    0.560461    0.037520
    126          1           0      -16.211674    0.606407   -1.677063
    127          1           0      -16.776752    2.009680   -0.727770
    128          1           0      -15.361229    3.061014    0.797768
    129          1           0      -13.963462    3.275396   -0.170978
    130          1           0      -12.555080    3.113738    1.437223
    131          1           0      -12.921506    1.401026    1.687309
    132          1           0      -15.073001    2.845043    2.892550
    133          1           0      -13.760092    3.788049    3.287071
    134          1           0      -12.697784    1.401175    3.993262
    135          1           0      -15.079532    0.028283    4.561806
    136          1           0      -13.913919   -0.281923    3.370032
    137          1           0      -15.435155    0.608784    2.970446
    138          1           0      -13.092943    2.257746    5.970470
    139          1           0      -14.796883    1.828463    6.081093
    140          1           0      -14.293524    3.346544    5.304523
 ---------------------------------------------------------------------

 SCF Done:  E(RPBE1PBE) =  -3005.31565608     A.U. after   16 cycles

 Excitation energies and oscillator strengths:

 Excited State   1:      Singlet-A      1.8625 eV  665.69 nm  f=0.3457  <S**2>=0.000
     245 -> 248        0.17358
     246 -> 247        0.69318
     246 <- 247       -0.10580
 This state for optimization and/or second-order correction.
 Total Energy, E(TD-HF/TD-DFT) =  -3005.24721080
 Copying the excited state density for this state as the 1-particle RhoCI density.

 Excited State   2:      Singlet-A      2.2313 eV  555.66 nm  f=0.1275  <S**2>=0.000
     245 -> 247        0.65218
     246 -> 248       -0.26078

 Excited State   3:      Singlet-A      2.8607 eV  433.41 nm  f=0.0035  <S**2>=0.000
     244 -> 247        0.68503

 Excited State   4:      Singlet-A      2.8698 eV  432.03 nm  f=0.0006  <S**2>=0.000
     242 -> 247        0.64812
     242 -> 249        0.17871
     243 -> 247       -0.17725

 Excited State   5:      Singlet-A      2.9325 eV  422.79 nm  f=0.0010  <S**2>=0.000
     242 -> 247        0.17409
     243 -> 247        0.65750
     244 -> 247        0.10302

 The electronic state is 1-A.
 Alpha  occ. eigenvalues --  -46.91115 -19.26015 -19.25319 -19.21016 -19.19487
 Alpha  occ. eigenvalues --  -19.18885 -19.18334 -14.41955 -14.40595 -14.39516
 Alpha  occ. eigenvalues --  -14.38407 -10.38025 -10.36241 -10.32858 -10.31294
 Alpha  occ. eigenvalues --  -10.29861 -10.29239 -10.29107 -10.29075 -10.28835
 Alpha  occ. eigenvalues --  -10.28751 -10.27971 -10.27606 -10.27217 -10.27203
 Alpha  occ. eigenvalues --  -10.26905 -10.26805 -10.26680 -10.26343 -10.26210
 Alpha  occ. eigenvalues --  -10.26176 -10.25694 -10.25622 -10.25404 -10.25189
 Alpha  occ. eigenvalues --  -10.25150 -10.25040 -10.25028 -10.24924 -10.24780
 Alpha  occ. eigenvalues --  -10.24138 -10.24000 -10.23803 -10.23803 -10.23623
 Alpha  occ. eigenvalues --  -10.23479 -10.23364 -10.23354 -10.23340 -10.23270
 Alpha  occ. eigenvalues --  -10.23219 -10.23205 -10.22901 -10.22797 -10.22580
 Alpha  occ. eigenvalues --  -10.22483 -10.22399 -10.22348 -10.22320 -10.22292
 Alpha  occ. eigenvalues --  -10.22126 -10.21868 -10.21695 -10.21658 -10.21534
 Alpha  occ. eigenvalues --  -10.21406  -3.13274  -1.86135  -1.85635  -1.85511
 Alpha  occ. eigenvalues --   -1.10301  -1.09677  -1.03981  -1.02405  -1.01434
 Alpha  occ. eigenvalues --   -1.01331  -0.98737  -0.97570  -0.96609  -0.95660
 Alpha  occ. eigenvalues --   -0.86732  -0.84636  -0.83956  -0.83686  -0.83420
 Alpha  occ. eigenvalues --   -0.82990  -0.82491  -0.81757  -0.81354  -0.81062
 Alpha  occ. eigenvalues --   -0.79909  -0.79610  -0.78401  -0.77864  -0.77205
 Alpha  occ. eigenvalues --   -0.76497  -0.76398  -0.75813  -0.75286  -0.74869
 Alpha  occ. eigenvalues --   -0.74055  -0.72700  -0.72225  -0.71477  -0.70539
 Alpha  occ. eigenvalues --   -0.70022  -0.69595  -0.69496  -0.69003  -0.68338
 Alpha  occ. eigenvalues --   -0.68006  -0.67063  -0.66121  -0.65256  -0.63575
 Alpha  occ. eigenvalues --   -0.62680  -0.62118  -0.61194  -0.60720  -0.60033
 Alpha  occ. eigenvalues --   -0.59702  -0.59193  -0.58937  -0.58634  -0.58299
 Alpha  occ. eigenvalues --   -0.58017  -0.57466  -0.57251  -0.56621  -0.54545
 Alpha  occ. eigenvalues --   -0.54462  -0.53891  -0.53526  -0.52910  -0.52071
 Alpha  occ. eigenvalues --   -0.51913  -0.51587  -0.50728  -0.50398  -0.49429
 Alpha  occ. eigenvalues --   -0.49378  -0.49172  -0.48810  -0.48753  -0.48439
 Alpha  occ. eigenvalues --   -0.48190  -0.47917  -0.47634  -0.47450  -0.47346
 Alpha  occ. eigenvalues --   -0.46906  -0.46815  -0.46715  -0.46397  -0.45950
 Alpha  occ. eigenvalues --   -0.45868  -0.45816  -0.45670  -0.45530  -0.45324
 Alpha  occ. eigenvalues --   -0.44820  -0.44684  -0.44613  -0.44455  -0.44079
 Alpha  occ. eigenvalues --   -0.43997  -0.43832  -0.43708  -0.43593  -0.43320
 Alpha  occ. eigenvalues --   -0.43262  -0.43107  -0.42750  -0.42315  -0.42183
 Alpha  occ. eigenvalues --   -0.41864  -0.41728  -0.41690  -0.41445  -0.41385
 Alpha  occ. eigenvalues --   -0.41087  -0.41052  -0.40965  -0.40829  -0.40671
 Alpha  occ. eigenvalues --   -0.40501  -0.40458  -0.40206  -0.39763  -0.39541
 Alpha  occ. eigenvalues --   -0.39277  -0.39182  -0.39010  -0.38732  -0.38655
 Alpha  occ. eigenvalues --   -0.38479  -0.38225  -0.38170  -0.38119  -0.37936
 Alpha  occ. eigenvalues --   -0.37835  -0.37434  -0.37403  -0.36950  -0.36543
 Alpha  occ. eigenvalues --   -0.36454  -0.36282  -0.36189  -0.36036  -0.35760
 Alpha  occ. eigenvalues --   -0.35719  -0.35626  -0.35435  -0.35277  -0.35013
 Alpha  occ. eigenvalues --   -0.34464  -0.34174  -0.33677  -0.33583  -0.33274
 Alpha  occ. eigenvalues --   -0.33070  -0.32718  -0.32554  -0.32357  -0.32354
 Alpha  occ. eigenvalues --   -0.31983  -0.31917  -0.31768  -0.31674  -0.31129
 Alpha  occ. eigenvalues --   -0.31041  -0.31035  -0.29411  -0.29245  -0.29208
 Alpha  occ. eigenvalues --   -0.28873  -0.28704  -0.28226  -0.26981  -0.25627
 Alpha  occ. eigenvalues --   -0.25173  -0.25143  -0.24976  -0.24560  -0.20994
 Alpha  occ. eigenvalues --   -0.18888
 Alpha virt. eigenvalues --   -0.11223  -0.05124  -0.03688  -0.01652  -0.01293
 Alpha virt. eigenvalues --   -0.00339   0.00858   0.01123   0.01326   0.02869
 Alpha virt. eigenvalues --    0.03728   0.04588   0.04687   0.05391   0.05561

 Mulliken charges:
               1
     1  Mg   0.963329
     2  C    0.019886
     3  C   -0.061697
     4  C   -0.045062
     5  C   -0.071994
     6  N   -0.396487
     7  C    0.010619
     8  C   -0.085189
     9  C   -0.180024
    10  C    0.115505
    11  C   -0.010613
    12  C    0.089958
    13  C   -0.050401
    14  C    0.254166
    15  O   -0.286596
    16  O   -0.403679
    17  N   -0.561598
    18  C    0.169166
    19  C   -0.163773
    20  C   -0.117760
    21  C    0.186340
    22  C    0.059478
    23  C    0.052400
    24  O   -0.285387
    25  C   -0.001307
    26  N   -0.351265
    27  C    0.039297
    28  C   -0.048273
    29  C   -0.111050
    30  C    0.089010
    31  C    0.031383
    32  C   -0.060989
    33  C   -0.083861
    34  N   -0.488005
    35  C    0.143587
    36  C   -0.229468
    37  C   -0.037743
    38  C    0.130829
    39  C    0.094051
    40  C    0.139378
    41  O   -0.215106
    42  C   -0.129100
    43  C    0.291481
    44  O   -0.262288
    45  O   -0.376654
    46  C    0.121254
    47  C    0.229823
    48  C   -0.148947
    49  C   -0.222098
    50  C    0.017225
    51  C    0.036327
    52  C   -0.059631
    53  C    0.021547
    54  C   -0.227733
    55  C   -0.002510
    56  C   -0.013857
    57  C   -0.065268
    58  C   -0.027329
    59  C   -0.200425
    60  C   -0.015366
    61  C   -0.002363
    62  C   -0.028492
    63  C   -0.027820
    64  C   -0.268524
    65  C   -0.030270
    66  C    0.006169
    67  H    0.007050
    68  H    0.035074
    69  H   -0.002965
    70  H    0.041132
    71  H    0.044195
    72  H    0.062079
    73  H    0.039375
    74  H    0.056861
    75  H    0.035578
    76  H    0.081596
    77  H    0.069658
    78  H    0.080993
    79  H    0.069636
    80  H    0.041285
    81  H    0.054932
    82  H    0.065749
    83  H    0.066328
    84  H    0.060157
    85  H    0.049490
    86  H    0.030903
    87  H    0.064773
    88  H    0.039814
    89  H    0.044565
    90  H    0.034821
    91  H    0.028023
    92  H    0.054194
    93  H    0.040392
    94  H    0.054914
    95  H    0.075572
    96  H    0.032288
    97  H    0.064439
    98  H    0.096425
    99  H    0.058208
   100  H    0.067785
   101  H    0.069391
   102  H    0.050843
   103  H    0.058201
   104  H    0.033835
   105  H    0.061199
   106  H    0.041300
   107  H    0.045295
   108  H    0.049773
   109  H    0.037440
   110  H    0.043998
   111  H    0.034626
   112  H    0.015809
   113  H    0.020658
   114  H    0.029644
   115  H    0.050240
   116  H    0.018312
   117  H    0.033766
   118  H    0.036117
   119  H    0.022280
   120  H    0.033555
   121  H    0.035761
   122  H    0.017388
   123  H    0.025912
   124  H    0.039748
   125  H    0.023056
   126  H    0.036744
   127  H    0.020959
   128  H    0.028019
   129  H    0.024739
   130  H    0.032294
   131  H    0.048601
   132  H    0.022054
   133  H    0.020112
   134  H    0.037521
   135  H    0.024306
   136  H    0.029616
   137  H    0.048398
   138  H    0.031537
   139  H    0.040611
   140  H    0.024821
 Sum of Mulliken charges =  -0.00000

 Dipole moment (field-independent basis, Debye):
    X=             -4.0109    Y=              5.5234    Z=             -1.9942  Tot=              7.1114
 Quadrupole moment (field-independent basis, Debye-Ang):
   XX=           -382.9444   YY=           -431.9598   ZZ=           -397.2475
   XY=             14.7950   XZ=              6.3297   YZ=             -8.0213

 Normal termination of Gaussian 16 at Wed May  4 09:55:15 2022.
