 Gaussian 16, Revision A.03,
 Gaussian 16:  ES64L-G16RevA.03 25-Dec-2016

 --------------------------------
 #p wB97XD/Def2SVP td=(nstates=5)
 --------------------------------

 -----------------------------------------------------
 step_1601_chromophore_10 TDDFT with wB97XD functional
 -----------------------------------------------------
 Symbolic Z-matrix:
 Charge =  0 Multiplicity = 1

                         Standard orientation:
 ---------------------------------------------------------------------
 Center     Atomic      Atomic             Coordinates (Angstroms)
 Number     Number       Type             X           Y           Z
 ---------------------------------------------------------------------
      1         12           0        6.325930    0.508177    0.030138
      2          6           0        4.107650   -2.223757   -0.043704
      3          6           0        3.970308    2.406979   -1.486484
      4          6           0        8.621042    3.009233    0.251394
      5          6           0        8.853555   -1.688711    1.157638
      6          7           0        4.290269    0.092856   -0.682898
      7          6           0        3.494403   -1.083063   -0.560575
      8          6           0        2.017949   -0.812488   -0.741389
      9          6           0        2.138394    0.608521   -1.590089
     10          6           0        3.540785    1.119648   -1.113150
     11          6           0        2.117221    0.431391   -3.204597
     12          6           0        1.076149   -0.923028    0.534257
     13          6           0       -0.386918   -0.628999    0.226559
     14          6           0       -1.393933   -1.759812    0.392914
     15          8           0       -1.218572   -2.884935    0.943824
     16          8           0       -2.656588   -1.400168   -0.128025
     17          7           0        6.336436    2.464778   -0.488032
     18          6           0        5.215588    3.070020   -1.167952
     19          6           0        5.605964    4.467437   -1.493101
     20          6           0        6.821176    4.657744   -0.762716
     21          6           0        7.334841    3.364534   -0.223212
     22          6           0        4.703352    5.318352   -2.252836
     23          6           0        7.662044    5.969270   -0.584583
     24          8           0        8.741936    5.951667    0.077307
     25          6           0        7.200445    7.349665   -1.035148
     26          7           0        8.429604    0.663267    0.601392
     27          6           0        9.162677    1.787634    0.542988
     28          6           0       10.600617    1.504042    1.051447
     29          6           0       10.482317    0.151975    1.648789
     30          6           0        9.160781   -0.373050    1.079290
     31          6           0       11.528453    1.496908   -0.207712
     32          6           0       10.352897    0.140802    3.256908
     33          6           0        9.166980    0.830968    4.001321
     34          7           0        6.536306   -1.521103    0.472449
     35          6           0        7.610984   -2.286843    0.892412
     36          6           0        7.210836   -3.648683    1.154721
     37          6           0        5.850450   -3.660964    0.799432
     38          6           0        5.443525   -2.378105    0.455738
     39          6           0        7.995564   -4.846226    1.666386
     40          6           0        4.626062   -4.463778    0.708228
     41          8           0        4.441534   -5.591548    1.132540
     42          6           0        3.454304   -3.572606    0.169710
     43          6           0        2.722297   -4.156809   -0.985294
     44          8           0        3.201062   -4.445049   -2.087138
     45          8           0        1.387232   -3.953942   -0.781948
     46          6           0        0.420920   -3.988113   -1.903097
     47          6           0       -3.766743   -2.346786   -0.139522
     48          6           0       -4.830785   -1.747111   -1.064941
     49          6           0       -6.042529   -2.278001   -1.340225
     50          6           0       -6.431931   -3.653093   -0.801491
     51          6           0       -6.940180   -1.711056   -2.484332
     52          6           0       -8.384184   -1.561591   -1.909348
     53          6           0       -8.807952   -0.090692   -1.748852
     54          6           0      -10.351303    0.044750   -2.020623
     55          6           0      -10.540269    1.122622   -3.096470
     56          6           0      -11.222152    0.242072   -0.803679
     57          6           0      -12.695473   -0.306932   -0.971951
     58          6           0      -13.713499    0.894650   -1.284787
     59          6           0      -14.773450    1.189622   -0.154271
     60          6           0      -16.200660    1.084461   -0.697614
     61          6           0      -14.444322    2.556742    0.492042
     62          6           0      -13.357521    2.396969    1.610308
     63          6           0      -13.985566    2.780117    2.937249
     64          6           0      -13.734731    1.734429    4.042462
     65          6           0      -14.621477    0.485658    3.685716
     66          6           0      -14.045751    2.294327    5.442973
     67          1           0        3.280806    2.974781   -2.115943
     68          1           0        9.330994    3.830836    0.138865
     69          1           0        9.606090   -2.347494    1.595632
     70          1           0        1.743030   -1.506632   -1.535586
     71          1           0        1.344401    1.270232   -1.245121
     72          1           0        2.910111    0.824993   -3.841997
     73          1           0        1.247877    1.045373   -3.443185
     74          1           0        1.897896   -0.574558   -3.561985
     75          1           0        1.361825   -0.161501    1.258914
     76          1           0        1.276799   -1.926641    0.909207
     77          1           0       -0.453863   -0.230919   -0.785579
     78          1           0       -0.747521    0.141956    0.909074
     79          1           0        4.508688    6.160433   -1.589309
     80          1           0        3.839805    4.825701   -2.701801
     81          1           0        5.198462    5.642098   -3.168727
     82          1           0        7.904839    8.138756   -0.771012
     83          1           0        6.280527    7.414998   -0.453630
     84          1           0        7.065691    7.247430   -2.111394
     85          1           0       10.787081    2.172476    1.891518
     86          1           0       11.254364   -0.590589    1.445579
     87          1           0       11.105118    1.922628   -1.117623
     88          1           0       11.938970    0.497980   -0.355981
     89          1           0       12.422268    2.050524    0.079242
     90          1           0       11.215708    0.538975    3.791521
     91          1           0       10.410855   -0.889425    3.607265
     92          1           0        8.431968    1.151136    3.262059
     93          1           0        9.532741    1.765803    4.424561
     94          1           0        8.675184    0.221394    4.758970
     95          1           0        7.430015   -5.328634    2.464435
     96          1           0        9.039056   -4.579216    1.832543
     97          1           0        7.988430   -5.479127    0.779542
     98          1           0        2.771545   -3.652605    1.015251
     99          1           0        0.970323   -3.867981   -2.836560
    100          1           0       -0.344867   -3.215837   -1.826957
    101          1           0        0.015966   -4.999471   -1.915983
    102          1           0       -4.185463   -2.481892    0.857743
    103          1           0       -3.446276   -3.362100   -0.372388
    104          1           0       -4.407004   -0.870091   -1.556417
    105          1           0       -7.009666   -3.619483    0.121890
    106          1           0       -5.523114   -4.205373   -0.563819
    107          1           0       -7.026767   -4.111142   -1.591956
    108          1           0       -6.955849   -2.454854   -3.281104
    109          1           0       -6.510960   -0.745925   -2.752058
    110          1           0       -8.445954   -2.006634   -0.916178
    111          1           0       -9.067145   -2.075532   -2.585463
    112          1           0       -8.266582    0.645726   -2.342590
    113          1           0       -8.637710    0.295425   -0.743810
    114          1           0      -10.796937   -0.853775   -2.446517
    115          1           0       -9.736908    1.049448   -3.830247
    116          1           0      -10.469552    2.077155   -2.575968
    117          1           0      -11.598350    1.100046   -3.355122
    118          1           0      -11.252882    1.287451   -0.494823
    119          1           0      -10.850568   -0.358071    0.026799
    120          1           0      -13.041408   -0.775417   -0.050887
    121          1           0      -12.885771   -0.976486   -1.810277
    122          1           0      -14.197386    0.627397   -2.223716
    123          1           0      -13.150771    1.789946   -1.550350
    124          1           0      -14.860934    0.354049    0.538848
    125          1           0      -16.812173    0.560461    0.037520
    126          1           0      -16.211674    0.606407   -1.677063
    127          1           0      -16.776752    2.009680   -0.727770
    128          1           0      -15.361229    3.061014    0.797768
    129          1           0      -13.963462    3.275396   -0.170978
    130          1           0      -12.555080    3.113738    1.437223
    131          1           0      -12.921506    1.401026    1.687309
    132          1           0      -15.073001    2.845043    2.892550
    133          1           0      -13.760092    3.788049    3.287071
    134          1           0      -12.697784    1.401175    3.993262
    135          1           0      -15.079532    0.028283    4.561806
    136          1           0      -13.913919   -0.281923    3.370032
    137          1           0      -15.435155    0.608784    2.970446
    138          1           0      -13.092943    2.257746    5.970470
    139          1           0      -14.796883    1.828463    6.081093
    140          1           0      -14.293524    3.346544    5.304523
 ---------------------------------------------------------------------

 SCF Done:  E(RwB97XD) =  -3007.82971316     A.U. after   19 cycles

 Excitation energies and oscillator strengths:

 Excited State   1:      Singlet-A      1.6839 eV  736.28 nm  f=0.3589  <S**2>=0.000
     245 -> 248       -0.18010
     246 -> 247        0.68446
     245 <- 248       -0.11446
 This state for optimization and/or second-order correction.
 Total Energy, E(TD-HF/TD-DFT) =  -3007.76783027
 Copying the excited state density for this state as the 1-particle RhoCI density.

 Excited State   2:      Singlet-A      2.1762 eV  569.72 nm  f=0.1239  <S**2>=0.000
     245 -> 247        0.63832
     246 -> 248        0.28676

 Excited State   3:      Singlet-A      3.2984 eV  375.90 nm  f=0.0049  <S**2>=0.000
     241 -> 247       -0.34443
     243 -> 247        0.19853
     244 -> 247        0.56214

 Excited State   4:      Singlet-A      3.3739 eV  367.48 nm  f=0.0029  <S**2>=0.000
     240 -> 247        0.47793
     240 -> 249        0.34712
     240 -> 250       -0.12620
     241 -> 247       -0.25817
     241 -> 249       -0.10767
     244 -> 247       -0.13036

 Excited State   5:      Singlet-A      3.4379 eV  360.63 nm  f=0.0348  <S**2>=0.000
     239 -> 247        0.15280
     240 -> 247        0.20961
     241 -> 247        0.41927
     243 -> 247       -0.13896
     244 -> 247        0.34041
     246 -> 248       -0.29494

 The electronic state is 1-A.
 Alpha  occ. eigenvalues --  -46.94052 -19.30543 -19.29801 -19.25653 -19.24119
 Alpha  occ. eigenvalues --  -19.23969 -19.22879 -14.47169 -14.45582 -14.44599
 Alpha  occ. eigenvalues --  -14.43131 -10.44791 -10.42990 -10.39950 -10.37885
 Alpha  occ. eigenvalues --  -10.36327 -10.35873 -10.35739 -10.35711 -10.35490
 Alpha  occ. eigenvalues --  -10.34897 -10.34488 -10.34183 -10.33936 -10.33206
 Alpha  occ. eigenvalues --  -10.33132 -10.33128 -10.33097 -10.32686 -10.32504
 Alpha  occ. eigenvalues --  -10.32354 -10.32098 -10.32007 -10.31965 -10.31690
 Alpha  occ. eigenvalues --  -10.31356 -10.31287 -10.31245 -10.31052 -10.31030
 Alpha  occ. eigenvalues --  -10.30969 -10.30367 -10.30242 -10.30009 -10.29974
 Alpha  occ. eigenvalues --  -10.29730 -10.29653 -10.29635 -10.29627 -10.29575
 Alpha  occ. eigenvalues --  -10.29552 -10.29468 -10.29248 -10.29074 -10.28938
 Alpha  occ. eigenvalues --  -10.28852 -10.28757 -10.28686 -10.28673 -10.28667
 Alpha  occ. eigenvalues --  -10.28320 -10.28118 -10.28094 -10.28018 -10.27954
 Alpha  occ. eigenvalues --  -10.27827  -3.20059  -1.93671  -1.93170  -1.93046
 Alpha  occ. eigenvalues --   -1.17625  -1.17043  -1.11206  -1.10193  -1.08762
 Alpha  occ. eigenvalues --   -1.08630  -1.06073  -1.05018  -1.03807  -1.03273
 Alpha  occ. eigenvalues --   -0.94197  -0.92311  -0.91619  -0.91353  -0.91260
 Alpha  occ. eigenvalues --   -0.90655  -0.90076  -0.89343  -0.89015  -0.88797
 Alpha  occ. eigenvalues --   -0.87341  -0.87210  -0.86068  -0.85434  -0.84937
 Alpha  occ. eigenvalues --   -0.84330  -0.84073  -0.83391  -0.82936  -0.82544
 Alpha  occ. eigenvalues --   -0.81705  -0.80638  -0.79786  -0.79014  -0.78075
 Alpha  occ. eigenvalues --   -0.77705  -0.77299  -0.77101  -0.76685  -0.75998
 Alpha  occ. eigenvalues --   -0.75611  -0.74521  -0.73709  -0.72854  -0.71117
 Alpha  occ. eigenvalues --   -0.70118  -0.69742  -0.68802  -0.68372  -0.67680
 Alpha  occ. eigenvalues --   -0.67262  -0.66722  -0.66350  -0.66022  -0.65776
 Alpha  occ. eigenvalues --   -0.65687  -0.65145  -0.64894  -0.63957  -0.62117
 Alpha  occ. eigenvalues --   -0.62031  -0.61298  -0.60986  -0.60279  -0.59483
 Alpha  occ. eigenvalues --   -0.59320  -0.58957  -0.58094  -0.57896  -0.56838
 Alpha  occ. eigenvalues --   -0.56728  -0.56601  -0.56255  -0.56092  -0.55807
 Alpha  occ. eigenvalues --   -0.55558  -0.55412  -0.55351  -0.54795  -0.54637
 Alpha  occ. eigenvalues --   -0.54272  -0.54199  -0.54065  -0.53827  -0.53547
 Alpha  occ. eigenvalues --   -0.53234  -0.53199  -0.52974  -0.52896  -0.52649
 Alpha  occ. eigenvalues --   -0.52290  -0.52024  -0.51865  -0.51800  -0.51404
 Alpha  occ. eigenvalues --   -0.51305  -0.51068  -0.50983  -0.50898  -0.50642
 Alpha  occ. eigenvalues --   -0.50580  -0.50322  -0.50094  -0.49571  -0.49542
 Alpha  occ. eigenvalues --   -0.49094  -0.49007  -0.48958  -0.48773  -0.48632
 Alpha  occ. eigenvalues --   -0.48342  -0.48261  -0.48184  -0.48009  -0.47822
 Alpha  occ. eigenvalues --   -0.47783  -0.47584  -0.47288  -0.46920  -0.46595
 Alpha  occ. eigenvalues --   -0.46427  -0.46245  -0.46126  -0.45856  -0.45817
 Alpha  occ. eigenvalues --   -0.45636  -0.45462  -0.45347  -0.45288  -0.45015
 Alpha  occ. eigenvalues --   -0.44971  -0.44576  -0.44330  -0.43935  -0.43632
 Alpha  occ. eigenvalues --   -0.43611  -0.43399  -0.43362  -0.43138  -0.42896
 Alpha  occ. eigenvalues --   -0.42799  -0.42668  -0.42552  -0.42283  -0.42050
 Alpha  occ. eigenvalues --   -0.41452  -0.41089  -0.40700  -0.40485  -0.40294
 Alpha  occ. eigenvalues --   -0.40031  -0.39820  -0.39629  -0.39376  -0.39272
 Alpha  occ. eigenvalues --   -0.39024  -0.38866  -0.38769  -0.38684  -0.38122
 Alpha  occ. eigenvalues --   -0.38033  -0.38025  -0.36491  -0.36075  -0.36040
 Alpha  occ. eigenvalues --   -0.35817  -0.35625  -0.34952  -0.33670  -0.32554
 Alpha  occ. eigenvalues --   -0.32430  -0.31921  -0.31753  -0.30855  -0.26036
 Alpha  occ. eigenvalues --   -0.23107
 Alpha virt. eigenvalues --   -0.07096   0.00310   0.02529   0.04962   0.05590
 Alpha virt. eigenvalues --    0.06572   0.06867   0.07727   0.07885   0.09142
 Alpha virt. eigenvalues --    0.10319   0.11218   0.11497   0.12077   0.12220

 Mulliken charges:
               1
     1  Mg   0.950364
     2  C    0.025420
     3  C   -0.076363
     4  C   -0.064260
     5  C   -0.092065
     6  N   -0.364586
     7  C   -0.028407
     8  C   -0.042928
     9  C   -0.156438
    10  C    0.101429
    11  C   -0.001834
    12  C    0.103167
    13  C   -0.031285
    14  C    0.240796
    15  O   -0.281531
    16  O   -0.401624
    17  N   -0.534856
    18  C    0.167156
    19  C   -0.148536
    20  C   -0.108036
    21  C    0.177546
    22  C    0.069050
    23  C    0.047560
    24  O   -0.278682
    25  C    0.011936
    26  N   -0.318924
    27  C    0.032739
    28  C   -0.021014
    29  C   -0.084139
    30  C    0.076518
    31  C    0.038166
    32  C   -0.049670
    33  C   -0.062451
    34  N   -0.452937
    35  C    0.132649
    36  C   -0.229201
    37  C   -0.029696
    38  C    0.109418
    39  C    0.107877
    40  C    0.113982
    41  O   -0.207658
    42  C   -0.085640
    43  C    0.267018
    44  O   -0.256542
    45  O   -0.373892
    46  C    0.138007
    47  C    0.239369
    48  C   -0.153200
    49  C   -0.211457
    50  C    0.029988
    51  C    0.055576
    52  C   -0.040561
    53  C    0.031797
    54  C   -0.194530
    55  C    0.014904
    56  C    0.003426
    57  C   -0.048452
    58  C   -0.013704
    59  C   -0.166767
    60  C   -0.003944
    61  C    0.015418
    62  C   -0.012440
    63  C   -0.009033
    64  C   -0.236802
    65  C   -0.018995
    66  C    0.016920
    67  H    0.000038
    68  H    0.030237
    69  H   -0.010304
    70  H    0.012747
    71  H    0.034428
    72  H    0.057021
    73  H    0.033179
    74  H    0.053462
    75  H    0.028827
    76  H    0.067415
    77  H    0.061313
    78  H    0.076256
    79  H    0.065474
    80  H    0.039928
    81  H    0.051913
    82  H    0.066471
    83  H    0.060275
    84  H    0.055000
    85  H    0.040703
    86  H    0.022337
    87  H    0.059132
    88  H    0.034723
    89  H    0.038998
    90  H    0.025904
    91  H    0.019577
    92  H    0.038709
    93  H    0.034012
    94  H    0.050935
    95  H    0.070431
    96  H    0.025287
    97  H    0.056861
    98  H    0.090033
    99  H    0.054544
   100  H    0.060293
   101  H    0.066836
   102  H    0.045808
   103  H    0.052823
   104  H    0.030686
   105  H    0.056270
   106  H    0.035013
   107  H    0.039627
   108  H    0.042835
   109  H    0.028963
   110  H    0.032960
   111  H    0.026978
   112  H    0.006638
   113  H    0.012912
   114  H    0.012558
   115  H    0.044484
   116  H    0.010036
   117  H    0.024933
   118  H    0.022382
   119  H    0.013945
   120  H    0.024888
   121  H    0.028540
   122  H    0.008832
   123  H    0.011671
   124  H    0.022715
   125  H    0.017284
   126  H    0.030673
   127  H    0.014920
   128  H    0.018930
   129  H    0.016817
   130  H    0.025762
   131  H    0.032477
   132  H    0.008336
   133  H    0.012039
   134  H    0.026907
   135  H    0.018709
   136  H    0.023340
   137  H    0.039695
   138  H    0.025887
   139  H    0.035918
   140  H    0.017697
 Sum of Mulliken charges =  -0.00000

 Dipole moment (field-independent basis, Debye):
    X=             -4.1571    Y=              6.4797    Z=             -2.2983  Tot=              8.0343
 Quadrupole moment (field-independent basis, Debye-Ang):
   XX=           -385.1528   YY=           -429.4128   ZZ=           -396.8197
   XY=             20.9588   XZ=              4.2960   YZ=             -8.4884

 Normal termination of Gaussian 16 at Wed May  4 10:21:22 2022.
