 Gaussian 16, Revision A.03,
 Gaussian 16:  ES64L-G16RevA.03 25-Dec-2016

 --------------------
 #p ZINDO=(nstates=5)
 --------------------

 ------------------------------
 step_1601_chromophore_10 ZINDO
 ------------------------------
 Symbolic Z-matrix:
 Charge =  0 Multiplicity = 1

                         Standard orientation:
 ---------------------------------------------------------------------
 Center     Atomic      Atomic             Coordinates (Angstroms)
 Number     Number       Type             X           Y           Z
 ---------------------------------------------------------------------
      1         12           0        6.325930    0.508177    0.030138
      2          6           0        4.107650   -2.223757   -0.043704
      3          6           0        3.970308    2.406979   -1.486484
      4          6           0        8.621042    3.009233    0.251394
      5          6           0        8.853555   -1.688711    1.157638
      6          7           0        4.290269    0.092856   -0.682898
      7          6           0        3.494403   -1.083063   -0.560575
      8          6           0        2.017949   -0.812488   -0.741389
      9          6           0        2.138394    0.608521   -1.590089
     10          6           0        3.540785    1.119648   -1.113150
     11          6           0        2.117221    0.431391   -3.204597
     12          6           0        1.076149   -0.923028    0.534257
     13          6           0       -0.386918   -0.628999    0.226559
     14          6           0       -1.393933   -1.759812    0.392914
     15          8           0       -1.218572   -2.884935    0.943824
     16          8           0       -2.656588   -1.400168   -0.128025
     17          7           0        6.336436    2.464778   -0.488032
     18          6           0        5.215588    3.070020   -1.167952
     19          6           0        5.605964    4.467437   -1.493101
     20          6           0        6.821176    4.657744   -0.762716
     21          6           0        7.334841    3.364534   -0.223212
     22          6           0        4.703352    5.318352   -2.252836
     23          6           0        7.662044    5.969270   -0.584583
     24          8           0        8.741936    5.951667    0.077307
     25          6           0        7.200445    7.349665   -1.035148
     26          7           0        8.429604    0.663267    0.601392
     27          6           0        9.162677    1.787634    0.542988
     28          6           0       10.600617    1.504042    1.051447
     29          6           0       10.482317    0.151975    1.648789
     30          6           0        9.160781   -0.373050    1.079290
     31          6           0       11.528453    1.496908   -0.207712
     32          6           0       10.352897    0.140802    3.256908
     33          6           0        9.166980    0.830968    4.001321
     34          7           0        6.536306   -1.521103    0.472449
     35          6           0        7.610984   -2.286843    0.892412
     36          6           0        7.210836   -3.648683    1.154721
     37          6           0        5.850450   -3.660964    0.799432
     38          6           0        5.443525   -2.378105    0.455738
     39          6           0        7.995564   -4.846226    1.666386
     40          6           0        4.626062   -4.463778    0.708228
     41          8           0        4.441534   -5.591548    1.132540
     42          6           0        3.454304   -3.572606    0.169710
     43          6           0        2.722297   -4.156809   -0.985294
     44          8           0        3.201062   -4.445049   -2.087138
     45          8           0        1.387232   -3.953942   -0.781948
     46          6           0        0.420920   -3.988113   -1.903097
     47          6           0       -3.766743   -2.346786   -0.139522
     48          6           0       -4.830785   -1.747111   -1.064941
     49          6           0       -6.042529   -2.278001   -1.340225
     50          6           0       -6.431931   -3.653093   -0.801491
     51          6           0       -6.940180   -1.711056   -2.484332
     52          6           0       -8.384184   -1.561591   -1.909348
     53          6           0       -8.807952   -0.090692   -1.748852
     54          6           0      -10.351303    0.044750   -2.020623
     55          6           0      -10.540269    1.122622   -3.096470
     56          6           0      -11.222152    0.242072   -0.803679
     57          6           0      -12.695473   -0.306932   -0.971951
     58          6           0      -13.713499    0.894650   -1.284787
     59          6           0      -14.773450    1.189622   -0.154271
     60          6           0      -16.200660    1.084461   -0.697614
     61          6           0      -14.444322    2.556742    0.492042
     62          6           0      -13.357521    2.396969    1.610308
     63          6           0      -13.985566    2.780117    2.937249
     64          6           0      -13.734731    1.734429    4.042462
     65          6           0      -14.621477    0.485658    3.685716
     66          6           0      -14.045751    2.294327    5.442973
     67          1           0        3.280806    2.974781   -2.115943
     68          1           0        9.330994    3.830836    0.138865
     69          1           0        9.606090   -2.347494    1.595632
     70          1           0        1.743030   -1.506632   -1.535586
     71          1           0        1.344401    1.270232   -1.245121
     72          1           0        2.910111    0.824993   -3.841997
     73          1           0        1.247877    1.045373   -3.443185
     74          1           0        1.897896   -0.574558   -3.561985
     75          1           0        1.361825   -0.161501    1.258914
     76          1           0        1.276799   -1.926641    0.909207
     77          1           0       -0.453863   -0.230919   -0.785579
     78          1           0       -0.747521    0.141956    0.909074
     79          1           0        4.508688    6.160433   -1.589309
     80          1           0        3.839805    4.825701   -2.701801
     81          1           0        5.198462    5.642098   -3.168727
     82          1           0        7.904839    8.138756   -0.771012
     83          1           0        6.280527    7.414998   -0.453630
     84          1           0        7.065691    7.247430   -2.111394
     85          1           0       10.787081    2.172476    1.891518
     86          1           0       11.254364   -0.590589    1.445579
     87          1           0       11.105118    1.922628   -1.117623
     88          1           0       11.938970    0.497980   -0.355981
     89          1           0       12.422268    2.050524    0.079242
     90          1           0       11.215708    0.538975    3.791521
     91          1           0       10.410855   -0.889425    3.607265
     92          1           0        8.431968    1.151136    3.262059
     93          1           0        9.532741    1.765803    4.424561
     94          1           0        8.675184    0.221394    4.758970
     95          1           0        7.430015   -5.328634    2.464435
     96          1           0        9.039056   -4.579216    1.832543
     97          1           0        7.988430   -5.479127    0.779542
     98          1           0        2.771545   -3.652605    1.015251
     99          1           0        0.970323   -3.867981   -2.836560
    100          1           0       -0.344867   -3.215837   -1.826957
    101          1           0        0.015966   -4.999471   -1.915983
    102          1           0       -4.185463   -2.481892    0.857743
    103          1           0       -3.446276   -3.362100   -0.372388
    104          1           0       -4.407004   -0.870091   -1.556417
    105          1           0       -7.009666   -3.619483    0.121890
    106          1           0       -5.523114   -4.205373   -0.563819
    107          1           0       -7.026767   -4.111142   -1.591956
    108          1           0       -6.955849   -2.454854   -3.281104
    109          1           0       -6.510960   -0.745925   -2.752058
    110          1           0       -8.445954   -2.006634   -0.916178
    111          1           0       -9.067145   -2.075532   -2.585463
    112          1           0       -8.266582    0.645726   -2.342590
    113          1           0       -8.637710    0.295425   -0.743810
    114          1           0      -10.796937   -0.853775   -2.446517
    115          1           0       -9.736908    1.049448   -3.830247
    116          1           0      -10.469552    2.077155   -2.575968
    117          1           0      -11.598350    1.100046   -3.355122
    118          1           0      -11.252882    1.287451   -0.494823
    119          1           0      -10.850568   -0.358071    0.026799
    120          1           0      -13.041408   -0.775417   -0.050887
    121          1           0      -12.885771   -0.976486   -1.810277
    122          1           0      -14.197386    0.627397   -2.223716
    123          1           0      -13.150771    1.789946   -1.550350
    124          1           0      -14.860934    0.354049    0.538848
    125          1           0      -16.812173    0.560461    0.037520
    126          1           0      -16.211674    0.606407   -1.677063
    127          1           0      -16.776752    2.009680   -0.727770
    128          1           0      -15.361229    3.061014    0.797768
    129          1           0      -13.963462    3.275396   -0.170978
    130          1           0      -12.555080    3.113738    1.437223
    131          1           0      -12.921506    1.401026    1.687309
    132          1           0      -15.073001    2.845043    2.892550
    133          1           0      -13.760092    3.788049    3.287071
    134          1           0      -12.697784    1.401175    3.993262
    135          1           0      -15.079532    0.028283    4.561806
    136          1           0      -13.913919   -0.281923    3.370032
    137          1           0      -15.435155    0.608784    2.970446
    138          1           0      -13.092943    2.257746    5.970470
    139          1           0      -14.796883    1.828463    6.081093
    140          1           0      -14.293524    3.346544    5.304523
 ---------------------------------------------------------------------

 SCF Done:  E(RZINDO/S) =  -473.868022479     A.U. after   19 cycles

 Excitation energies and oscillator strengths:

 Excited State   1:      Singlet-A      1.2885 eV  962.26 nm  f=0.5633  <S**2>=0.000
     175 ->178         0.17590
     176 ->177         0.66774
 This state for optimization and/or second-order correction.
 Total Energy, E(CIS/TDA) =  -473.820672187
 Copying the excited state density for this state as the 1-particle RhoCI density.

 Excited State   2:      Singlet-A      1.9476 eV  636.59 nm  f=0.0440  <S**2>=0.000
     175 ->177         0.54186
     176 ->178        -0.42565

 Excited State   3:      Singlet-A      2.8488 eV  435.22 nm  f=0.0058  <S**2>=0.000
     167 ->179        -0.12086
     168 ->177         0.31084
     168 ->179        -0.48247
     168 ->181         0.15279
     168 ->183        -0.14693
     168 ->186        -0.21101

 Excited State   4:      Singlet-A      3.0108 eV  411.79 nm  f=0.2413  <S**2>=0.000
     170 ->177         0.13009
     170 ->181         0.11729
     171 ->177         0.21074
     171 ->178        -0.14828
     171 ->179         0.15960
     171 ->181         0.28935
     171 ->182        -0.12965
     171 ->183        -0.17527
     171 ->186         0.18326
     171 ->188         0.13087
     174 ->177         0.10657
     175 ->177         0.17617
     176 ->178         0.23142

 Excited State   5:      Singlet-A      3.0425 eV  407.50 nm  f=0.9570  <S**2>=0.000
     171 ->177        -0.12683
     171 ->181        -0.13403
     175 ->177         0.34699
     176 ->178         0.45536
     176 ->179        -0.12990
     176 ->181        -0.15384

 The electronic state is 1-A.
 Alpha  occ. eigenvalues --   -1.83836  -1.81005  -1.77363  -1.71078  -1.69725
 Alpha  occ. eigenvalues --   -1.68630  -1.65922  -1.61892  -1.58035  -1.56256
 Alpha  occ. eigenvalues --   -1.54888  -1.51310  -1.48409  -1.45931  -1.44791
 Alpha  occ. eigenvalues --   -1.42834  -1.41629  -1.39639  -1.38491  -1.37101
 Alpha  occ. eigenvalues --   -1.34040  -1.32995  -1.31931  -1.31208  -1.30035
 Alpha  occ. eigenvalues --   -1.28063  -1.25194  -1.22374  -1.20588  -1.18344
 Alpha  occ. eigenvalues --   -1.16387  -1.16040  -1.15056  -1.14515  -1.13159
 Alpha  occ. eigenvalues --   -1.12469  -1.10762  -1.10364  -1.05431  -1.03965
 Alpha  occ. eigenvalues --   -1.03434  -1.00939  -0.98562  -0.98100  -0.96196
 Alpha  occ. eigenvalues --   -0.95699  -0.94483  -0.93770  -0.92794  -0.92235
 Alpha  occ. eigenvalues --   -0.91668  -0.89652  -0.88670  -0.87705  -0.87374
 Alpha  occ. eigenvalues --   -0.85940  -0.84673  -0.82629  -0.82310  -0.79835
 Alpha  occ. eigenvalues --   -0.79320  -0.79134  -0.76829  -0.76711  -0.75551
 Alpha  occ. eigenvalues --   -0.75242  -0.75085  -0.74800  -0.73647  -0.72913
 Alpha  occ. eigenvalues --   -0.72285  -0.72047  -0.71636  -0.71299  -0.70531
 Alpha  occ. eigenvalues --   -0.69410  -0.68988  -0.68293  -0.68139  -0.67537
 Alpha  occ. eigenvalues --   -0.67234  -0.66803  -0.66384  -0.65996  -0.65447
 Alpha  occ. eigenvalues --   -0.65282  -0.64802  -0.64475  -0.64225  -0.63809
 Alpha  occ. eigenvalues --   -0.63567  -0.62972  -0.62755  -0.62542  -0.61932
 Alpha  occ. eigenvalues --   -0.61482  -0.61134  -0.60746  -0.60593  -0.60122
 Alpha  occ. eigenvalues --   -0.59770  -0.59547  -0.59064  -0.58401  -0.58157
 Alpha  occ. eigenvalues --   -0.57936  -0.57530  -0.57113  -0.56942  -0.56835
 Alpha  occ. eigenvalues --   -0.56339  -0.55703  -0.55529  -0.55279  -0.55183
 Alpha  occ. eigenvalues --   -0.54631  -0.54340  -0.53999  -0.53320  -0.53155
 Alpha  occ. eigenvalues --   -0.52707  -0.52445  -0.52170  -0.51983  -0.51396
 Alpha  occ. eigenvalues --   -0.50946  -0.50830  -0.50549  -0.50483  -0.50044
 Alpha  occ. eigenvalues --   -0.49825  -0.49472  -0.49142  -0.48934  -0.48733
 Alpha  occ. eigenvalues --   -0.48565  -0.48281  -0.47877  -0.47679  -0.47442
 Alpha  occ. eigenvalues --   -0.47203  -0.47021  -0.46777  -0.46665  -0.46400
 Alpha  occ. eigenvalues --   -0.45998  -0.45913  -0.45594  -0.45417  -0.45213
 Alpha  occ. eigenvalues --   -0.44988  -0.44676  -0.44290  -0.44156  -0.43864
 Alpha  occ. eigenvalues --   -0.43645  -0.43523  -0.42203  -0.42044  -0.41989
 Alpha  occ. eigenvalues --   -0.41888  -0.40887  -0.40692  -0.39473  -0.38793
 Alpha  occ. eigenvalues --   -0.37782  -0.36702  -0.35469  -0.34525  -0.33788
 Alpha  occ. eigenvalues --   -0.33745  -0.32541  -0.32520  -0.31270  -0.26789
 Alpha  occ. eigenvalues --   -0.21839
 Alpha virt. eigenvalues --   -0.08466  -0.01970  -0.00445   0.00825   0.01626
 Alpha virt. eigenvalues --    0.01981   0.03046   0.03567   0.04120   0.04730
 Alpha virt. eigenvalues --    0.05871   0.06196   0.06623   0.07383   0.08061

 Mulliken charges:
               1
     1  Mg   0.416602
     2  C   -0.006078
     3  C   -0.080643
     4  C   -0.074070
     5  C   -0.062593
     6  N   -0.270174
     7  C    0.073217
     8  C   -0.010980
     9  C   -0.008966
    10  C    0.155190
    11  C   -0.052394
    12  C   -0.012666
    13  C    0.017289
    14  C    0.459570
    15  O   -0.520133
    16  O   -0.288337
    17  N   -0.338269
    18  C    0.097889
    19  C    0.039171
    20  C   -0.039259
    21  C    0.165766
    22  C   -0.033585
    23  C    0.307538
    24  O   -0.540026
    25  C   -0.024512
    26  N   -0.284397
    27  C    0.171267
    28  C    0.016117
    29  C    0.006610
    30  C    0.114720
    31  C   -0.048244
    32  C   -0.042327
    33  C   -0.056128
    34  N   -0.334571
    35  C    0.091209
    36  C    0.004579
    37  C   -0.046869
    38  C    0.079326
    39  C   -0.041328
    40  C    0.326901
    41  O   -0.525114
    42  C    0.058420
    43  C    0.489924
    44  O   -0.521014
    45  O   -0.276546
    46  C    0.074805
    47  C    0.105423
    48  C   -0.087704
    49  C   -0.021466
    50  C   -0.044493
    51  C   -0.026447
    52  C   -0.030352
    53  C   -0.036540
    54  C   -0.018379
    55  C   -0.065125
    56  C   -0.026745
    57  C   -0.049989
    58  C   -0.049005
    59  C   -0.011122
    60  C   -0.064786
    61  C   -0.030973
    62  C   -0.035534
    63  C   -0.033865
    64  C   -0.009598
    65  C   -0.063870
    66  C   -0.060989
    67  H    0.029600
    68  H    0.042223
    69  H    0.022075
    70  H    0.034534
    71  H    0.025609
    72  H    0.036371
    73  H    0.007793
    74  H    0.031772
    75  H    0.026041
    76  H    0.049924
    77  H    0.042435
    78  H    0.045587
    79  H    0.039777
    80  H    0.034470
    81  H    0.029197
    82  H    0.049566
    83  H    0.042301
    84  H    0.037696
    85  H    0.043936
    86  H    0.027257
    87  H    0.036806
    88  H    0.024931
    89  H    0.014715
    90  H    0.010109
    91  H    0.011806
    92  H    0.021416
    93  H    0.016205
    94  H    0.029139
    95  H    0.046909
    96  H    0.025365
    97  H    0.033020
    98  H    0.059342
    99  H    0.041965
   100  H    0.041816
   101  H    0.044830
   102  H    0.043915
   103  H    0.056148
   104  H    0.033357
   105  H    0.031337
   106  H    0.026246
   107  H    0.026069
   108  H    0.033335
   109  H    0.029455
   110  H    0.027602
   111  H    0.021810
   112  H    0.022398
   113  H    0.014856
   114  H    0.017211
   115  H    0.031622
   116  H    0.010261
   117  H    0.022678
   118  H    0.024474
   119  H    0.009469
   120  H    0.020582
   121  H    0.026041
   122  H    0.012078
   123  H    0.020068
   124  H    0.030993
   125  H    0.010347
   126  H    0.023661
   127  H    0.013994
   128  H    0.022735
   129  H    0.016294
   130  H    0.014819
   131  H    0.029979
   132  H    0.012567
   133  H    0.013229
   134  H    0.021721
   135  H    0.010658
   136  H    0.011451
   137  H    0.028428
   138  H    0.011646
   139  H    0.028285
   140  H    0.016311
 Sum of Mulliken charges =   0.00000

 Dipole moment (field-independent basis, Debye):
    X=             -5.6649    Y=             10.7709    Z=             -3.7137  Tot=             12.7238
 N-N= 4.199370094801D+03 E-N= 0.000000000000D+00  KE=-9.072983937195D+03
 Leave Link  601 at Wed May  4 10:33:37 2022, MaxMem=  6710886400 cpu:               0.8 elap:               0.0
 (Enter /sw/apps/gaussian-16.0/g16/l9999.exe)
 1\1\GINC-BP1-COMPUTE067\SP\RZINDO CIS\STO-3G\C55H74Mg1N4O6\OF15641\04-
 May-2022\0\\#p ZINDO=(nstates=5)\\step_1601_chromophore_10 ZINDO\\0,1\
 Mg,0,42.225,7.88,29.516\C,0,43.817,9.588,32.15\C,0,40.205,6.37,31.773\
 C,0,40.814,6.379,26.809\C,0,44.695,9.139,27.325\N,0,42.075,7.983,31.70
 5\C,0,42.768,8.809,32.637\C,0,42.051,8.925,33.963\C,0,41.135,7.545,33.
 86\C,0,41.047,7.364,32.306\C,0,41.81,6.237,34.547\C,0,41.385,10.32,34.
 333\C,0,40.694,10.313,35.691\C,0,41.256,11.213,36.784\O,0,42.12,12.13,

 Normal termination of Gaussian 16 at Wed May  4 10:33:38 2022.
