 Gaussian 16, Revision A.03,
 Gaussian 16:  ES64L-G16RevA.03 25-Dec-2016

 ------------------------------
 #p blyp/Def2SVP td=(nstates=5)
 ------------------------------

 ---------------------------------------------------
 step_1301_chromophore_12 TDDFT with blyp functional
 ---------------------------------------------------
 Symbolic Z-matrix:
 Charge =  0 Multiplicity = 1

                         Standard orientation:
 ---------------------------------------------------------------------
 Center     Atomic      Atomic             Coordinates (Angstroms)
 Number     Number       Type             X           Y           Z
 ---------------------------------------------------------------------
      1         12           0       -3.890025    0.842207   -0.502401
      2          6           0       -3.576974   -2.688608    0.327150
      3          6           0       -0.497589    1.022540   -0.140943
      4          6           0       -4.309176    4.068140   -0.939862
      5          6           0       -7.434821    0.386767    0.088944
      6          7           0       -2.209535   -0.725283    0.088078
      7          6           0       -2.388610   -2.068593    0.093965
      8          6           0       -0.969325   -2.757756    0.146173
      9          6           0        0.001799   -1.561225    0.401529
     10          6           0       -0.916493   -0.328942    0.048752
     11          6           0        0.595896   -1.503855    1.791237
     12          6           0       -0.684288   -3.647919   -1.146857
     13          6           0        0.056842   -4.957359   -0.938051
     14          6           0        1.339633   -5.097707   -1.818365
     15          8           0        1.329091   -5.353591   -3.017944
     16          8           0        2.424595   -5.106160   -0.950303
     17          7           0       -2.530901    2.364344   -0.624403
     18          6           0       -1.205043    2.281822   -0.395892
     19          6           0       -0.660249    3.641364   -0.582849
     20          6           0       -1.665883    4.515888   -0.812530
     21          6           0       -2.886676    3.708303   -0.824781
     22          6           0        0.899141    3.811961   -0.435290
     23          6           0       -1.654437    5.993909   -1.069659
     24          8           0       -2.679198    6.638768   -1.313268
     25          6           0       -0.323317    6.744374   -1.001095
     26          7           0       -5.595219    2.019415   -0.428923
     27          6           0       -5.529259    3.397481   -0.672587
     28          6           0       -6.906671    4.048622   -0.468366
     29          6           0       -7.852417    2.829327   -0.375315
     30          6           0       -6.907220    1.646592   -0.244461
     31          6           0       -7.139216    5.073382    0.583903
     32          6           0       -8.962093    2.693283   -1.395030
     33          6           0       -8.582464    2.265802   -2.865348
     34          7           0       -5.294332   -0.806053    0.078318
     35          6           0       -6.706262   -0.819384    0.175022
     36          6           0       -7.110910   -2.153832    0.495543
     37          6           0       -5.915131   -2.871031    0.593183
     38          6           0       -4.849375   -2.037332    0.341774
     39          6           0       -8.536889   -2.528178    0.589028
     40          6           0       -5.381181   -4.196253    0.916105
     41          8           0       -5.940523   -5.261918    1.175359
     42          6           0       -3.860161   -4.132192    0.761154
     43          6           0       -3.297820   -4.455942    2.110479
     44          8           0       -3.176811   -3.731880    3.050631
     45          8           0       -2.771948   -5.746662    2.069861
     46          6           0       -1.995314   -6.258665    3.135886
     47          6           0        3.661072   -5.174665   -1.739143
     48          6           0        4.841231   -5.100202   -0.731426
     49          6           0        5.962678   -4.384943   -0.945751
     50          6           0        6.196835   -3.816341   -2.325482
     51          6           0        7.022423   -4.398138    0.124222
     52          6           0        7.585450   -3.116485    0.613295
     53          6           0        8.999572   -2.658827    0.055921
     54          6           0        8.865257   -1.478449   -0.904153
     55          6           0        9.964550   -1.613417   -2.001716
     56          6           0        9.083766   -0.121037   -0.156381
     57          6           0        8.224639    1.048915   -0.670292
     58          6           0        8.981812    2.398841   -0.806486
     59          6           0        8.341167    3.562186   -0.050763
     60          6           0        9.142201    4.839351   -0.387624
     61          6           0        8.011373    3.327275    1.462169
     62          6           0        6.489024    3.233461    1.764350
     63          6           0        5.957780    4.276139    2.739233
     64          6           0        4.805412    5.113032    2.210956
     65          6           0        5.235807    6.510169    1.871617
     66          6           0        3.578910    5.149747    3.078864
     67          1           0        0.584270    1.034444    0.008355
     68          1           0       -4.458358    5.130212   -1.144400
     69          1           0       -8.466800    0.411004    0.447878
     70          1           0       -1.170774   -3.366907    1.027715
     71          1           0        0.814892   -1.534136   -0.323806
     72          1           0        1.436767   -2.198202    1.778020
     73          1           0       -0.070725   -1.749213    2.618333
     74          1           0        0.942704   -0.491890    1.998106
     75          1           0       -0.090181   -3.071134   -1.855659
     76          1           0       -1.650273   -3.867850   -1.600055
     77          1           0       -0.605061   -5.787627   -1.184250
     78          1           0        0.316995   -4.979956    0.120376
     79          1           0        1.358714    2.864345   -0.152170
     80          1           0        1.072584    4.615090    0.281229
     81          1           0        1.334957    4.019665   -1.412986
     82          1           0       -0.392823    7.792447   -1.294654
     83          1           0        0.389740    6.206796   -1.625428
     84          1           0       -0.002721    6.773357    0.040154
     85          1           0       -7.111694    4.601522   -1.386188
     86          1           0       -8.374295    2.875817    0.581100
     87          1           0       -6.180338    5.400729    0.985280
     88          1           0       -7.679511    4.702224    1.455058
     89          1           0       -7.614560    5.996961    0.253332
     90          1           0       -9.460334    3.655161   -1.523272
     91          1           0       -9.677925    1.971785   -1.002094
     92          1           0       -9.010088    1.342182   -3.255948
     93          1           0       -7.497811    2.194428   -2.943475
     94          1           0       -8.853273    3.018836   -3.604586
     95          1           0       -8.618000   -3.600869    0.765244
     96          1           0       -9.027396   -2.329231   -0.364048
     97          1           0       -9.014332   -1.931622    1.366439
     98          1           0       -3.409745   -4.840943    0.066253
     99          1           0       -1.585795   -7.177571    2.715431
    100          1           0       -2.611166   -6.437959    4.017490
    101          1           0       -1.173337   -5.547976    3.211081
    102          1           0        3.631942   -4.394070   -2.499306
    103          1           0        3.712040   -6.119413   -2.281795
    104          1           0        4.626279   -5.603134    0.211396
    105          1           0        5.812179   -4.397747   -3.164079
    106          1           0        7.277180   -3.691675   -2.395438
    107          1           0        5.812203   -2.797508   -2.286194
    108          1           0        7.789802   -5.085355   -0.231446
    109          1           0        6.567836   -4.784120    1.036529
    110          1           0        7.676564   -3.118532    1.699412
    111          1           0        6.787250   -2.401808    0.413958
    112          1           0        9.264607   -3.486849   -0.599919
    113          1           0        9.656601   -2.504076    0.912473
    114          1           0        7.855373   -1.380580   -1.303223
    115          1           0       10.708604   -2.408315   -1.956916
    116          1           0       10.468772   -0.660675   -2.167722
    117          1           0        9.440164   -1.882656   -2.918161
    118          1           0       10.111203    0.228004   -0.050508
    119          1           0        8.777812   -0.276598    0.877661
    120          1           0        7.348688    1.162979   -0.032029
    121          1           0        7.773195    0.781326   -1.625452
    122          1           0        9.045814    2.602102   -1.875929
    123          1           0       10.003638    2.265865   -0.452125
    124          1           0        7.461950    3.796590   -0.651531
    125          1           0        8.524918    5.503352   -0.991831
    126          1           0        9.942555    4.604832   -1.088784
    127          1           0        9.644079    5.317573    0.453660
    128          1           0        8.422038    4.222310    1.930694
    129          1           0        8.500031    2.381612    1.696256
    130          1           0        6.479222    2.306894    2.338080
    131          1           0        5.777121    3.144449    0.943314
    132          1           0        6.844813    4.866238    2.972903
    133          1           0        5.681117    3.769529    3.663965
    134          1           0        4.478198    4.664417    1.273122
    135          1           0        4.585448    6.785362    1.040718
    136          1           0        6.297542    6.580079    1.631833
    137          1           0        4.981257    7.331480    2.540648
    138          1           0        3.595181    4.557927    3.994100
    139          1           0        2.694926    4.715274    2.610613
    140          1           0        3.272069    6.160753    3.346082
 ---------------------------------------------------------------------

 SCF Done:  E(RB-LYP) =  -3007.36700758     A.U. after   21 cycles

 Excitation energies and oscillator strengths:

 Excited State   1:      Singlet-A      1.7993 eV  689.05 nm  f=0.2693  <S**2>=0.000
     244 -> 247       -0.17184
     245 -> 248        0.17497
     246 -> 247        0.66469
     246 <- 247       -0.14510
 This state for optimization and/or second-order correction.
 Total Energy, E(TD-HF/TD-DFT) =  -3007.30088273
 Copying the excited state density for this state as the 1-particle RhoCI density.

 Excited State   2:      Singlet-A      1.8279 eV  678.29 nm  f=0.0416  <S**2>=0.000
     244 -> 247        0.62046
     245 -> 247       -0.27411
     246 -> 247        0.18123

 Excited State   3:      Singlet-A      1.9848 eV  624.67 nm  f=0.0669  <S**2>=0.000
     243 -> 247        0.19474
     244 -> 247        0.27956
     245 -> 247        0.56693
     246 -> 248       -0.19901
     246 -> 249       -0.10384

 Excited State   4:      Singlet-A      2.0432 eV  606.81 nm  f=0.0063  <S**2>=0.000
     243 -> 247        0.67891
     245 -> 247       -0.16297

 Excited State   5:      Singlet-A      2.3948 eV  517.72 nm  f=0.0002  <S**2>=0.000
     241 -> 247        0.70670

 The electronic state is 1-A.
 Alpha  occ. eigenvalues --  -46.28169 -18.82996 -18.80721 -18.77986 -18.77035
 Alpha  occ. eigenvalues --  -18.76183 -18.75335 -14.03512 -14.02935 -14.01825
 Alpha  occ. eigenvalues --  -14.00238 -10.04601 -10.03719 -10.00591  -9.99361
 Alpha  occ. eigenvalues --   -9.97920  -9.97406  -9.97104  -9.96912  -9.96854
 Alpha  occ. eigenvalues --   -9.96595  -9.96544  -9.96181  -9.94998  -9.94510
 Alpha  occ. eigenvalues --   -9.94357  -9.94337  -9.93965  -9.93908  -9.93838
 Alpha  occ. eigenvalues --   -9.93688  -9.93677  -9.93514  -9.93462  -9.93271
 Alpha  occ. eigenvalues --   -9.93261  -9.93145  -9.93028  -9.93023  -9.93017
 Alpha  occ. eigenvalues --   -9.92970  -9.92962  -9.92894  -9.92516  -9.92411
 Alpha  occ. eigenvalues --   -9.92369  -9.92051  -9.92017  -9.91925  -9.91914
 Alpha  occ. eigenvalues --   -9.91808  -9.91768  -9.91699  -9.91685  -9.91541
 Alpha  occ. eigenvalues --   -9.91511  -9.91146  -9.91083  -9.91074  -9.91037
 Alpha  occ. eigenvalues --   -9.91015  -9.90788  -9.90763  -9.90646  -9.90644
 Alpha  occ. eigenvalues --   -9.90627  -2.92613  -1.73039  -1.72496  -1.72327
 Alpha  occ. eigenvalues --   -0.97994  -0.97972  -0.91484  -0.90886  -0.90717
 Alpha  occ. eigenvalues --   -0.90630  -0.86186  -0.85651  -0.85328  -0.84653
 Alpha  occ. eigenvalues --   -0.75534  -0.74372  -0.73613  -0.72732  -0.72710
 Alpha  occ. eigenvalues --   -0.72402  -0.71517  -0.71293  -0.71002  -0.70635
 Alpha  occ. eigenvalues --   -0.69877  -0.69249  -0.68439  -0.67681  -0.67388
 Alpha  occ. eigenvalues --   -0.67103  -0.65894  -0.65385  -0.65242  -0.64773
 Alpha  occ. eigenvalues --   -0.64520  -0.62856  -0.62113  -0.61925  -0.61125
 Alpha  occ. eigenvalues --   -0.60702  -0.60616  -0.60013  -0.59953  -0.59413
 Alpha  occ. eigenvalues --   -0.58213  -0.57827  -0.56522  -0.55558  -0.55240
 Alpha  occ. eigenvalues --   -0.53839  -0.53450  -0.53080  -0.52522  -0.51757
 Alpha  occ. eigenvalues --   -0.51619  -0.50808  -0.50520  -0.50286  -0.50226
 Alpha  occ. eigenvalues --   -0.50087  -0.50001  -0.48590  -0.47907  -0.46424
 Alpha  occ. eigenvalues --   -0.46333  -0.46139  -0.45498  -0.44881  -0.44517
 Alpha  occ. eigenvalues --   -0.44246  -0.43619  -0.43119  -0.43068  -0.42816
 Alpha  occ. eigenvalues --   -0.42508  -0.42472  -0.42086  -0.41557  -0.41464
 Alpha  occ. eigenvalues --   -0.41303  -0.40934  -0.40588  -0.40365  -0.40230
 Alpha  occ. eigenvalues --   -0.40036  -0.39956  -0.39869  -0.39683  -0.39594
 Alpha  occ. eigenvalues --   -0.39415  -0.39166  -0.38835  -0.38697  -0.38487
 Alpha  occ. eigenvalues --   -0.38318  -0.38112  -0.37994  -0.37847  -0.37596
 Alpha  occ. eigenvalues --   -0.37420  -0.37281  -0.37058  -0.36928  -0.36693
 Alpha  occ. eigenvalues --   -0.36631  -0.36432  -0.36384  -0.35959  -0.35824
 Alpha  occ. eigenvalues --   -0.35558  -0.35377  -0.34994  -0.34884  -0.34791
 Alpha  occ. eigenvalues --   -0.34522  -0.34331  -0.34202  -0.34177  -0.33972
 Alpha  occ. eigenvalues --   -0.33671  -0.33464  -0.33399  -0.33307  -0.33117
 Alpha  occ. eigenvalues --   -0.33014  -0.32966  -0.32869  -0.32721  -0.32508
 Alpha  occ. eigenvalues --   -0.32192  -0.32135  -0.32061  -0.31940  -0.31714
 Alpha  occ. eigenvalues --   -0.31514  -0.31376  -0.31096  -0.30978  -0.30901
 Alpha  occ. eigenvalues --   -0.30755  -0.30695  -0.30606  -0.30434  -0.30130
 Alpha  occ. eigenvalues --   -0.30031  -0.29491  -0.29169  -0.28714  -0.28627
 Alpha  occ. eigenvalues --   -0.28578  -0.28471  -0.28350  -0.28227  -0.28190
 Alpha  occ. eigenvalues --   -0.27910  -0.27835  -0.26997  -0.26631  -0.26377
 Alpha  occ. eigenvalues --   -0.26366  -0.26107  -0.26019  -0.25680  -0.25009
 Alpha  occ. eigenvalues --   -0.24812  -0.24699  -0.24509  -0.24330  -0.23667
 Alpha  occ. eigenvalues --   -0.23226  -0.22611  -0.22359  -0.22076  -0.21601
 Alpha  occ. eigenvalues --   -0.20586  -0.20030  -0.19208  -0.18460  -0.17245
 Alpha  occ. eigenvalues --   -0.16028
 Alpha virt. eigenvalues --   -0.11785  -0.07230  -0.06034  -0.04953  -0.03890
 Alpha virt. eigenvalues --   -0.02936  -0.02158  -0.02125  -0.01404  -0.00362
 Alpha virt. eigenvalues --    0.00873   0.01071   0.01511   0.02069   0.02384

 Mulliken charges:
               1
     1  Mg   0.690537
     2  C    0.017031
     3  C   -0.013173
     4  C   -0.021232
     5  C   -0.098086
     6  N   -0.175177
     7  C   -0.135930
     8  C    0.001572
     9  C    0.042392
    10  C   -0.070083
    11  C    0.138125
    12  C    0.116411
    13  C    0.156398
    14  C    0.067981
    15  O   -0.191443
    16  O   -0.273532
    17  N   -0.311631
    18  C    0.135292
    19  C   -0.150367
    20  C    0.080324
    21  C    0.060018
    22  C    0.154018
    23  C   -0.081853
    24  O   -0.162410
    25  C    0.121815
    26  N   -0.261202
    27  C    0.026928
    28  C    0.062292
    29  C    0.021009
    30  C    0.055385
    31  C    0.142739
    32  C    0.099414
    33  C    0.044575
    34  N   -0.230648
    35  C    0.107498
    36  C   -0.185760
    37  C    0.104463
    38  C    0.078507
    39  C    0.180551
    40  C   -0.053601
    41  O   -0.139066
    42  C    0.091985
    43  C    0.095548
    44  O   -0.147714
    45  O   -0.288859
    46  C    0.231151
    47  C    0.279197
    48  C   -0.091301
    49  C   -0.182727
    50  C    0.167685
    51  C    0.161070
    52  C    0.039308
    53  C    0.138262
    54  C   -0.070972
    55  C    0.104387
    56  C    0.084412
    57  C    0.062182
    58  C    0.082186
    59  C   -0.097790
    60  C    0.104313
    61  C    0.143901
    62  C    0.058236
    63  C    0.129909
    64  C   -0.054838
    65  C    0.095359
    66  C    0.098732
    67  H   -0.067703
    68  H   -0.044249
    69  H   -0.048087
    70  H   -0.016501
    71  H   -0.038307
    72  H   -0.001565
    73  H    0.007506
    74  H   -0.020445
    75  H   -0.014551
    76  H   -0.016388
    77  H    0.004505
    78  H   -0.014263
    79  H   -0.016708
    80  H    0.020983
    81  H    0.006472
    82  H   -0.007713
    83  H    0.005809
    84  H    0.013155
    85  H   -0.026970
    86  H   -0.030876
    87  H   -0.015615
    88  H   -0.016645
    89  H   -0.008797
    90  H   -0.020960
    91  H   -0.021927
    92  H   -0.003770
    93  H   -0.005990
    94  H   -0.016645
    95  H    0.003842
    96  H   -0.002613
    97  H    0.003651
    98  H   -0.006526
    99  H    0.008326
   100  H    0.024100
   101  H   -0.000576
   102  H   -0.005557
   103  H    0.002822
   104  H   -0.034726
   105  H    0.017718
   106  H   -0.016284
   107  H    0.008728
   108  H   -0.015661
   109  H   -0.039164
   110  H   -0.035348
   111  H   -0.036398
   112  H   -0.039483
   113  H   -0.015900
   114  H   -0.034137
   115  H   -0.010137
   116  H   -0.013800
   117  H   -0.026027
   118  H   -0.033211
   119  H   -0.047077
   120  H   -0.033913
   121  H   -0.039029
   122  H   -0.034108
   123  H   -0.031858
   124  H   -0.046220
   125  H   -0.018813
   126  H   -0.039344
   127  H   -0.015295
   128  H   -0.024865
   129  H   -0.022713
   130  H   -0.041419
   131  H   -0.016408
   132  H   -0.047802
   133  H   -0.042820
   134  H   -0.034311
   135  H   -0.030539
   136  H   -0.010257
   137  H   -0.018406
   138  H   -0.024137
   139  H   -0.029497
   140  H   -0.022270
 Sum of Mulliken charges =  -0.00000

 Dipole moment (field-independent basis, Debye):
    X=              3.8529    Y=              2.2878    Z=             -0.2978  Tot=              4.4908
 Quadrupole moment (field-independent basis, Debye-Ang):
   XX=           -380.2258   YY=           -433.1159   ZZ=           -415.1533
   XY=            -29.2255   XZ=              9.1574   YZ=             -0.8141

 Normal termination of Gaussian 16 at Wed Apr 27 20:40:37 2022.
