 Gaussian 16, Revision A.03,
 Gaussian 16:  ES64L-G16RevA.03 25-Dec-2016

 -----------------------------------
 #p cam-b3lyp/Def2SVP td=(nstates=5)
 -----------------------------------

 --------------------------------------------------------
 step_1301_chromophore_12 TDDFT with cam-b3lyp functional
 --------------------------------------------------------
 Symbolic Z-matrix:
 Charge =  0 Multiplicity = 1

                         Standard orientation:
 ---------------------------------------------------------------------
 Center     Atomic      Atomic             Coordinates (Angstroms)
 Number     Number       Type             X           Y           Z
 ---------------------------------------------------------------------
      1         12           0       -3.890025    0.842207   -0.502401
      2          6           0       -3.576974   -2.688608    0.327150
      3          6           0       -0.497589    1.022540   -0.140943
      4          6           0       -4.309176    4.068140   -0.939862
      5          6           0       -7.434821    0.386767    0.088944
      6          7           0       -2.209535   -0.725283    0.088078
      7          6           0       -2.388610   -2.068593    0.093965
      8          6           0       -0.969325   -2.757756    0.146173
      9          6           0        0.001799   -1.561225    0.401529
     10          6           0       -0.916493   -0.328942    0.048752
     11          6           0        0.595896   -1.503855    1.791237
     12          6           0       -0.684288   -3.647919   -1.146857
     13          6           0        0.056842   -4.957359   -0.938051
     14          6           0        1.339633   -5.097707   -1.818365
     15          8           0        1.329091   -5.353591   -3.017944
     16          8           0        2.424595   -5.106160   -0.950303
     17          7           0       -2.530901    2.364344   -0.624403
     18          6           0       -1.205043    2.281822   -0.395892
     19          6           0       -0.660249    3.641364   -0.582849
     20          6           0       -1.665883    4.515888   -0.812530
     21          6           0       -2.886676    3.708303   -0.824781
     22          6           0        0.899141    3.811961   -0.435290
     23          6           0       -1.654437    5.993909   -1.069659
     24          8           0       -2.679198    6.638768   -1.313268
     25          6           0       -0.323317    6.744374   -1.001095
     26          7           0       -5.595219    2.019415   -0.428923
     27          6           0       -5.529259    3.397481   -0.672587
     28          6           0       -6.906671    4.048622   -0.468366
     29          6           0       -7.852417    2.829327   -0.375315
     30          6           0       -6.907220    1.646592   -0.244461
     31          6           0       -7.139216    5.073382    0.583903
     32          6           0       -8.962093    2.693283   -1.395030
     33          6           0       -8.582464    2.265802   -2.865348
     34          7           0       -5.294332   -0.806053    0.078318
     35          6           0       -6.706262   -0.819384    0.175022
     36          6           0       -7.110910   -2.153832    0.495543
     37          6           0       -5.915131   -2.871031    0.593183
     38          6           0       -4.849375   -2.037332    0.341774
     39          6           0       -8.536889   -2.528178    0.589028
     40          6           0       -5.381181   -4.196253    0.916105
     41          8           0       -5.940523   -5.261918    1.175359
     42          6           0       -3.860161   -4.132192    0.761154
     43          6           0       -3.297820   -4.455942    2.110479
     44          8           0       -3.176811   -3.731880    3.050631
     45          8           0       -2.771948   -5.746662    2.069861
     46          6           0       -1.995314   -6.258665    3.135886
     47          6           0        3.661072   -5.174665   -1.739143
     48          6           0        4.841231   -5.100202   -0.731426
     49          6           0        5.962678   -4.384943   -0.945751
     50          6           0        6.196835   -3.816341   -2.325482
     51          6           0        7.022423   -4.398138    0.124222
     52          6           0        7.585450   -3.116485    0.613295
     53          6           0        8.999572   -2.658827    0.055921
     54          6           0        8.865257   -1.478449   -0.904153
     55          6           0        9.964550   -1.613417   -2.001716
     56          6           0        9.083766   -0.121037   -0.156381
     57          6           0        8.224639    1.048915   -0.670292
     58          6           0        8.981812    2.398841   -0.806486
     59          6           0        8.341167    3.562186   -0.050763
     60          6           0        9.142201    4.839351   -0.387624
     61          6           0        8.011373    3.327275    1.462169
     62          6           0        6.489024    3.233461    1.764350
     63          6           0        5.957780    4.276139    2.739233
     64          6           0        4.805412    5.113032    2.210956
     65          6           0        5.235807    6.510169    1.871617
     66          6           0        3.578910    5.149747    3.078864
     67          1           0        0.584270    1.034444    0.008355
     68          1           0       -4.458358    5.130212   -1.144400
     69          1           0       -8.466800    0.411004    0.447878
     70          1           0       -1.170774   -3.366907    1.027715
     71          1           0        0.814892   -1.534136   -0.323806
     72          1           0        1.436767   -2.198202    1.778020
     73          1           0       -0.070725   -1.749213    2.618333
     74          1           0        0.942704   -0.491890    1.998106
     75          1           0       -0.090181   -3.071134   -1.855659
     76          1           0       -1.650273   -3.867850   -1.600055
     77          1           0       -0.605061   -5.787627   -1.184250
     78          1           0        0.316995   -4.979956    0.120376
     79          1           0        1.358714    2.864345   -0.152170
     80          1           0        1.072584    4.615090    0.281229
     81          1           0        1.334957    4.019665   -1.412986
     82          1           0       -0.392823    7.792447   -1.294654
     83          1           0        0.389740    6.206796   -1.625428
     84          1           0       -0.002721    6.773357    0.040154
     85          1           0       -7.111694    4.601522   -1.386188
     86          1           0       -8.374295    2.875817    0.581100
     87          1           0       -6.180338    5.400729    0.985280
     88          1           0       -7.679511    4.702224    1.455058
     89          1           0       -7.614560    5.996961    0.253332
     90          1           0       -9.460334    3.655161   -1.523272
     91          1           0       -9.677925    1.971785   -1.002094
     92          1           0       -9.010088    1.342182   -3.255948
     93          1           0       -7.497811    2.194428   -2.943475
     94          1           0       -8.853273    3.018836   -3.604586
     95          1           0       -8.618000   -3.600869    0.765244
     96          1           0       -9.027396   -2.329231   -0.364048
     97          1           0       -9.014332   -1.931622    1.366439
     98          1           0       -3.409745   -4.840943    0.066253
     99          1           0       -1.585795   -7.177571    2.715431
    100          1           0       -2.611166   -6.437959    4.017490
    101          1           0       -1.173337   -5.547976    3.211081
    102          1           0        3.631942   -4.394070   -2.499306
    103          1           0        3.712040   -6.119413   -2.281795
    104          1           0        4.626279   -5.603134    0.211396
    105          1           0        5.812179   -4.397747   -3.164079
    106          1           0        7.277180   -3.691675   -2.395438
    107          1           0        5.812203   -2.797508   -2.286194
    108          1           0        7.789802   -5.085355   -0.231446
    109          1           0        6.567836   -4.784120    1.036529
    110          1           0        7.676564   -3.118532    1.699412
    111          1           0        6.787250   -2.401808    0.413958
    112          1           0        9.264607   -3.486849   -0.599919
    113          1           0        9.656601   -2.504076    0.912473
    114          1           0        7.855373   -1.380580   -1.303223
    115          1           0       10.708604   -2.408315   -1.956916
    116          1           0       10.468772   -0.660675   -2.167722
    117          1           0        9.440164   -1.882656   -2.918161
    118          1           0       10.111203    0.228004   -0.050508
    119          1           0        8.777812   -0.276598    0.877661
    120          1           0        7.348688    1.162979   -0.032029
    121          1           0        7.773195    0.781326   -1.625452
    122          1           0        9.045814    2.602102   -1.875929
    123          1           0       10.003638    2.265865   -0.452125
    124          1           0        7.461950    3.796590   -0.651531
    125          1           0        8.524918    5.503352   -0.991831
    126          1           0        9.942555    4.604832   -1.088784
    127          1           0        9.644079    5.317573    0.453660
    128          1           0        8.422038    4.222310    1.930694
    129          1           0        8.500031    2.381612    1.696256
    130          1           0        6.479222    2.306894    2.338080
    131          1           0        5.777121    3.144449    0.943314
    132          1           0        6.844813    4.866238    2.972903
    133          1           0        5.681117    3.769529    3.663965
    134          1           0        4.478198    4.664417    1.273122
    135          1           0        4.585448    6.785362    1.040718
    136          1           0        6.297542    6.580079    1.631833
    137          1           0        4.981257    7.331480    2.540648
    138          1           0        3.595181    4.557927    3.994100
    139          1           0        2.694926    4.715274    2.610613
    140          1           0        3.272069    6.160753    3.346082
 ---------------------------------------------------------------------

 SCF Done:  E(RCAM-B3LYP) =  -3007.16220118     A.U. after   19 cycles

 Excitation energies and oscillator strengths:

 Excited State   1:      Singlet-A      1.6798 eV  738.08 nm  f=0.3845  <S**2>=0.000
     245 -> 248        0.17730
     246 -> 247        0.68501
     245 <- 248        0.10691
 This state for optimization and/or second-order correction.
 Total Energy, E(TD-HF/TD-DFT) =  -3007.10046869
 Copying the excited state density for this state as the 1-particle RhoCI density.

 Excited State   2:      Singlet-A      2.1592 eV  574.23 nm  f=0.1265  <S**2>=0.000
     245 -> 247        0.64733
     246 -> 248       -0.26861

 Excited State   3:      Singlet-A      3.1890 eV  388.79 nm  f=0.0021  <S**2>=0.000
     244 -> 247        0.68785

 Excited State   4:      Singlet-A      3.4347 eV  360.97 nm  f=0.0106  <S**2>=0.000
     241 -> 247       -0.16943
     242 -> 247        0.56214
     242 -> 249        0.23795
     242 -> 250        0.18610
     242 -> 251       -0.13583

 Excited State   5:      Singlet-A      3.5332 eV  350.91 nm  f=0.6019  <S**2>=0.000
     239 -> 247        0.11291
     241 -> 247        0.12292
     242 -> 247        0.11886
     245 -> 247        0.25814
     246 -> 248        0.61811
     245 <- 247       -0.11077

 The electronic state is 1-A.
 Alpha  occ. eigenvalues --  -46.89804 -19.25879 -19.23597 -19.21000 -19.20221
 Alpha  occ. eigenvalues --  -19.19497 -19.18592 -14.42429 -14.41728 -14.40400
 Alpha  occ. eigenvalues --  -14.38552 -10.39981 -10.39181 -10.35871 -10.34706
 Alpha  occ. eigenvalues --  -10.32027 -10.31646 -10.31450 -10.31406 -10.31276
 Alpha  occ. eigenvalues --  -10.31030 -10.30916 -10.30645 -10.29155 -10.29019
 Alpha  occ. eigenvalues --  -10.28538 -10.28488 -10.28202 -10.28201 -10.28100
 Alpha  occ. eigenvalues --  -10.27720 -10.27673 -10.27555 -10.27520 -10.27462
 Alpha  occ. eigenvalues --  -10.27366 -10.27263 -10.27213 -10.27157 -10.27085
 Alpha  occ. eigenvalues --  -10.27060 -10.26650 -10.26579 -10.26566 -10.26309
 Alpha  occ. eigenvalues --  -10.26030 -10.25932 -10.25705 -10.25700 -10.25557
 Alpha  occ. eigenvalues --  -10.25500 -10.25450 -10.25421 -10.25279 -10.25271
 Alpha  occ. eigenvalues --  -10.25239 -10.24824 -10.24796 -10.24760 -10.24743
 Alpha  occ. eigenvalues --  -10.24714 -10.24688 -10.24435 -10.24392 -10.24305
 Alpha  occ. eigenvalues --  -10.24280  -3.18141  -1.93045  -1.92589  -1.92437
 Alpha  occ. eigenvalues --   -1.16628  -1.16420  -1.09949  -1.09123  -1.08816
 Alpha  occ. eigenvalues --   -1.08605  -1.03908  -1.03285  -1.02939  -1.02161
 Alpha  occ. eigenvalues --   -0.92677  -0.91313  -0.90481  -0.89496  -0.89356
 Alpha  occ. eigenvalues --   -0.89170  -0.88178  -0.87956  -0.87752  -0.87221
 Alpha  occ. eigenvalues --   -0.86339  -0.85638  -0.84742  -0.83835  -0.83557
 Alpha  occ. eigenvalues --   -0.83238  -0.81899  -0.81450  -0.81245  -0.80612
 Alpha  occ. eigenvalues --   -0.80263  -0.78617  -0.77714  -0.77385  -0.76570
 Alpha  occ. eigenvalues --   -0.76094  -0.76051  -0.75388  -0.75211  -0.74729
 Alpha  occ. eigenvalues --   -0.73282  -0.72845  -0.71378  -0.70286  -0.69959
 Alpha  occ. eigenvalues --   -0.68549  -0.68041  -0.67568  -0.66936  -0.65990
 Alpha  occ. eigenvalues --   -0.65852  -0.64824  -0.64425  -0.64366  -0.64185
 Alpha  occ. eigenvalues --   -0.64071  -0.64023  -0.62504  -0.61576  -0.60038
 Alpha  occ. eigenvalues --   -0.59806  -0.59710  -0.59097  -0.58320  -0.58101
 Alpha  occ. eigenvalues --   -0.57748  -0.56973  -0.56319  -0.56304  -0.55898
 Alpha  occ. eigenvalues --   -0.55416  -0.55340  -0.55165  -0.54836  -0.54578
 Alpha  occ. eigenvalues --   -0.54201  -0.53639  -0.53397  -0.53267  -0.52946
 Alpha  occ. eigenvalues --   -0.52793  -0.52588  -0.52458  -0.52330  -0.52167
 Alpha  occ. eigenvalues --   -0.52038  -0.51798  -0.51493  -0.51209  -0.51016
 Alpha  occ. eigenvalues --   -0.50776  -0.50431  -0.50264  -0.50096  -0.49943
 Alpha  occ. eigenvalues --   -0.49873  -0.49844  -0.49462  -0.49176  -0.49044
 Alpha  occ. eigenvalues --   -0.48921  -0.48712  -0.48463  -0.48335  -0.48097
 Alpha  occ. eigenvalues --   -0.47797  -0.47633  -0.47036  -0.46776  -0.46715
 Alpha  occ. eigenvalues --   -0.46494  -0.46221  -0.46007  -0.45990  -0.45925
 Alpha  occ. eigenvalues --   -0.45593  -0.45201  -0.45074  -0.45003  -0.44879
 Alpha  occ. eigenvalues --   -0.44751  -0.44681  -0.44487  -0.44392  -0.44307
 Alpha  occ. eigenvalues --   -0.43907  -0.43838  -0.43776  -0.43649  -0.43263
 Alpha  occ. eigenvalues --   -0.43058  -0.42764  -0.42699  -0.42666  -0.42435
 Alpha  occ. eigenvalues --   -0.42216  -0.42051  -0.41984  -0.41721  -0.41377
 Alpha  occ. eigenvalues --   -0.41129  -0.40772  -0.40599  -0.40382  -0.39790
 Alpha  occ. eigenvalues --   -0.39603  -0.39543  -0.39456  -0.39226  -0.39181
 Alpha  occ. eigenvalues --   -0.38780  -0.38696  -0.37821  -0.37701  -0.37572
 Alpha  occ. eigenvalues --   -0.37185  -0.37119  -0.36999  -0.36384  -0.36323
 Alpha  occ. eigenvalues --   -0.35839  -0.35373  -0.35097  -0.34849  -0.34752
 Alpha  occ. eigenvalues --   -0.34439  -0.33680  -0.33053  -0.31928  -0.31569
 Alpha  occ. eigenvalues --   -0.31030  -0.30569  -0.30298  -0.29251  -0.23971
 Alpha  occ. eigenvalues --   -0.21345
 Alpha virt. eigenvalues --   -0.09016  -0.01862   0.00413   0.01953   0.02203
 Alpha virt. eigenvalues --    0.03867   0.05256   0.05316   0.06054   0.06710
 Alpha virt. eigenvalues --    0.06933   0.07364   0.08257   0.08350   0.08675

 Mulliken charges:
               1
     1  Mg   0.819083
     2  C   -0.011737
     3  C   -0.037244
     4  C   -0.043539
     5  C   -0.100995
     6  N   -0.241715
     7  C   -0.089201
     8  C   -0.049893
     9  C   -0.011626
    10  C   -0.045026
    11  C    0.081930
    12  C    0.064923
    13  C    0.091236
    14  C    0.145418
    15  O   -0.232409
    16  O   -0.337187
    17  N   -0.398363
    18  C    0.147349
    19  C   -0.155367
    20  C    0.004879
    21  C    0.086475
    22  C    0.109055
    23  C   -0.001582
    24  O   -0.203669
    25  C    0.044564
    26  N   -0.333093
    27  C    0.048554
    28  C    0.005008
    29  C   -0.039086
    30  C    0.072252
    31  C    0.080081
    32  C    0.047090
    33  C   -0.015668
    34  N   -0.316821
    35  C    0.110034
    36  C   -0.176297
    37  C    0.015034
    38  C    0.123345
    39  C    0.125560
    40  C    0.043660
    41  O   -0.176750
    42  C    0.019013
    43  C    0.183350
    44  O   -0.181354
    45  O   -0.352731
    46  C    0.190712
    47  C    0.240732
    48  C   -0.108710
    49  C   -0.196663
    50  C    0.099211
    51  C    0.096883
    52  C   -0.014513
    53  C    0.080216
    54  C   -0.125313
    55  C    0.045914
    56  C    0.035016
    57  C    0.007430
    58  C    0.031108
    59  C   -0.150803
    60  C    0.045557
    61  C    0.088951
    62  C   -0.001995
    63  C    0.075924
    64  C   -0.118860
    65  C    0.039122
    66  C    0.040780
    67  H   -0.035837
    68  H   -0.004269
    69  H   -0.013078
    70  H    0.012841
    71  H   -0.002868
    72  H    0.022780
    73  H    0.031911
    74  H    0.004799
    75  H    0.015737
    76  H    0.015070
    77  H    0.036586
    78  H    0.020020
    79  H    0.010036
    80  H    0.040589
    81  H    0.032302
    82  H    0.027758
    83  H    0.031396
    84  H    0.040058
    85  H    0.008757
    86  H    0.005545
    87  H    0.011206
    88  H    0.008978
    89  H    0.016941
    90  H    0.007728
    91  H    0.005637
    92  H    0.020494
    93  H    0.014657
    94  H    0.007619
    95  H    0.032024
    96  H    0.023969
    97  H    0.027854
    98  H    0.036832
    99  H    0.031392
   100  H    0.046594
   101  H    0.020068
   102  H    0.023141
   103  H    0.032275
   104  H    0.001712
   105  H    0.042537
   106  H    0.005729
   107  H    0.032347
   108  H    0.013373
   109  H   -0.005707
   110  H   -0.004150
   111  H   -0.008480
   112  H   -0.011197
   113  H    0.013618
   114  H   -0.004940
   115  H    0.015189
   116  H    0.009864
   117  H   -0.002751
   118  H   -0.004638
   119  H   -0.019081
   120  H   -0.007025
   121  H   -0.009885
   122  H   -0.004173
   123  H   -0.004868
   124  H   -0.014075
   125  H    0.005531
   126  H   -0.011896
   127  H    0.008321
   128  H    0.002141
   129  H    0.004751
   130  H   -0.010242
   131  H    0.008638
   132  H   -0.018254
   133  H   -0.011769
   134  H   -0.004197
   135  H   -0.006501
   136  H    0.011605
   137  H    0.006476
   138  H    0.002046
   139  H   -0.007397
   140  H    0.002566
 Sum of Mulliken charges =  -0.00000

 Dipole moment (field-independent basis, Debye):
    X=              4.3081    Y=              2.7599    Z=             -0.3220  Tot=              5.1264
 Quadrupole moment (field-independent basis, Debye-Ang):
   XX=           -378.8772   YY=           -430.3362   ZZ=           -415.6390
   XY=            -29.0615   XZ=              9.3014   YZ=             -1.6182

 Normal termination of Gaussian 16 at Wed Apr 27 19:13:58 2022.
