 Gaussian 16, Revision A.03,
 Gaussian 16:  ES64L-G16RevA.03 25-Dec-2016

 ---------------------------------
 #p PBE1PBE/Def2SVP td=(nstates=5)
 ---------------------------------

 ------------------------------------------------------
 step_1301_chromophore_12 TDDFT with PBE1PBE functional
 ------------------------------------------------------
 Symbolic Z-matrix:
 Charge =  0 Multiplicity = 1

                         Standard orientation:
 ---------------------------------------------------------------------
 Center     Atomic      Atomic             Coordinates (Angstroms)
 Number     Number       Type             X           Y           Z
 ---------------------------------------------------------------------
      1         12           0       -3.890025    0.842207   -0.502401
      2          6           0       -3.576974   -2.688608    0.327150
      3          6           0       -0.497589    1.022540   -0.140943
      4          6           0       -4.309176    4.068140   -0.939862
      5          6           0       -7.434821    0.386767    0.088944
      6          7           0       -2.209535   -0.725283    0.088078
      7          6           0       -2.388610   -2.068593    0.093965
      8          6           0       -0.969325   -2.757756    0.146173
      9          6           0        0.001799   -1.561225    0.401529
     10          6           0       -0.916493   -0.328942    0.048752
     11          6           0        0.595896   -1.503855    1.791237
     12          6           0       -0.684288   -3.647919   -1.146857
     13          6           0        0.056842   -4.957359   -0.938051
     14          6           0        1.339633   -5.097707   -1.818365
     15          8           0        1.329091   -5.353591   -3.017944
     16          8           0        2.424595   -5.106160   -0.950303
     17          7           0       -2.530901    2.364344   -0.624403
     18          6           0       -1.205043    2.281822   -0.395892
     19          6           0       -0.660249    3.641364   -0.582849
     20          6           0       -1.665883    4.515888   -0.812530
     21          6           0       -2.886676    3.708303   -0.824781
     22          6           0        0.899141    3.811961   -0.435290
     23          6           0       -1.654437    5.993909   -1.069659
     24          8           0       -2.679198    6.638768   -1.313268
     25          6           0       -0.323317    6.744374   -1.001095
     26          7           0       -5.595219    2.019415   -0.428923
     27          6           0       -5.529259    3.397481   -0.672587
     28          6           0       -6.906671    4.048622   -0.468366
     29          6           0       -7.852417    2.829327   -0.375315
     30          6           0       -6.907220    1.646592   -0.244461
     31          6           0       -7.139216    5.073382    0.583903
     32          6           0       -8.962093    2.693283   -1.395030
     33          6           0       -8.582464    2.265802   -2.865348
     34          7           0       -5.294332   -0.806053    0.078318
     35          6           0       -6.706262   -0.819384    0.175022
     36          6           0       -7.110910   -2.153832    0.495543
     37          6           0       -5.915131   -2.871031    0.593183
     38          6           0       -4.849375   -2.037332    0.341774
     39          6           0       -8.536889   -2.528178    0.589028
     40          6           0       -5.381181   -4.196253    0.916105
     41          8           0       -5.940523   -5.261918    1.175359
     42          6           0       -3.860161   -4.132192    0.761154
     43          6           0       -3.297820   -4.455942    2.110479
     44          8           0       -3.176811   -3.731880    3.050631
     45          8           0       -2.771948   -5.746662    2.069861
     46          6           0       -1.995314   -6.258665    3.135886
     47          6           0        3.661072   -5.174665   -1.739143
     48          6           0        4.841231   -5.100202   -0.731426
     49          6           0        5.962678   -4.384943   -0.945751
     50          6           0        6.196835   -3.816341   -2.325482
     51          6           0        7.022423   -4.398138    0.124222
     52          6           0        7.585450   -3.116485    0.613295
     53          6           0        8.999572   -2.658827    0.055921
     54          6           0        8.865257   -1.478449   -0.904153
     55          6           0        9.964550   -1.613417   -2.001716
     56          6           0        9.083766   -0.121037   -0.156381
     57          6           0        8.224639    1.048915   -0.670292
     58          6           0        8.981812    2.398841   -0.806486
     59          6           0        8.341167    3.562186   -0.050763
     60          6           0        9.142201    4.839351   -0.387624
     61          6           0        8.011373    3.327275    1.462169
     62          6           0        6.489024    3.233461    1.764350
     63          6           0        5.957780    4.276139    2.739233
     64          6           0        4.805412    5.113032    2.210956
     65          6           0        5.235807    6.510169    1.871617
     66          6           0        3.578910    5.149747    3.078864
     67          1           0        0.584270    1.034444    0.008355
     68          1           0       -4.458358    5.130212   -1.144400
     69          1           0       -8.466800    0.411004    0.447878
     70          1           0       -1.170774   -3.366907    1.027715
     71          1           0        0.814892   -1.534136   -0.323806
     72          1           0        1.436767   -2.198202    1.778020
     73          1           0       -0.070725   -1.749213    2.618333
     74          1           0        0.942704   -0.491890    1.998106
     75          1           0       -0.090181   -3.071134   -1.855659
     76          1           0       -1.650273   -3.867850   -1.600055
     77          1           0       -0.605061   -5.787627   -1.184250
     78          1           0        0.316995   -4.979956    0.120376
     79          1           0        1.358714    2.864345   -0.152170
     80          1           0        1.072584    4.615090    0.281229
     81          1           0        1.334957    4.019665   -1.412986
     82          1           0       -0.392823    7.792447   -1.294654
     83          1           0        0.389740    6.206796   -1.625428
     84          1           0       -0.002721    6.773357    0.040154
     85          1           0       -7.111694    4.601522   -1.386188
     86          1           0       -8.374295    2.875817    0.581100
     87          1           0       -6.180338    5.400729    0.985280
     88          1           0       -7.679511    4.702224    1.455058
     89          1           0       -7.614560    5.996961    0.253332
     90          1           0       -9.460334    3.655161   -1.523272
     91          1           0       -9.677925    1.971785   -1.002094
     92          1           0       -9.010088    1.342182   -3.255948
     93          1           0       -7.497811    2.194428   -2.943475
     94          1           0       -8.853273    3.018836   -3.604586
     95          1           0       -8.618000   -3.600869    0.765244
     96          1           0       -9.027396   -2.329231   -0.364048
     97          1           0       -9.014332   -1.931622    1.366439
     98          1           0       -3.409745   -4.840943    0.066253
     99          1           0       -1.585795   -7.177571    2.715431
    100          1           0       -2.611166   -6.437959    4.017490
    101          1           0       -1.173337   -5.547976    3.211081
    102          1           0        3.631942   -4.394070   -2.499306
    103          1           0        3.712040   -6.119413   -2.281795
    104          1           0        4.626279   -5.603134    0.211396
    105          1           0        5.812179   -4.397747   -3.164079
    106          1           0        7.277180   -3.691675   -2.395438
    107          1           0        5.812203   -2.797508   -2.286194
    108          1           0        7.789802   -5.085355   -0.231446
    109          1           0        6.567836   -4.784120    1.036529
    110          1           0        7.676564   -3.118532    1.699412
    111          1           0        6.787250   -2.401808    0.413958
    112          1           0        9.264607   -3.486849   -0.599919
    113          1           0        9.656601   -2.504076    0.912473
    114          1           0        7.855373   -1.380580   -1.303223
    115          1           0       10.708604   -2.408315   -1.956916
    116          1           0       10.468772   -0.660675   -2.167722
    117          1           0        9.440164   -1.882656   -2.918161
    118          1           0       10.111203    0.228004   -0.050508
    119          1           0        8.777812   -0.276598    0.877661
    120          1           0        7.348688    1.162979   -0.032029
    121          1           0        7.773195    0.781326   -1.625452
    122          1           0        9.045814    2.602102   -1.875929
    123          1           0       10.003638    2.265865   -0.452125
    124          1           0        7.461950    3.796590   -0.651531
    125          1           0        8.524918    5.503352   -0.991831
    126          1           0        9.942555    4.604832   -1.088784
    127          1           0        9.644079    5.317573    0.453660
    128          1           0        8.422038    4.222310    1.930694
    129          1           0        8.500031    2.381612    1.696256
    130          1           0        6.479222    2.306894    2.338080
    131          1           0        5.777121    3.144449    0.943314
    132          1           0        6.844813    4.866238    2.972903
    133          1           0        5.681117    3.769529    3.663965
    134          1           0        4.478198    4.664417    1.273122
    135          1           0        4.585448    6.785362    1.040718
    136          1           0        6.297542    6.580079    1.631833
    137          1           0        4.981257    7.331480    2.540648
    138          1           0        3.595181    4.557927    3.994100
    139          1           0        2.694926    4.715274    2.610613
    140          1           0        3.272069    6.160753    3.346082
 ---------------------------------------------------------------------

 SCF Done:  E(RPBE1PBE) =  -3005.35166656     A.U. after   16 cycles

 Excitation energies and oscillator strengths:

 Excited State   1:      Singlet-A      1.8455 eV  671.82 nm  f=0.3695  <S**2>=0.000
     245 -> 248        0.16767
     246 -> 247        0.69219
     246 <- 247       -0.10919
 This state for optimization and/or second-order correction.
 Total Energy, E(TD-HF/TD-DFT) =  -3005.28384581
 Copying the excited state density for this state as the 1-particle RhoCI density.

 Excited State   2:      Singlet-A      2.1768 eV  569.57 nm  f=0.1172  <S**2>=0.000
     245 -> 247        0.65589
     246 -> 248       -0.24216

 Excited State   3:      Singlet-A      2.8788 eV  430.68 nm  f=0.0050  <S**2>=0.000
     243 -> 247       -0.27617
     244 -> 247        0.63258

 Excited State   4:      Singlet-A      2.9157 eV  425.23 nm  f=0.0018  <S**2>=0.000
     243 -> 247        0.61899
     243 -> 249        0.11361
     244 -> 247        0.28735

 Excited State   5:      Singlet-A      3.2049 eV  386.85 nm  f=0.0014  <S**2>=0.000
     241 -> 247        0.66435
     241 -> 248        0.13255
     241 -> 249       -0.16006

 The electronic state is 1-A.
 Alpha  occ. eigenvalues --  -46.93195 -19.26618 -19.24273 -19.21319 -19.20386
 Alpha  occ. eigenvalues --  -19.19685 -19.18815 -14.41963 -14.41239 -14.40032
 Alpha  occ. eigenvalues --  -14.38263 -10.37080 -10.36186 -10.32986 -10.31860
 Alpha  occ. eigenvalues --  -10.29454 -10.29397 -10.29183 -10.29111 -10.28713
 Alpha  occ. eigenvalues --  -10.28707 -10.28479 -10.28377 -10.26946 -10.26672
 Alpha  occ. eigenvalues --  -10.26311 -10.26292 -10.25884 -10.25822 -10.25800
 Alpha  occ. eigenvalues --  -10.25504 -10.25324 -10.25187 -10.25137 -10.25063
 Alpha  occ. eigenvalues --  -10.25061 -10.24939 -10.24900 -10.24819 -10.24746
 Alpha  occ. eigenvalues --  -10.24694 -10.24299 -10.24019 -10.23958 -10.23807
 Alpha  occ. eigenvalues --  -10.23514 -10.23462 -10.23238 -10.23144 -10.23124
 Alpha  occ. eigenvalues --  -10.23078 -10.23006 -10.22975 -10.22965 -10.22792
 Alpha  occ. eigenvalues --  -10.22707 -10.22425 -10.22375 -10.22351 -10.22315
 Alpha  occ. eigenvalues --  -10.22295 -10.22123 -10.21847 -10.21799 -10.21748
 Alpha  occ. eigenvalues --  -10.21685  -3.15117  -1.87960  -1.87483  -1.87335
 Alpha  occ. eigenvalues --   -1.11381  -1.11258  -1.04641  -1.03861  -1.03641
 Alpha  occ. eigenvalues --   -1.03511  -0.98525  -0.97952  -0.97557  -0.96822
 Alpha  occ. eigenvalues --   -0.87045  -0.85444  -0.84576  -0.83679  -0.83624
 Alpha  occ. eigenvalues --   -0.83351  -0.82311  -0.82250  -0.82061  -0.81527
 Alpha  occ. eigenvalues --   -0.80693  -0.79885  -0.78921  -0.78139  -0.77804
 Alpha  occ. eigenvalues --   -0.77461  -0.76147  -0.75609  -0.75442  -0.74958
 Alpha  occ. eigenvalues --   -0.74498  -0.72902  -0.71964  -0.71706  -0.70736
 Alpha  occ. eigenvalues --   -0.70432  -0.70129  -0.69597  -0.69539  -0.68879
 Alpha  occ. eigenvalues --   -0.67654  -0.67224  -0.65803  -0.64611  -0.64318
 Alpha  occ. eigenvalues --   -0.62959  -0.62281  -0.62074  -0.61199  -0.60324
 Alpha  occ. eigenvalues --   -0.60128  -0.59420  -0.58903  -0.58758  -0.58566
 Alpha  occ. eigenvalues --   -0.58452  -0.58185  -0.56708  -0.56145  -0.54595
 Alpha  occ. eigenvalues --   -0.54299  -0.54211  -0.53617  -0.52819  -0.52672
 Alpha  occ. eigenvalues --   -0.52294  -0.51442  -0.50817  -0.50689  -0.50485
 Alpha  occ. eigenvalues --   -0.49902  -0.49750  -0.49660  -0.49485  -0.49137
 Alpha  occ. eigenvalues --   -0.48673  -0.48141  -0.48019  -0.47754  -0.47408
 Alpha  occ. eigenvalues --   -0.47200  -0.47127  -0.47016  -0.46863  -0.46765
 Alpha  occ. eigenvalues --   -0.46526  -0.46457  -0.46015  -0.45744  -0.45578
 Alpha  occ. eigenvalues --   -0.45441  -0.44983  -0.44808  -0.44652  -0.44515
 Alpha  occ. eigenvalues --   -0.44427  -0.44410  -0.44063  -0.43820  -0.43668
 Alpha  occ. eigenvalues --   -0.43520  -0.43306  -0.43123  -0.42994  -0.42740
 Alpha  occ. eigenvalues --   -0.42400  -0.42264  -0.41691  -0.41456  -0.41361
 Alpha  occ. eigenvalues --   -0.41191  -0.41001  -0.40683  -0.40629  -0.40568
 Alpha  occ. eigenvalues --   -0.40297  -0.39915  -0.39791  -0.39753  -0.39644
 Alpha  occ. eigenvalues --   -0.39516  -0.39279  -0.39219  -0.39143  -0.39022
 Alpha  occ. eigenvalues --   -0.38763  -0.38651  -0.38601  -0.38424  -0.38008
 Alpha  occ. eigenvalues --   -0.37939  -0.37570  -0.37450  -0.37428  -0.37267
 Alpha  occ. eigenvalues --   -0.37067  -0.36764  -0.36725  -0.36545  -0.36149
 Alpha  occ. eigenvalues --   -0.35992  -0.35552  -0.35360  -0.35230  -0.34568
 Alpha  occ. eigenvalues --   -0.34511  -0.34375  -0.34341  -0.34166  -0.33955
 Alpha  occ. eigenvalues --   -0.33757  -0.33536  -0.32726  -0.32665  -0.32542
 Alpha  occ. eigenvalues --   -0.32044  -0.32007  -0.31926  -0.31222  -0.31190
 Alpha  occ. eigenvalues --   -0.30935  -0.30273  -0.29944  -0.29770  -0.29687
 Alpha  occ. eigenvalues --   -0.29241  -0.28861  -0.28651  -0.27493  -0.26645
 Alpha  occ. eigenvalues --   -0.26303  -0.25585  -0.25431  -0.24929  -0.20929
 Alpha  occ. eigenvalues --   -0.18982
 Alpha virt. eigenvalues --   -0.11430  -0.05450  -0.03797  -0.02399  -0.00704
 Alpha virt. eigenvalues --   -0.00644   0.00812   0.00867   0.01569   0.02656
 Alpha virt. eigenvalues --    0.03532   0.03959   0.04289   0.04969   0.05249

 Mulliken charges:
               1
     1  Mg   0.959983
     2  C   -0.017628
     3  C   -0.050275
     4  C   -0.047660
     5  C   -0.089863
     6  N   -0.338329
     7  C   -0.016354
     8  C   -0.130332
     9  C   -0.092156
    10  C    0.001980
    11  C    0.024552
    12  C    0.018987
    13  C    0.014571
    14  C    0.205414
    15  O   -0.263250
    16  O   -0.364550
    17  N   -0.511744
    18  C    0.182095
    19  C   -0.183823
    20  C   -0.055864
    21  C    0.124277
    22  C    0.048920
    23  C    0.053453
    24  O   -0.241703
    25  C   -0.027540
    26  N   -0.438278
    27  C    0.078318
    28  C   -0.068549
    29  C   -0.118061
    30  C    0.111159
    31  C    0.023053
    32  C   -0.016207
    33  C   -0.085735
    34  N   -0.437879
    35  C    0.133543
    36  C   -0.189666
    37  C   -0.046225
    38  C    0.187576
    39  C    0.071082
    40  C    0.139092
    41  O   -0.222865
    42  C   -0.090916
    43  C    0.274276
    44  O   -0.217516
    45  O   -0.387088
    46  C    0.136986
    47  C    0.197875
    48  C   -0.117026
    49  C   -0.236174
    50  C    0.028212
    51  C    0.030020
    52  C   -0.071492
    53  C    0.019417
    54  C   -0.217699
    55  C   -0.011405
    56  C   -0.014231
    57  C   -0.054544
    58  C   -0.027750
    59  C   -0.230369
    60  C   -0.011246
    61  C    0.025484
    62  C   -0.067192
    63  C    0.026142
    64  C   -0.219969
    65  C   -0.019514
    66  C   -0.015538
    67  H   -0.001670
    68  H    0.028317
    69  H    0.016576
    70  H    0.062730
    71  H    0.033879
    72  H    0.051117
    73  H    0.058274
    74  H    0.033158
    75  H    0.048349
    76  H    0.047809
    77  H    0.068268
    78  H    0.053054
    79  H    0.037997
    80  H    0.069081
    81  H    0.059660
    82  H    0.055121
    83  H    0.058266
    84  H    0.066400
    85  H    0.047524
    86  H    0.044486
    87  H    0.040031
    88  H    0.035971
    89  H    0.043757
    90  H    0.041492
    91  H    0.037724
    92  H    0.047591
    93  H    0.044945
    94  H    0.035235
    95  H    0.060585
    96  H    0.052046
    97  H    0.054919
    98  H    0.073916
    99  H    0.053504
   100  H    0.068218
   101  H    0.042016
   102  H    0.049149
   103  H    0.060054
   104  H    0.031202
   105  H    0.068788
   106  H    0.038623
   107  H    0.060053
   108  H    0.046270
   109  H    0.026533
   110  H    0.028497
   111  H    0.024950
   112  H    0.023364
   113  H    0.044308
   114  H    0.034020
   115  H    0.041055
   116  H    0.037712
   117  H    0.025186
   118  H    0.026120
   119  H    0.015035
   120  H    0.029910
   121  H    0.022572
   122  H    0.028708
   123  H    0.028220
   124  H    0.025852
   125  H    0.032728
   126  H    0.015715
   127  H    0.034610
   128  H    0.034234
   129  H    0.039836
   130  H    0.023905
   131  H    0.037000
   132  H    0.014197
   133  H    0.020649
   134  H    0.033817
   135  H    0.021653
   136  H    0.039616
   137  H    0.033399
   138  H    0.028514
   139  H    0.021937
   140  H    0.029405
 Sum of Mulliken charges =  -0.00000

 Dipole moment (field-independent basis, Debye):
    X=              4.1681    Y=              2.7529    Z=             -0.3171  Tot=              5.0052
 Quadrupole moment (field-independent basis, Debye-Ang):
   XX=           -373.0163   YY=           -427.6940   ZZ=           -413.1073
   XY=            -30.0487   XZ=              9.4632   YZ=             -1.7062

 Normal termination of Gaussian 16 at Wed Apr 27 19:31:14 2022.
