 Gaussian 16, Revision A.03,
 Gaussian 16:  ES64L-G16RevA.03 25-Dec-2016

 --------------------------------
 #p wB97XD/Def2SVP td=(nstates=5)
 --------------------------------

 -----------------------------------------------------
 step_1301_chromophore_12 TDDFT with wB97XD functional
 -----------------------------------------------------
 Symbolic Z-matrix:
 Charge =  0 Multiplicity = 1

                         Standard orientation:
 ---------------------------------------------------------------------
 Center     Atomic      Atomic             Coordinates (Angstroms)
 Number     Number       Type             X           Y           Z
 ---------------------------------------------------------------------
      1         12           0       -3.890025    0.842207   -0.502401
      2          6           0       -3.576974   -2.688608    0.327150
      3          6           0       -0.497589    1.022540   -0.140943
      4          6           0       -4.309176    4.068140   -0.939862
      5          6           0       -7.434821    0.386767    0.088944
      6          7           0       -2.209535   -0.725283    0.088078
      7          6           0       -2.388610   -2.068593    0.093965
      8          6           0       -0.969325   -2.757756    0.146173
      9          6           0        0.001799   -1.561225    0.401529
     10          6           0       -0.916493   -0.328942    0.048752
     11          6           0        0.595896   -1.503855    1.791237
     12          6           0       -0.684288   -3.647919   -1.146857
     13          6           0        0.056842   -4.957359   -0.938051
     14          6           0        1.339633   -5.097707   -1.818365
     15          8           0        1.329091   -5.353591   -3.017944
     16          8           0        2.424595   -5.106160   -0.950303
     17          7           0       -2.530901    2.364344   -0.624403
     18          6           0       -1.205043    2.281822   -0.395892
     19          6           0       -0.660249    3.641364   -0.582849
     20          6           0       -1.665883    4.515888   -0.812530
     21          6           0       -2.886676    3.708303   -0.824781
     22          6           0        0.899141    3.811961   -0.435290
     23          6           0       -1.654437    5.993909   -1.069659
     24          8           0       -2.679198    6.638768   -1.313268
     25          6           0       -0.323317    6.744374   -1.001095
     26          7           0       -5.595219    2.019415   -0.428923
     27          6           0       -5.529259    3.397481   -0.672587
     28          6           0       -6.906671    4.048622   -0.468366
     29          6           0       -7.852417    2.829327   -0.375315
     30          6           0       -6.907220    1.646592   -0.244461
     31          6           0       -7.139216    5.073382    0.583903
     32          6           0       -8.962093    2.693283   -1.395030
     33          6           0       -8.582464    2.265802   -2.865348
     34          7           0       -5.294332   -0.806053    0.078318
     35          6           0       -6.706262   -0.819384    0.175022
     36          6           0       -7.110910   -2.153832    0.495543
     37          6           0       -5.915131   -2.871031    0.593183
     38          6           0       -4.849375   -2.037332    0.341774
     39          6           0       -8.536889   -2.528178    0.589028
     40          6           0       -5.381181   -4.196253    0.916105
     41          8           0       -5.940523   -5.261918    1.175359
     42          6           0       -3.860161   -4.132192    0.761154
     43          6           0       -3.297820   -4.455942    2.110479
     44          8           0       -3.176811   -3.731880    3.050631
     45          8           0       -2.771948   -5.746662    2.069861
     46          6           0       -1.995314   -6.258665    3.135886
     47          6           0        3.661072   -5.174665   -1.739143
     48          6           0        4.841231   -5.100202   -0.731426
     49          6           0        5.962678   -4.384943   -0.945751
     50          6           0        6.196835   -3.816341   -2.325482
     51          6           0        7.022423   -4.398138    0.124222
     52          6           0        7.585450   -3.116485    0.613295
     53          6           0        8.999572   -2.658827    0.055921
     54          6           0        8.865257   -1.478449   -0.904153
     55          6           0        9.964550   -1.613417   -2.001716
     56          6           0        9.083766   -0.121037   -0.156381
     57          6           0        8.224639    1.048915   -0.670292
     58          6           0        8.981812    2.398841   -0.806486
     59          6           0        8.341167    3.562186   -0.050763
     60          6           0        9.142201    4.839351   -0.387624
     61          6           0        8.011373    3.327275    1.462169
     62          6           0        6.489024    3.233461    1.764350
     63          6           0        5.957780    4.276139    2.739233
     64          6           0        4.805412    5.113032    2.210956
     65          6           0        5.235807    6.510169    1.871617
     66          6           0        3.578910    5.149747    3.078864
     67          1           0        0.584270    1.034444    0.008355
     68          1           0       -4.458358    5.130212   -1.144400
     69          1           0       -8.466800    0.411004    0.447878
     70          1           0       -1.170774   -3.366907    1.027715
     71          1           0        0.814892   -1.534136   -0.323806
     72          1           0        1.436767   -2.198202    1.778020
     73          1           0       -0.070725   -1.749213    2.618333
     74          1           0        0.942704   -0.491890    1.998106
     75          1           0       -0.090181   -3.071134   -1.855659
     76          1           0       -1.650273   -3.867850   -1.600055
     77          1           0       -0.605061   -5.787627   -1.184250
     78          1           0        0.316995   -4.979956    0.120376
     79          1           0        1.358714    2.864345   -0.152170
     80          1           0        1.072584    4.615090    0.281229
     81          1           0        1.334957    4.019665   -1.412986
     82          1           0       -0.392823    7.792447   -1.294654
     83          1           0        0.389740    6.206796   -1.625428
     84          1           0       -0.002721    6.773357    0.040154
     85          1           0       -7.111694    4.601522   -1.386188
     86          1           0       -8.374295    2.875817    0.581100
     87          1           0       -6.180338    5.400729    0.985280
     88          1           0       -7.679511    4.702224    1.455058
     89          1           0       -7.614560    5.996961    0.253332
     90          1           0       -9.460334    3.655161   -1.523272
     91          1           0       -9.677925    1.971785   -1.002094
     92          1           0       -9.010088    1.342182   -3.255948
     93          1           0       -7.497811    2.194428   -2.943475
     94          1           0       -8.853273    3.018836   -3.604586
     95          1           0       -8.618000   -3.600869    0.765244
     96          1           0       -9.027396   -2.329231   -0.364048
     97          1           0       -9.014332   -1.931622    1.366439
     98          1           0       -3.409745   -4.840943    0.066253
     99          1           0       -1.585795   -7.177571    2.715431
    100          1           0       -2.611166   -6.437959    4.017490
    101          1           0       -1.173337   -5.547976    3.211081
    102          1           0        3.631942   -4.394070   -2.499306
    103          1           0        3.712040   -6.119413   -2.281795
    104          1           0        4.626279   -5.603134    0.211396
    105          1           0        5.812179   -4.397747   -3.164079
    106          1           0        7.277180   -3.691675   -2.395438
    107          1           0        5.812203   -2.797508   -2.286194
    108          1           0        7.789802   -5.085355   -0.231446
    109          1           0        6.567836   -4.784120    1.036529
    110          1           0        7.676564   -3.118532    1.699412
    111          1           0        6.787250   -2.401808    0.413958
    112          1           0        9.264607   -3.486849   -0.599919
    113          1           0        9.656601   -2.504076    0.912473
    114          1           0        7.855373   -1.380580   -1.303223
    115          1           0       10.708604   -2.408315   -1.956916
    116          1           0       10.468772   -0.660675   -2.167722
    117          1           0        9.440164   -1.882656   -2.918161
    118          1           0       10.111203    0.228004   -0.050508
    119          1           0        8.777812   -0.276598    0.877661
    120          1           0        7.348688    1.162979   -0.032029
    121          1           0        7.773195    0.781326   -1.625452
    122          1           0        9.045814    2.602102   -1.875929
    123          1           0       10.003638    2.265865   -0.452125
    124          1           0        7.461950    3.796590   -0.651531
    125          1           0        8.524918    5.503352   -0.991831
    126          1           0        9.942555    4.604832   -1.088784
    127          1           0        9.644079    5.317573    0.453660
    128          1           0        8.422038    4.222310    1.930694
    129          1           0        8.500031    2.381612    1.696256
    130          1           0        6.479222    2.306894    2.338080
    131          1           0        5.777121    3.144449    0.943314
    132          1           0        6.844813    4.866238    2.972903
    133          1           0        5.681117    3.769529    3.663965
    134          1           0        4.478198    4.664417    1.273122
    135          1           0        4.585448    6.785362    1.040718
    136          1           0        6.297542    6.580079    1.631833
    137          1           0        4.981257    7.331480    2.540648
    138          1           0        3.595181    4.557927    3.994100
    139          1           0        2.694926    4.715274    2.610613
    140          1           0        3.272069    6.160753    3.346082
 ---------------------------------------------------------------------

 SCF Done:  E(RwB97XD) =  -3007.86172388     A.U. after   19 cycles

 Excitation energies and oscillator strengths:

 Excited State   1:      Singlet-A      1.6171 eV  766.70 nm  f=0.3829  <S**2>=0.000
     245 -> 248        0.18361
     246 -> 247        0.68285
     245 <- 248        0.11698
 This state for optimization and/or second-order correction.
 Total Energy, E(TD-HF/TD-DFT) =  -3007.80229619
 Copying the excited state density for this state as the 1-particle RhoCI density.

 Excited State   2:      Singlet-A      2.1001 eV  590.37 nm  f=0.1237  <S**2>=0.000
     245 -> 247        0.64557
     246 -> 248       -0.27176

 Excited State   3:      Singlet-A      3.2039 eV  386.98 nm  f=0.0013  <S**2>=0.000
     244 -> 247        0.68123
     246 -> 248        0.10876

 Excited State   4:      Singlet-A      3.4595 eV  358.39 nm  f=0.0119  <S**2>=0.000
     241 -> 247       -0.11980
     242 -> 247        0.55941
     242 -> 249        0.25917
     242 -> 250       -0.24171

 Excited State   5:      Singlet-A      3.5541 eV  348.85 nm  f=0.6289  <S**2>=0.000
     239 -> 247        0.11583
     241 -> 247        0.14928
     242 -> 247        0.11073
     245 -> 247        0.26033
     246 -> 248        0.61152
     245 <- 247       -0.11724

 The electronic state is 1-A.
 Alpha  occ. eigenvalues --  -46.96128 -19.31152 -19.28846 -19.25972 -19.25141
 Alpha  occ. eigenvalues --  -19.24522 -19.23653 -14.47044 -14.46304 -14.44999
 Alpha  occ. eigenvalues --  -14.43146 -10.43836 -10.43035 -10.39839 -10.38731
 Alpha  occ. eigenvalues --  -10.35942 -10.35709 -10.35542 -10.35452 -10.35094
 Alpha  occ. eigenvalues --  -10.34991 -10.34921 -10.34666 -10.33181 -10.33165
 Alpha  occ. eigenvalues --  -10.32569 -10.32564 -10.32252 -10.32197 -10.32186
 Alpha  occ. eigenvalues --  -10.31789 -10.31668 -10.31623 -10.31543 -10.31473
 Alpha  occ. eigenvalues --  -10.31426 -10.31307 -10.31169 -10.31164 -10.31116
 Alpha  occ. eigenvalues --  -10.31099 -10.30587 -10.30431 -10.30426 -10.30323
 Alpha  occ. eigenvalues --  -10.29898 -10.29869 -10.29633 -10.29572 -10.29501
 Alpha  occ. eigenvalues --  -10.29391 -10.29381 -10.29335 -10.29252 -10.29169
 Alpha  occ. eigenvalues --  -10.29092 -10.28750 -10.28735 -10.28723 -10.28693
 Alpha  occ. eigenvalues --  -10.28687 -10.28559 -10.28246 -10.28221 -10.28210
 Alpha  occ. eigenvalues --  -10.28109  -3.21946  -1.95531  -1.95054  -1.94903
 Alpha  occ. eigenvalues --   -1.18792  -1.18622  -1.12157  -1.11360  -1.11025
 Alpha  occ. eigenvalues --   -1.10837  -1.05914  -1.05326  -1.04939  -1.04188
 Alpha  occ. eigenvalues --   -0.94663  -0.93123  -0.92246  -0.91293  -0.91218
 Alpha  occ. eigenvalues --   -0.91002  -0.89977  -0.89887  -0.89713  -0.89140
 Alpha  occ. eigenvalues --   -0.88280  -0.87529  -0.86586  -0.85749  -0.85437
 Alpha  occ. eigenvalues --   -0.85109  -0.83814  -0.83345  -0.83110  -0.82580
 Alpha  occ. eigenvalues --   -0.82155  -0.80576  -0.79611  -0.79289  -0.78422
 Alpha  occ. eigenvalues --   -0.78040  -0.77841  -0.77222  -0.77161  -0.76565
 Alpha  occ. eigenvalues --   -0.75228  -0.74801  -0.73340  -0.72201  -0.71891
 Alpha  occ. eigenvalues --   -0.70551  -0.69923  -0.69589  -0.68827  -0.67887
 Alpha  occ. eigenvalues --   -0.67751  -0.66842  -0.66360  -0.66199  -0.66167
 Alpha  occ. eigenvalues --   -0.66031  -0.65863  -0.64347  -0.63567  -0.62042
 Alpha  occ. eigenvalues --   -0.61732  -0.61708  -0.61061  -0.60279  -0.60089
 Alpha  occ. eigenvalues --   -0.59741  -0.58894  -0.58219  -0.58191  -0.57867
 Alpha  occ. eigenvalues --   -0.57312  -0.57214  -0.57099  -0.56838  -0.56515
 Alpha  occ. eigenvalues --   -0.56107  -0.55536  -0.55351  -0.55155  -0.54864
 Alpha  occ. eigenvalues --   -0.54704  -0.54509  -0.54386  -0.54236  -0.54073
 Alpha  occ. eigenvalues --   -0.53917  -0.53729  -0.53427  -0.53079  -0.52915
 Alpha  occ. eigenvalues --   -0.52692  -0.52357  -0.52171  -0.51985  -0.51893
 Alpha  occ. eigenvalues --   -0.51775  -0.51736  -0.51363  -0.51070  -0.50995
 Alpha  occ. eigenvalues --   -0.50878  -0.50599  -0.50374  -0.50267  -0.50041
 Alpha  occ. eigenvalues --   -0.49695  -0.49569  -0.48945  -0.48665  -0.48644
 Alpha  occ. eigenvalues --   -0.48425  -0.48154  -0.47946  -0.47877  -0.47789
 Alpha  occ. eigenvalues --   -0.47498  -0.47104  -0.46952  -0.46937  -0.46787
 Alpha  occ. eigenvalues --   -0.46671  -0.46527  -0.46351  -0.46331  -0.46198
 Alpha  occ. eigenvalues --   -0.45830  -0.45780  -0.45696  -0.45595  -0.45161
 Alpha  occ. eigenvalues --   -0.44990  -0.44709  -0.44686  -0.44601  -0.44326
 Alpha  occ. eigenvalues --   -0.44207  -0.43909  -0.43853  -0.43613  -0.43256
 Alpha  occ. eigenvalues --   -0.43033  -0.42737  -0.42462  -0.42268  -0.41649
 Alpha  occ. eigenvalues --   -0.41472  -0.41440  -0.41347  -0.41133  -0.41024
 Alpha  occ. eigenvalues --   -0.40666  -0.40564  -0.39701  -0.39658  -0.39583
 Alpha  occ. eigenvalues --   -0.39055  -0.39030  -0.38968  -0.38334  -0.38238
 Alpha  occ. eigenvalues --   -0.37843  -0.37228  -0.36944  -0.36718  -0.36688
 Alpha  occ. eigenvalues --   -0.36387  -0.35674  -0.35303  -0.34112  -0.33511
 Alpha  occ. eigenvalues --   -0.33230  -0.32552  -0.32349  -0.31418  -0.25884
 Alpha  occ. eigenvalues --   -0.23145
 Alpha virt. eigenvalues --   -0.07386   0.00056   0.02456   0.04103   0.05291
 Alpha virt. eigenvalues --    0.06202   0.07534   0.07573   0.08357   0.09374
 Alpha virt. eigenvalues --    0.10052   0.10500   0.11131   0.11666   0.11982

 Mulliken charges:
               1
     1  Mg   0.952092
     2  C   -0.022881
     3  C   -0.058232
     4  C   -0.058141
     5  C   -0.106764
     6  N   -0.305186
     7  C   -0.047956
     8  C   -0.094536
     9  C   -0.064362
    10  C   -0.016260
    11  C    0.033489
    12  C    0.027208
    13  C    0.032103
    14  C    0.197693
    15  O   -0.262032
    16  O   -0.365392
    17  N   -0.482161
    18  C    0.170305
    19  C   -0.173765
    20  C   -0.044478
    21  C    0.112441
    22  C    0.064134
    23  C    0.047197
    24  O   -0.235716
    25  C   -0.015693
    26  N   -0.406793
    27  C    0.067630
    28  C   -0.046812
    29  C   -0.086322
    30  C    0.095578
    31  C    0.032273
    32  C   -0.002820
    33  C   -0.068775
    34  N   -0.400858
    35  C    0.122502
    36  C   -0.184468
    37  C   -0.038414
    38  C    0.165129
    39  C    0.079446
    40  C    0.119215
    41  O   -0.212975
    42  C   -0.049423
    43  C    0.249416
    44  O   -0.210808
    45  O   -0.384656
    46  C    0.150707
    47  C    0.212916
    48  C   -0.126894
    49  C   -0.223391
    50  C    0.043506
    51  C    0.049082
    52  C   -0.058163
    53  C    0.037985
    54  C   -0.180656
    55  C    0.000108
    56  C   -0.000377
    57  C   -0.037695
    58  C   -0.008942
    59  C   -0.204391
    60  C   -0.000586
    61  C    0.048974
    62  C   -0.052262
    63  C    0.040348
    64  C   -0.185923
    65  C   -0.007352
    66  C   -0.005084
    67  H   -0.011759
    68  H    0.023371
    69  H    0.012181
    70  H    0.037477
    71  H    0.024902
    72  H    0.045625
    73  H    0.053968
    74  H    0.026713
    75  H    0.040241
    76  H    0.039795
    77  H    0.063947
    78  H    0.046071
    79  H    0.033484
    80  H    0.061569
    81  H    0.054956
    82  H    0.054315
    83  H    0.051595
    84  H    0.061514
    85  H    0.036855
    86  H    0.031997
    87  H    0.033072
    88  H    0.030256
    89  H    0.039419
    90  H    0.033433
    91  H    0.030029
    92  H    0.042770
    93  H    0.034145
    94  H    0.029938
    95  H    0.057388
    96  H    0.046829
    97  H    0.049861
    98  H    0.067202
    99  H    0.050007
   100  H    0.065166
   101  H    0.037134
   102  H    0.042423
   103  H    0.055015
   104  H    0.029182
   105  H    0.065368
   106  H    0.027604
   107  H    0.054337
   108  H    0.038096
   109  H    0.020210
   110  H    0.022625
   111  H    0.013606
   112  H    0.009245
   113  H    0.038779
   114  H    0.014571
   115  H    0.036217
   116  H    0.031036
   117  H    0.018730
   118  H    0.016420
   119  H    0.004309
   120  H    0.016582
   121  H    0.014358
   122  H    0.021041
   123  H    0.016433
   124  H    0.011860
   125  H    0.027614
   126  H    0.009159
   127  H    0.029279
   128  H    0.021803
   129  H    0.028602
   130  H    0.016318
   131  H    0.027283
   132  H    0.003121
   133  H    0.013133
   134  H    0.020795
   135  H    0.015099
   136  H    0.032549
   137  H    0.027311
   138  H    0.022877
   139  H    0.015425
   140  H    0.023039
 Sum of Mulliken charges =  -0.00000

 Dipole moment (field-independent basis, Debye):
    X=              4.3718    Y=              2.8320    Z=             -0.3174  Tot=              5.2186
 Quadrupole moment (field-independent basis, Debye-Ang):
   XX=           -373.8885   YY=           -426.2760   ZZ=           -412.8541
   XY=            -29.1782   XZ=              9.4359   YZ=             -2.0159

 Normal termination of Gaussian 16 at Wed Apr 27 20:18:25 2022.
