 Gaussian 16, Revision A.03,
 Gaussian 16:  ES64L-G16RevA.03 25-Dec-2016

 --------------------
 #p ZINDO=(nstates=5)
 --------------------

 ------------------------------
 step_1301_chromophore_12 ZINDO
 ------------------------------
 Symbolic Z-matrix:
 Charge =  0 Multiplicity = 1

                         Standard orientation:
 ---------------------------------------------------------------------
 Center     Atomic      Atomic             Coordinates (Angstroms)
 Number     Number       Type             X           Y           Z
 ---------------------------------------------------------------------
      1         12           0       -3.890025    0.842207   -0.502401
      2          6           0       -3.576974   -2.688608    0.327150
      3          6           0       -0.497589    1.022540   -0.140943
      4          6           0       -4.309176    4.068140   -0.939862
      5          6           0       -7.434821    0.386767    0.088944
      6          7           0       -2.209535   -0.725283    0.088078
      7          6           0       -2.388610   -2.068593    0.093965
      8          6           0       -0.969325   -2.757756    0.146173
      9          6           0        0.001799   -1.561225    0.401529
     10          6           0       -0.916493   -0.328942    0.048752
     11          6           0        0.595896   -1.503855    1.791237
     12          6           0       -0.684288   -3.647919   -1.146857
     13          6           0        0.056842   -4.957359   -0.938051
     14          6           0        1.339633   -5.097707   -1.818365
     15          8           0        1.329091   -5.353591   -3.017944
     16          8           0        2.424595   -5.106160   -0.950303
     17          7           0       -2.530901    2.364344   -0.624403
     18          6           0       -1.205043    2.281822   -0.395892
     19          6           0       -0.660249    3.641364   -0.582849
     20          6           0       -1.665883    4.515888   -0.812530
     21          6           0       -2.886676    3.708303   -0.824781
     22          6           0        0.899141    3.811961   -0.435290
     23          6           0       -1.654437    5.993909   -1.069659
     24          8           0       -2.679198    6.638768   -1.313268
     25          6           0       -0.323317    6.744374   -1.001095
     26          7           0       -5.595219    2.019415   -0.428923
     27          6           0       -5.529259    3.397481   -0.672587
     28          6           0       -6.906671    4.048622   -0.468366
     29          6           0       -7.852417    2.829327   -0.375315
     30          6           0       -6.907220    1.646592   -0.244461
     31          6           0       -7.139216    5.073382    0.583903
     32          6           0       -8.962093    2.693283   -1.395030
     33          6           0       -8.582464    2.265802   -2.865348
     34          7           0       -5.294332   -0.806053    0.078318
     35          6           0       -6.706262   -0.819384    0.175022
     36          6           0       -7.110910   -2.153832    0.495543
     37          6           0       -5.915131   -2.871031    0.593183
     38          6           0       -4.849375   -2.037332    0.341774
     39          6           0       -8.536889   -2.528178    0.589028
     40          6           0       -5.381181   -4.196253    0.916105
     41          8           0       -5.940523   -5.261918    1.175359
     42          6           0       -3.860161   -4.132192    0.761154
     43          6           0       -3.297820   -4.455942    2.110479
     44          8           0       -3.176811   -3.731880    3.050631
     45          8           0       -2.771948   -5.746662    2.069861
     46          6           0       -1.995314   -6.258665    3.135886
     47          6           0        3.661072   -5.174665   -1.739143
     48          6           0        4.841231   -5.100202   -0.731426
     49          6           0        5.962678   -4.384943   -0.945751
     50          6           0        6.196835   -3.816341   -2.325482
     51          6           0        7.022423   -4.398138    0.124222
     52          6           0        7.585450   -3.116485    0.613295
     53          6           0        8.999572   -2.658827    0.055921
     54          6           0        8.865257   -1.478449   -0.904153
     55          6           0        9.964550   -1.613417   -2.001716
     56          6           0        9.083766   -0.121037   -0.156381
     57          6           0        8.224639    1.048915   -0.670292
     58          6           0        8.981812    2.398841   -0.806486
     59          6           0        8.341167    3.562186   -0.050763
     60          6           0        9.142201    4.839351   -0.387624
     61          6           0        8.011373    3.327275    1.462169
     62          6           0        6.489024    3.233461    1.764350
     63          6           0        5.957780    4.276139    2.739233
     64          6           0        4.805412    5.113032    2.210956
     65          6           0        5.235807    6.510169    1.871617
     66          6           0        3.578910    5.149747    3.078864
     67          1           0        0.584270    1.034444    0.008355
     68          1           0       -4.458358    5.130212   -1.144400
     69          1           0       -8.466800    0.411004    0.447878
     70          1           0       -1.170774   -3.366907    1.027715
     71          1           0        0.814892   -1.534136   -0.323806
     72          1           0        1.436767   -2.198202    1.778020
     73          1           0       -0.070725   -1.749213    2.618333
     74          1           0        0.942704   -0.491890    1.998106
     75          1           0       -0.090181   -3.071134   -1.855659
     76          1           0       -1.650273   -3.867850   -1.600055
     77          1           0       -0.605061   -5.787627   -1.184250
     78          1           0        0.316995   -4.979956    0.120376
     79          1           0        1.358714    2.864345   -0.152170
     80          1           0        1.072584    4.615090    0.281229
     81          1           0        1.334957    4.019665   -1.412986
     82          1           0       -0.392823    7.792447   -1.294654
     83          1           0        0.389740    6.206796   -1.625428
     84          1           0       -0.002721    6.773357    0.040154
     85          1           0       -7.111694    4.601522   -1.386188
     86          1           0       -8.374295    2.875817    0.581100
     87          1           0       -6.180338    5.400729    0.985280
     88          1           0       -7.679511    4.702224    1.455058
     89          1           0       -7.614560    5.996961    0.253332
     90          1           0       -9.460334    3.655161   -1.523272
     91          1           0       -9.677925    1.971785   -1.002094
     92          1           0       -9.010088    1.342182   -3.255948
     93          1           0       -7.497811    2.194428   -2.943475
     94          1           0       -8.853273    3.018836   -3.604586
     95          1           0       -8.618000   -3.600869    0.765244
     96          1           0       -9.027396   -2.329231   -0.364048
     97          1           0       -9.014332   -1.931622    1.366439
     98          1           0       -3.409745   -4.840943    0.066253
     99          1           0       -1.585795   -7.177571    2.715431
    100          1           0       -2.611166   -6.437959    4.017490
    101          1           0       -1.173337   -5.547976    3.211081
    102          1           0        3.631942   -4.394070   -2.499306
    103          1           0        3.712040   -6.119413   -2.281795
    104          1           0        4.626279   -5.603134    0.211396
    105          1           0        5.812179   -4.397747   -3.164079
    106          1           0        7.277180   -3.691675   -2.395438
    107          1           0        5.812203   -2.797508   -2.286194
    108          1           0        7.789802   -5.085355   -0.231446
    109          1           0        6.567836   -4.784120    1.036529
    110          1           0        7.676564   -3.118532    1.699412
    111          1           0        6.787250   -2.401808    0.413958
    112          1           0        9.264607   -3.486849   -0.599919
    113          1           0        9.656601   -2.504076    0.912473
    114          1           0        7.855373   -1.380580   -1.303223
    115          1           0       10.708604   -2.408315   -1.956916
    116          1           0       10.468772   -0.660675   -2.167722
    117          1           0        9.440164   -1.882656   -2.918161
    118          1           0       10.111203    0.228004   -0.050508
    119          1           0        8.777812   -0.276598    0.877661
    120          1           0        7.348688    1.162979   -0.032029
    121          1           0        7.773195    0.781326   -1.625452
    122          1           0        9.045814    2.602102   -1.875929
    123          1           0       10.003638    2.265865   -0.452125
    124          1           0        7.461950    3.796590   -0.651531
    125          1           0        8.524918    5.503352   -0.991831
    126          1           0        9.942555    4.604832   -1.088784
    127          1           0        9.644079    5.317573    0.453660
    128          1           0        8.422038    4.222310    1.930694
    129          1           0        8.500031    2.381612    1.696256
    130          1           0        6.479222    2.306894    2.338080
    131          1           0        5.777121    3.144449    0.943314
    132          1           0        6.844813    4.866238    2.972903
    133          1           0        5.681117    3.769529    3.663965
    134          1           0        4.478198    4.664417    1.273122
    135          1           0        4.585448    6.785362    1.040718
    136          1           0        6.297542    6.580079    1.631833
    137          1           0        4.981257    7.331480    2.540648
    138          1           0        3.595181    4.557927    3.994100
    139          1           0        2.694926    4.715274    2.610613
    140          1           0        3.272069    6.160753    3.346082
 ---------------------------------------------------------------------

 SCF Done:  E(RZINDO/S) =  -474.380197274     A.U. after   20 cycles

 Excitation energies and oscillator strengths:

 Excited State   1:      Singlet-A      1.2308 eV 1007.33 nm  f=0.6131  <S**2>=0.000
     175 ->178        -0.19432
     176 ->177         0.66143
 This state for optimization and/or second-order correction.
 Total Energy, E(CIS/TDA) =  -474.334965563
 Copying the excited state density for this state as the 1-particle RhoCI density.

 Excited State   2:      Singlet-A      1.8804 eV  659.36 nm  f=0.0664  <S**2>=0.000
     175 ->177         0.56549
     176 ->178         0.39776

 Excited State   3:      Singlet-A      2.9654 eV  418.10 nm  f=0.0347  <S**2>=0.000
     169 ->177        -0.10556
     169 ->179        -0.11269
     169 ->180         0.11267
     170 ->177         0.29565
     170 ->179         0.32096
     170 ->180        -0.29331
     170 ->185        -0.16835
     170 ->187        -0.12929
     176 ->178         0.11548

 Excited State   4:      Singlet-A      2.9952 eV  413.94 nm  f=0.2230  <S**2>=0.000
     168 ->177         0.23122
     168 ->178        -0.15416
     168 ->179        -0.35708
     168 ->180        -0.29729
     168 ->185         0.18194
     175 ->177         0.16513
     176 ->178        -0.25160

 Excited State   5:      Singlet-A      3.0125 eV  411.56 nm  f=0.8051  <S**2>=0.000
     168 ->177         0.11923
     168 ->179        -0.18052
     168 ->180        -0.16864
     175 ->177        -0.31475
     176 ->178         0.47527

 The electronic state is 1-A.
 Alpha  occ. eigenvalues --   -1.83488  -1.80001  -1.78873  -1.73270  -1.73009
 Alpha  occ. eigenvalues --   -1.71042  -1.66386  -1.62876  -1.59066  -1.58108
 Alpha  occ. eigenvalues --   -1.57505  -1.51876  -1.49341  -1.48414  -1.46210
 Alpha  occ. eigenvalues --   -1.44398  -1.43754  -1.39931  -1.38950  -1.37738
 Alpha  occ. eigenvalues --   -1.36384  -1.35669  -1.33967  -1.31705  -1.30098
 Alpha  occ. eigenvalues --   -1.28863  -1.23730  -1.21985  -1.19956  -1.18133
 Alpha  occ. eigenvalues --   -1.17497  -1.16925  -1.16148  -1.14627  -1.14272
 Alpha  occ. eigenvalues --   -1.13605  -1.12004  -1.10623  -1.04647  -1.03151
 Alpha  occ. eigenvalues --   -1.02517  -1.01471  -0.97929  -0.97683  -0.96487
 Alpha  occ. eigenvalues --   -0.96129  -0.94279  -0.93770  -0.93287  -0.92821
 Alpha  occ. eigenvalues --   -0.91392  -0.90302  -0.89574  -0.88412  -0.86421
 Alpha  occ. eigenvalues --   -0.85036  -0.84897  -0.83080  -0.81405  -0.80175
 Alpha  occ. eigenvalues --   -0.79988  -0.79002  -0.78702  -0.77067  -0.76486
 Alpha  occ. eigenvalues --   -0.75661  -0.75051  -0.74803  -0.74281  -0.73814
 Alpha  occ. eigenvalues --   -0.73276  -0.72910  -0.72263  -0.72139  -0.71247
 Alpha  occ. eigenvalues --   -0.70919  -0.70162  -0.69359  -0.68688  -0.68083
 Alpha  occ. eigenvalues --   -0.67878  -0.67748  -0.66903  -0.66520  -0.66053
 Alpha  occ. eigenvalues --   -0.66032  -0.65669  -0.64655  -0.64058  -0.63774
 Alpha  occ. eigenvalues --   -0.63340  -0.62970  -0.62822  -0.62549  -0.62203
 Alpha  occ. eigenvalues --   -0.61529  -0.61434  -0.61144  -0.60559  -0.60313
 Alpha  occ. eigenvalues --   -0.59829  -0.59553  -0.59228  -0.59035  -0.58479
 Alpha  occ. eigenvalues --   -0.58216  -0.57441  -0.57397  -0.56829  -0.56513
 Alpha  occ. eigenvalues --   -0.55893  -0.55828  -0.55291  -0.55094  -0.54596
 Alpha  occ. eigenvalues --   -0.54334  -0.53957  -0.53544  -0.53029  -0.52693
 Alpha  occ. eigenvalues --   -0.52569  -0.52295  -0.51845  -0.51359  -0.51002
 Alpha  occ. eigenvalues --   -0.50918  -0.50806  -0.50555  -0.50489  -0.50384
 Alpha  occ. eigenvalues --   -0.49997  -0.49716  -0.49628  -0.49008  -0.48594
 Alpha  occ. eigenvalues --   -0.48525  -0.48332  -0.48231  -0.48179  -0.47945
 Alpha  occ. eigenvalues --   -0.47610  -0.47303  -0.47246  -0.47095  -0.46262
 Alpha  occ. eigenvalues --   -0.45861  -0.45756  -0.45722  -0.45535  -0.44972
 Alpha  occ. eigenvalues --   -0.44949  -0.44724  -0.44654  -0.44379  -0.43798
 Alpha  occ. eigenvalues --   -0.43702  -0.43114  -0.43000  -0.42557  -0.42276
 Alpha  occ. eigenvalues --   -0.42255  -0.42028  -0.41583  -0.39400  -0.38637
 Alpha  occ. eigenvalues --   -0.38158  -0.36680  -0.35942  -0.35084  -0.34670
 Alpha  occ. eigenvalues --   -0.33887  -0.32656  -0.32510  -0.32355  -0.26460
 Alpha  occ. eigenvalues --   -0.21790
 Alpha virt. eigenvalues --   -0.08716  -0.02025  -0.00546   0.01053   0.01096
 Alpha virt. eigenvalues --    0.01717   0.02915   0.03420   0.04488   0.04531
 Alpha virt. eigenvalues --    0.06044   0.06819   0.07061   0.07619   0.08154

 Mulliken charges:
               1
     1  Mg   0.432662
     2  C   -0.042278
     3  C   -0.092606
     4  C   -0.061697
     5  C   -0.062487
     6  N   -0.286994
     7  C    0.118808
     8  C   -0.010623
     9  C    0.020385
    10  C    0.129824
    11  C   -0.042080
    12  C   -0.021240
    13  C    0.002599
    14  C    0.462794
    15  O   -0.506798
    16  O   -0.266513
    17  N   -0.307289
    18  C    0.113586
    19  C    0.012065
    20  C   -0.012927
    21  C    0.117270
    22  C   -0.053090
    23  C    0.330023
    24  O   -0.520014
    25  C   -0.030275
    26  N   -0.270288
    27  C    0.131439
    28  C    0.021180
    29  C    0.007778
    30  C    0.123080
    31  C   -0.042763
    32  C   -0.020313
    33  C   -0.062202
    34  N   -0.344708
    35  C    0.078096
    36  C    0.038661
    37  C   -0.048745
    38  C    0.125550
    39  C   -0.034371
    40  C    0.335031
    41  O   -0.528187
    42  C    0.059223
    43  C    0.493835
    44  O   -0.509092
    45  O   -0.293150
    46  C    0.079831
    47  C    0.094827
    48  C   -0.101288
    49  C   -0.005767
    50  C   -0.041945
    51  C   -0.009479
    52  C   -0.038313
    53  C   -0.037551
    54  C   -0.006884
    55  C   -0.062364
    56  C   -0.040174
    57  C   -0.043959
    58  C   -0.029012
    59  C   -0.020259
    60  C   -0.064456
    61  C   -0.030216
    62  C   -0.042280
    63  C   -0.032361
    64  C    0.006368
    65  C   -0.055509
    66  C   -0.054877
    67  H    0.019130
    68  H    0.038147
    69  H    0.031201
    70  H    0.039143
    71  H    0.025478
    72  H    0.017252
    73  H    0.032776
    74  H    0.018277
    75  H    0.029277
    76  H    0.025966
    77  H    0.045161
    78  H    0.033819
    79  H    0.028937
    80  H    0.032876
    81  H    0.029286
    82  H    0.038134
    83  H    0.034878
    84  H    0.037707
    85  H    0.025540
    86  H    0.021432
    87  H    0.016535
    88  H    0.019568
    89  H    0.023337
    90  H    0.016780
    91  H    0.019444
    92  H    0.024481
    93  H    0.018721
    94  H    0.015164
    95  H    0.030572
    96  H    0.028330
    97  H    0.034380
    98  H    0.056841
    99  H    0.027515
   100  H    0.056273
   101  H    0.039024
   102  H    0.048773
   103  H    0.048934
   104  H    0.034951
   105  H    0.038795
   106  H    0.016691
   107  H    0.030660
   108  H    0.027392
   109  H    0.016401
   110  H    0.011200
   111  H    0.016438
   112  H    0.018869
   113  H    0.034818
   114  H    0.034168
   115  H    0.026548
   116  H    0.018941
   117  H    0.006684
   118  H    0.024323
   119  H    0.004189
   120  H    0.015632
   121  H    0.011931
   122  H    0.016121
   123  H    0.017582
   124  H    0.013275
   125  H    0.017992
   126  H    0.009189
   127  H    0.022207
   128  H    0.029943
   129  H    0.030233
   130  H    0.007469
   131  H    0.031705
   132  H    0.018582
   133  H    0.015177
   134  H    0.017141
   135  H    0.006789
   136  H    0.019398
   137  H    0.020995
   138  H    0.016588
   139  H    0.007268
   140  H    0.017140
 Sum of Mulliken charges =  -0.00000

 Dipole moment (field-independent basis, Debye):
    X=              6.4580    Y=              3.6585    Z=             -0.4803  Tot=              7.4378
 N-N= 4.505428393189D+03 E-N= 0.000000000000D+00  KE=-9.684834954699D+03
 Leave Link  601 at Wed Apr 27 20:40:46 2022, MaxMem=  6710886400 cpu:               1.1 elap:               0.1
 (Enter /sw/apps/gaussian-16.0/g16/l9999.exe)
 1\1\GINC-BP1-COMPUTE182\SP\RZINDO CIS\STO-3G\C55H74Mg1N4O6\OF15641\27-
 Apr-2022\0\\#p ZINDO=(nstates=5)\\step_1301_chromophore_12 ZINDO\\0,1\
 Mg,0,47.326,15.678,29.178\C,0,44.985,14.84,31.837\C,0,48.748,17.859,31
 .39\C,0,49.178,16.598,26.629\C,0,45.016,13.964,26.976\N,0,46.848,16.30
 1,31.417\C,0,46.036,15.601,32.246\C,0,46.288,16.098,33.723\C,0,47.206,
 17.347,33.53\C,0,47.691,17.155,32.042\C,0,46.538,18.679,33.789\C,0,46.
 848,14.936,34.662\C,0,46.34,14.895,36.093\C,0,47.479,14.906,37.162\O,0

 Normal termination of Gaussian 16 at Wed Apr 27 20:40:46 2022.
