 Gaussian 16, Revision A.03,
 Gaussian 16:  ES64L-G16RevA.03 25-Dec-2016

 ------------------------------
 #p blyp/Def2SVP td=(nstates=5)
 ------------------------------

 ---------------------------------------------------
 step_1551_chromophore_16 TDDFT with blyp functional
 ---------------------------------------------------
 Symbolic Z-matrix:
 Charge =  0 Multiplicity = 1

                         Standard orientation:
 ---------------------------------------------------------------------
 Center     Atomic      Atomic             Coordinates (Angstroms)
 Number     Number       Type             X           Y           Z
 ---------------------------------------------------------------------
      1         12           0        6.024324    0.407520    0.124561
      2          6           0        4.025161   -2.235862   -0.090774
      3          6           0        3.328961    2.521080   -0.842813
      4          6           0        8.053922    3.177442    0.078204
      5          6           0        8.834475   -1.666990    0.650151
      6          7           0        3.957531    0.152523   -0.346727
      7          6           0        3.275993   -1.066996   -0.347845
      8          6           0        1.824587   -0.922080   -0.843810
      9          6           0        1.661254    0.595590   -0.931176
     10          6           0        3.078840    1.158471   -0.699838
     11          6           0        0.892906    1.241853   -2.130923
     12          6           0        0.734275   -1.768141   -0.137407
     13          6           0       -0.633847   -1.093775    0.053130
     14          6           0       -1.772027   -1.899403    0.690339
     15          8           0       -2.016378   -1.943224    1.892116
     16          8           0       -2.454010   -2.514967   -0.336775
     17          7           0        5.728980    2.582450   -0.334322
     18          6           0        4.538619    3.220795   -0.674619
     19          6           0        4.800488    4.644461   -0.817344
     20          6           0        6.213946    4.827812   -0.652572
     21          6           0        6.740321    3.523775   -0.325491
     22          6           0        3.721275    5.705103   -1.053435
     23          6           0        7.085987    6.118338   -0.753485
     24          8           0        8.286230    6.085488   -0.766598
     25          6           0        6.509319    7.470526   -0.877508
     26          7           0        8.193711    0.658890    0.149819
     27          6           0        8.664305    1.959267    0.371690
     28          6           0       10.151380    1.899525    0.757956
     29          6           0       10.413526    0.348278    1.017699
     30          6           0        9.113720   -0.297172    0.501806
     31          6           0       11.029161    2.381781   -0.360643
     32          6           0       10.596739    0.081154    2.594384
     33          6           0        9.600702    0.688794    3.617190
     34          7           0        6.459590   -1.571233    0.213690
     35          6           0        7.561076   -2.337387    0.497040
     36          6           0        7.188143   -3.717733    0.603402
     37          6           0        5.858325   -3.740859    0.401022
     38          6           0        5.416710   -2.372278    0.186949
     39          6           0        8.108260   -4.842290    0.973151
     40          6           0        4.675421   -4.639706    0.364210
     41          8           0        4.616571   -5.837488    0.531547
     42          6           0        3.446277   -3.643912    0.115817
     43          6           0        2.729324   -4.186971   -1.063382
     44          8           0        2.999157   -3.958802   -2.253394
     45          8           0        1.872916   -5.106228   -0.536041
     46          6           0        1.049775   -5.762105   -1.615978
     47          6           0       -3.720366   -3.198309    0.007085
     48          6           0       -4.771582   -2.325488   -0.811996
     49          6           0       -6.089035   -2.408113   -0.784928
     50          6           0       -6.852431   -3.434119    0.041334
     51          6           0       -7.041837   -1.441265   -1.457263
     52          6           0       -7.026891   -0.060955   -0.965341
     53          6           0       -8.175470    0.247233    0.000394
     54          6           0       -9.248225    1.203370   -0.507637
     55          6           0       -8.969848    2.665577   -0.208168
     56          6           0      -10.632052    0.861310   -0.089418
     57          6           0      -11.297147   -0.191781   -1.022781
     58          6           0      -12.426049    0.563685   -1.890008
     59          6           0      -13.792499    0.512094   -1.281067
     60          6           0      -14.868411   -0.084082   -2.291207
     61          6           0      -14.219727    1.782193   -0.550096
     62          6           0      -14.944435    1.601840    0.801942
     63          6           0      -14.266595    2.445044    1.852057
     64          6           0      -13.388797    1.569042    2.849253
     65          6           0      -12.223608    2.311560    3.448255
     66          6           0      -14.306436    1.147982    4.063081
     67          1           0        2.449982    3.117464   -1.096510
     68          1           0        8.772074    3.979816    0.260116
     69          1           0        9.658093   -2.327237    0.930337
     70          1           0        1.672625   -1.237458   -1.876077
     71          1           0        1.230059    0.909031    0.019047
     72          1           0        1.426683    1.603917   -3.010266
     73          1           0        0.455245    2.115012   -1.645497
     74          1           0        0.009238    0.658491   -2.386853
     75          1           0        1.110311   -1.976471    0.864161
     76          1           0        0.609387   -2.699655   -0.690648
     77          1           0       -0.929700   -0.784223   -0.949745
     78          1           0       -0.589979   -0.210315    0.689417
     79          1           0        4.061010    6.134799   -1.995458
     80          1           0        3.814360    6.532105   -0.349493
     81          1           0        2.679163    5.403638   -1.158739
     82          1           0        7.161101    8.340341   -0.795161
     83          1           0        5.862878    7.520859   -0.001886
     84          1           0        5.884032    7.710727   -1.737984
     85          1           0       10.239342    2.527618    1.644901
     86          1           0       11.200946   -0.039502    0.370007
     87          1           0       11.874571    1.757260   -0.652278
     88          1           0       11.417490    3.320642    0.034373
     89          1           0       10.337477    2.421875   -1.201458
     90          1           0       11.630366    0.323781    2.839660
     91          1           0       10.578109   -1.007327    2.545780
     92          1           0        9.055094    1.541652    3.211735
     93          1           0       10.078957    1.161688    4.474498
     94          1           0        8.825922   -0.033657    3.871765
     95          1           0        8.310455   -5.315534    0.012613
     96          1           0        7.802752   -5.504008    1.784834
     97          1           0        9.019582   -4.483289    1.451769
     98          1           0        2.781792   -3.659686    0.980426
     99          1           0        1.679044   -6.125100   -2.428330
    100          1           0        0.271097   -5.050582   -1.891047
    101          1           0        0.377419   -6.518216   -1.210333
    102          1           0       -3.965958   -3.026572    1.054847
    103          1           0       -3.701810   -4.266673   -0.205385
    104          1           0       -4.401145   -1.408489   -1.270529
    105          1           0       -7.630018   -2.945679    0.627406
    106          1           0       -6.248545   -3.999567    0.750013
    107          1           0       -7.141443   -4.234435   -0.640401
    108          1           0       -8.065406   -1.812187   -1.502736
    109          1           0       -6.784516   -1.411796   -2.515792
    110          1           0       -6.941239    0.571594   -1.849145
    111          1           0       -6.155017    0.194823   -0.363279
    112          1           0       -7.743213    0.744864    0.869755
    113          1           0       -8.518332   -0.726287    0.351038
    114          1           0       -9.141236    1.153053   -1.591572
    115          1           0       -7.905340    2.677584    0.025692
    116          1           0       -9.572189    3.055528    0.611553
    117          1           0       -9.117295    3.246751   -1.118611
    118          1           0      -11.314047    1.710200   -0.045483
    119          1           0      -10.566256    0.477563    0.928912
    120          1           0      -11.796317   -0.965317   -0.440570
    121          1           0      -10.621284   -0.712796   -1.700549
    122          1           0      -12.444903    0.075691   -2.863975
    123          1           0      -12.131550    1.593356   -2.093856
    124          1           0      -13.807320   -0.269661   -0.521629
    125          1           0      -14.965335    0.514295   -3.197472
    126          1           0      -15.852430   -0.048177   -1.822934
    127          1           0      -14.527771   -1.104301   -2.462270
    128          1           0      -14.927135    2.159878   -1.289059
    129          1           0      -13.442234    2.544460   -0.513229
    130          1           0      -15.136208    0.570447    1.098776
    131          1           0      -15.912540    2.093544    0.701808
    132          1           0      -15.003298    3.031178    2.401450
    133          1           0      -13.535960    3.152828    1.458123
    134          1           0      -13.137980    0.656794    2.306963
    135          1           0      -11.669578    1.734921    4.188844
    136          1           0      -12.570556    3.215928    3.948748
    137          1           0      -11.561750    2.566676    2.621267
    138          1           0      -14.125916    0.076379    3.989830
    139          1           0      -15.352450    1.326058    3.812838
    140          1           0      -14.023080    1.408992    5.082631
 ---------------------------------------------------------------------

 SCF Done:  E(RB-LYP) =  -3007.35094569     A.U. after   20 cycles

 Excitation energies and oscillator strengths:

 Excited State   1:      Singlet-A      1.7879 eV  693.46 nm  f=0.2772  <S**2>=0.000
     244 -> 247       -0.16211
     245 -> 248        0.18333
     246 -> 247        0.67103
     246 <- 247       -0.14687
 This state for optimization and/or second-order correction.
 Total Energy, E(TD-HF/TD-DFT) =  -3007.28524139
 Copying the excited state density for this state as the 1-particle RhoCI density.

 Excited State   2:      Singlet-A      1.9158 eV  647.16 nm  f=0.0485  <S**2>=0.000
     244 -> 247        0.59546
     245 -> 247       -0.32109
     246 -> 247        0.17235

 Excited State   3:      Singlet-A      2.0240 eV  612.57 nm  f=0.0647  <S**2>=0.000
     244 -> 247        0.33990
     245 -> 247        0.55812
     246 -> 248       -0.22939

 Excited State   4:      Singlet-A      2.1170 eV  585.66 nm  f=0.0026  <S**2>=0.000
     243 -> 247        0.70034

 Excited State   5:      Singlet-A      2.4639 eV  503.21 nm  f=0.0055  <S**2>=0.000
     242 -> 247        0.69113

 The electronic state is 1-A.
 Alpha  occ. eigenvalues --  -46.27477 -18.82833 -18.82497 -18.77637 -18.76581
 Alpha  occ. eigenvalues --  -18.76466 -18.75369 -14.03689 -14.02596 -14.00729
 Alpha  occ. eigenvalues --  -14.00598 -10.04755 -10.03469 -10.00194  -9.99984
 Alpha  occ. eigenvalues --   -9.99079  -9.97763  -9.97097  -9.96579  -9.96123
 Alpha  occ. eigenvalues --   -9.95810  -9.95473  -9.95462  -9.95321  -9.94602
 Alpha  occ. eigenvalues --   -9.94225  -9.94216  -9.94190  -9.93765  -9.93727
 Alpha  occ. eigenvalues --   -9.93699  -9.93637  -9.93480  -9.93351  -9.93149
 Alpha  occ. eigenvalues --   -9.92986  -9.92954  -9.92899  -9.92741  -9.92662
 Alpha  occ. eigenvalues --   -9.92620  -9.92614  -9.92339  -9.92265  -9.92245
 Alpha  occ. eigenvalues --   -9.91993  -9.91919  -9.91835  -9.91813  -9.91729
 Alpha  occ. eigenvalues --   -9.91497  -9.91357  -9.91279  -9.91262  -9.91183
 Alpha  occ. eigenvalues --   -9.91181  -9.91167  -9.90984  -9.90976  -9.90857
 Alpha  occ. eigenvalues --   -9.90857  -9.90796  -9.90793  -9.90790  -9.90786
 Alpha  occ. eigenvalues --   -9.90399  -2.91976  -1.72403  -1.71863  -1.71682
 Alpha  occ. eigenvalues --   -0.97722  -0.97150  -0.92809  -0.92201  -0.90492
 Alpha  occ. eigenvalues --   -0.89048  -0.87112  -0.85177  -0.84283  -0.83612
 Alpha  occ. eigenvalues --   -0.74763  -0.74592  -0.73514  -0.73318  -0.72574
 Alpha  occ. eigenvalues --   -0.71517  -0.71182  -0.71082  -0.70722  -0.70417
 Alpha  occ. eigenvalues --   -0.69601  -0.69353  -0.68355  -0.67205  -0.67050
 Alpha  occ. eigenvalues --   -0.66701  -0.65700  -0.65451  -0.64806  -0.64540
 Alpha  occ. eigenvalues --   -0.64168  -0.62784  -0.62355  -0.61514  -0.60920
 Alpha  occ. eigenvalues --   -0.60623  -0.59896  -0.59458  -0.59422  -0.59158
 Alpha  occ. eigenvalues --   -0.59013  -0.57930  -0.57226  -0.55776  -0.54691
 Alpha  occ. eigenvalues --   -0.54214  -0.53641  -0.52961  -0.52180  -0.51601
 Alpha  occ. eigenvalues --   -0.51190  -0.50707  -0.50310  -0.50105  -0.49773
 Alpha  occ. eigenvalues --   -0.49562  -0.49441  -0.48565  -0.47685  -0.46377
 Alpha  occ. eigenvalues --   -0.46321  -0.45983  -0.45882  -0.45136  -0.44175
 Alpha  occ. eigenvalues --   -0.43707  -0.43443  -0.42979  -0.42851  -0.42650
 Alpha  occ. eigenvalues --   -0.42537  -0.41990  -0.41848  -0.41549  -0.41363
 Alpha  occ. eigenvalues --   -0.40990  -0.40920  -0.40510  -0.40414  -0.40237
 Alpha  occ. eigenvalues --   -0.39813  -0.39454  -0.39329  -0.39252  -0.39023
 Alpha  occ. eigenvalues --   -0.38977  -0.38879  -0.38676  -0.38361  -0.37981
 Alpha  occ. eigenvalues --   -0.37885  -0.37618  -0.37561  -0.37245  -0.37150
 Alpha  occ. eigenvalues --   -0.37095  -0.36968  -0.36737  -0.36638  -0.36516
 Alpha  occ. eigenvalues --   -0.36410  -0.36259  -0.36165  -0.36016  -0.35826
 Alpha  occ. eigenvalues --   -0.35718  -0.35591  -0.35500  -0.35334  -0.35142
 Alpha  occ. eigenvalues --   -0.34960  -0.34810  -0.34174  -0.33894  -0.33744
 Alpha  occ. eigenvalues --   -0.33682  -0.33497  -0.33250  -0.33108  -0.33042
 Alpha  occ. eigenvalues --   -0.32864  -0.32777  -0.32642  -0.32285  -0.32274
 Alpha  occ. eigenvalues --   -0.32006  -0.31930  -0.31894  -0.31607  -0.31505
 Alpha  occ. eigenvalues --   -0.31418  -0.31341  -0.31224  -0.31101  -0.30963
 Alpha  occ. eigenvalues --   -0.30750  -0.30590  -0.30454  -0.30445  -0.30183
 Alpha  occ. eigenvalues --   -0.30022  -0.29725  -0.29432  -0.29282  -0.29253
 Alpha  occ. eigenvalues --   -0.28639  -0.28483  -0.28117  -0.28075  -0.27821
 Alpha  occ. eigenvalues --   -0.27100  -0.26839  -0.26743  -0.26497  -0.26319
 Alpha  occ. eigenvalues --   -0.26116  -0.25814  -0.25505  -0.25402  -0.25239
 Alpha  occ. eigenvalues --   -0.24948  -0.24885  -0.24099  -0.23467  -0.23068
 Alpha  occ. eigenvalues --   -0.22837  -0.22667  -0.22045  -0.21684  -0.21233
 Alpha  occ. eigenvalues --   -0.20655  -0.19917  -0.19125  -0.18477  -0.17050
 Alpha  occ. eigenvalues --   -0.15666
 Alpha virt. eigenvalues --   -0.11455  -0.06525  -0.05875  -0.04297  -0.03295
 Alpha virt. eigenvalues --   -0.02425  -0.02357  -0.01530  -0.01327   0.00218
 Alpha virt. eigenvalues --    0.01514   0.01922   0.02283   0.02395   0.02517

 Mulliken charges:
               1
     1  Mg   0.675499
     2  C    0.064397
     3  C   -0.085350
     4  C   -0.009662
     5  C   -0.060126
     6  N   -0.257369
     7  C   -0.037968
     8  C    0.038842
     9  C    0.000851
    10  C    0.038212
    11  C    0.145931
    12  C    0.087767
    13  C    0.135858
    14  C    0.089265
    15  O   -0.180899
    16  O   -0.282663
    17  N   -0.261555
    18  C    0.129924
    19  C   -0.140632
    20  C    0.023559
    21  C    0.106038
    22  C    0.169904
    23  C   -0.044784
    24  O   -0.143207
    25  C    0.118410
    26  N   -0.229230
    27  C   -0.013829
    28  C   -0.030343
    29  C    0.042351
    30  C    0.015660
    31  C    0.147240
    32  C    0.086927
    33  C    0.074640
    34  N   -0.258009
    35  C    0.071649
    36  C   -0.182993
    37  C    0.087235
    38  C    0.075858
    39  C    0.164508
    40  C   -0.007737
    41  O   -0.100532
    42  C   -0.029309
    43  C    0.117574
    44  O   -0.202635
    45  O   -0.268840
    46  C    0.223801
    47  C    0.290401
    48  C   -0.109526
    49  C   -0.131869
    50  C    0.133261
    51  C    0.149045
    52  C    0.085897
    53  C    0.107664
    54  C   -0.071579
    55  C    0.125592
    56  C    0.106336
    57  C    0.062851
    58  C    0.098384
    59  C   -0.071727
    60  C    0.087990
    61  C    0.118963
    62  C    0.121014
    63  C    0.073172
    64  C   -0.120601
    65  C    0.113929
    66  C    0.095509
    67  H   -0.083623
    68  H   -0.047108
    69  H   -0.058730
    70  H   -0.015438
    71  H   -0.021870
    72  H    0.012448
    73  H   -0.014042
    74  H   -0.013064
    75  H   -0.021039
    76  H    0.000380
    77  H   -0.020479
    78  H   -0.008425
    79  H   -0.000371
    80  H   -0.001555
    81  H   -0.003478
    82  H   -0.011433
    83  H   -0.006709
    84  H    0.006651
    85  H   -0.019856
    86  H   -0.027067
    87  H   -0.012567
    88  H   -0.000397
    89  H    0.003340
    90  H   -0.020093
    91  H   -0.035132
    92  H   -0.006504
    93  H   -0.003440
    94  H    0.004013
    95  H    0.020092
    96  H    0.007508
    97  H   -0.026917
    98  H    0.012220
    99  H    0.040506
   100  H    0.003112
   101  H    0.005391
   102  H    0.019809
   103  H    0.020084
   104  H   -0.037361
   105  H    0.009479
   106  H   -0.035452
   107  H    0.002040
   108  H   -0.038286
   109  H   -0.034102
   110  H   -0.034132
   111  H   -0.032777
   112  H   -0.046689
   113  H   -0.038569
   114  H   -0.052632
   115  H   -0.034007
   116  H   -0.004008
   117  H   -0.017040
   118  H   -0.025840
   119  H   -0.031314
   120  H   -0.039554
   121  H   -0.026962
   122  H   -0.056244
   123  H   -0.034667
   124  H   -0.048854
   125  H   -0.011956
   126  H   -0.021636
   127  H   -0.003935
   128  H   -0.052400
   129  H   -0.032152
   130  H   -0.019693
   131  H   -0.042570
   132  H   -0.035514
   133  H   -0.042826
   134  H   -0.023544
   135  H   -0.016762
   136  H   -0.014745
   137  H   -0.016168
   138  H   -0.029338
   139  H   -0.016821
   140  H   -0.008118
 Sum of Mulliken charges =  -0.00000

 Dipole moment (field-independent basis, Debye):
    X=             -4.0231    Y=              2.3229    Z=              0.3871  Tot=              4.6617
 Quadrupole moment (field-independent basis, Debye-Ang):
   XX=           -389.6648   YY=           -414.3810   ZZ=           -412.7922
   XY=              4.3290   XZ=             27.4821   YZ=              3.2615

 Normal termination of Gaussian 16 at Wed May  4 09:54:42 2022.
