 Gaussian 16, Revision A.03,
 Gaussian 16:  ES64L-G16RevA.03 25-Dec-2016

 -----------------------------------
 #p cam-b3lyp/Def2SVP td=(nstates=5)
 -----------------------------------

 --------------------------------------------------------
 step_1551_chromophore_16 TDDFT with cam-b3lyp functional
 --------------------------------------------------------
 Symbolic Z-matrix:
 Charge =  0 Multiplicity = 1

                         Standard orientation:
 ---------------------------------------------------------------------
 Center     Atomic      Atomic             Coordinates (Angstroms)
 Number     Number       Type             X           Y           Z
 ---------------------------------------------------------------------
      1         12           0        6.024324    0.407520    0.124561
      2          6           0        4.025161   -2.235862   -0.090774
      3          6           0        3.328961    2.521080   -0.842813
      4          6           0        8.053922    3.177442    0.078204
      5          6           0        8.834475   -1.666990    0.650151
      6          7           0        3.957531    0.152523   -0.346727
      7          6           0        3.275993   -1.066996   -0.347845
      8          6           0        1.824587   -0.922080   -0.843810
      9          6           0        1.661254    0.595590   -0.931176
     10          6           0        3.078840    1.158471   -0.699838
     11          6           0        0.892906    1.241853   -2.130923
     12          6           0        0.734275   -1.768141   -0.137407
     13          6           0       -0.633847   -1.093775    0.053130
     14          6           0       -1.772027   -1.899403    0.690339
     15          8           0       -2.016378   -1.943224    1.892116
     16          8           0       -2.454010   -2.514967   -0.336775
     17          7           0        5.728980    2.582450   -0.334322
     18          6           0        4.538619    3.220795   -0.674619
     19          6           0        4.800488    4.644461   -0.817344
     20          6           0        6.213946    4.827812   -0.652572
     21          6           0        6.740321    3.523775   -0.325491
     22          6           0        3.721275    5.705103   -1.053435
     23          6           0        7.085987    6.118338   -0.753485
     24          8           0        8.286230    6.085488   -0.766598
     25          6           0        6.509319    7.470526   -0.877508
     26          7           0        8.193711    0.658890    0.149819
     27          6           0        8.664305    1.959267    0.371690
     28          6           0       10.151380    1.899525    0.757956
     29          6           0       10.413526    0.348278    1.017699
     30          6           0        9.113720   -0.297172    0.501806
     31          6           0       11.029161    2.381781   -0.360643
     32          6           0       10.596739    0.081154    2.594384
     33          6           0        9.600702    0.688794    3.617190
     34          7           0        6.459590   -1.571233    0.213690
     35          6           0        7.561076   -2.337387    0.497040
     36          6           0        7.188143   -3.717733    0.603402
     37          6           0        5.858325   -3.740859    0.401022
     38          6           0        5.416710   -2.372278    0.186949
     39          6           0        8.108260   -4.842290    0.973151
     40          6           0        4.675421   -4.639706    0.364210
     41          8           0        4.616571   -5.837488    0.531547
     42          6           0        3.446277   -3.643912    0.115817
     43          6           0        2.729324   -4.186971   -1.063382
     44          8           0        2.999157   -3.958802   -2.253394
     45          8           0        1.872916   -5.106228   -0.536041
     46          6           0        1.049775   -5.762105   -1.615978
     47          6           0       -3.720366   -3.198309    0.007085
     48          6           0       -4.771582   -2.325488   -0.811996
     49          6           0       -6.089035   -2.408113   -0.784928
     50          6           0       -6.852431   -3.434119    0.041334
     51          6           0       -7.041837   -1.441265   -1.457263
     52          6           0       -7.026891   -0.060955   -0.965341
     53          6           0       -8.175470    0.247233    0.000394
     54          6           0       -9.248225    1.203370   -0.507637
     55          6           0       -8.969848    2.665577   -0.208168
     56          6           0      -10.632052    0.861310   -0.089418
     57          6           0      -11.297147   -0.191781   -1.022781
     58          6           0      -12.426049    0.563685   -1.890008
     59          6           0      -13.792499    0.512094   -1.281067
     60          6           0      -14.868411   -0.084082   -2.291207
     61          6           0      -14.219727    1.782193   -0.550096
     62          6           0      -14.944435    1.601840    0.801942
     63          6           0      -14.266595    2.445044    1.852057
     64          6           0      -13.388797    1.569042    2.849253
     65          6           0      -12.223608    2.311560    3.448255
     66          6           0      -14.306436    1.147982    4.063081
     67          1           0        2.449982    3.117464   -1.096510
     68          1           0        8.772074    3.979816    0.260116
     69          1           0        9.658093   -2.327237    0.930337
     70          1           0        1.672625   -1.237458   -1.876077
     71          1           0        1.230059    0.909031    0.019047
     72          1           0        1.426683    1.603917   -3.010266
     73          1           0        0.455245    2.115012   -1.645497
     74          1           0        0.009238    0.658491   -2.386853
     75          1           0        1.110311   -1.976471    0.864161
     76          1           0        0.609387   -2.699655   -0.690648
     77          1           0       -0.929700   -0.784223   -0.949745
     78          1           0       -0.589979   -0.210315    0.689417
     79          1           0        4.061010    6.134799   -1.995458
     80          1           0        3.814360    6.532105   -0.349493
     81          1           0        2.679163    5.403638   -1.158739
     82          1           0        7.161101    8.340341   -0.795161
     83          1           0        5.862878    7.520859   -0.001886
     84          1           0        5.884032    7.710727   -1.737984
     85          1           0       10.239342    2.527618    1.644901
     86          1           0       11.200946   -0.039502    0.370007
     87          1           0       11.874571    1.757260   -0.652278
     88          1           0       11.417490    3.320642    0.034373
     89          1           0       10.337477    2.421875   -1.201458
     90          1           0       11.630366    0.323781    2.839660
     91          1           0       10.578109   -1.007327    2.545780
     92          1           0        9.055094    1.541652    3.211735
     93          1           0       10.078957    1.161688    4.474498
     94          1           0        8.825922   -0.033657    3.871765
     95          1           0        8.310455   -5.315534    0.012613
     96          1           0        7.802752   -5.504008    1.784834
     97          1           0        9.019582   -4.483289    1.451769
     98          1           0        2.781792   -3.659686    0.980426
     99          1           0        1.679044   -6.125100   -2.428330
    100          1           0        0.271097   -5.050582   -1.891047
    101          1           0        0.377419   -6.518216   -1.210333
    102          1           0       -3.965958   -3.026572    1.054847
    103          1           0       -3.701810   -4.266673   -0.205385
    104          1           0       -4.401145   -1.408489   -1.270529
    105          1           0       -7.630018   -2.945679    0.627406
    106          1           0       -6.248545   -3.999567    0.750013
    107          1           0       -7.141443   -4.234435   -0.640401
    108          1           0       -8.065406   -1.812187   -1.502736
    109          1           0       -6.784516   -1.411796   -2.515792
    110          1           0       -6.941239    0.571594   -1.849145
    111          1           0       -6.155017    0.194823   -0.363279
    112          1           0       -7.743213    0.744864    0.869755
    113          1           0       -8.518332   -0.726287    0.351038
    114          1           0       -9.141236    1.153053   -1.591572
    115          1           0       -7.905340    2.677584    0.025692
    116          1           0       -9.572189    3.055528    0.611553
    117          1           0       -9.117295    3.246751   -1.118611
    118          1           0      -11.314047    1.710200   -0.045483
    119          1           0      -10.566256    0.477563    0.928912
    120          1           0      -11.796317   -0.965317   -0.440570
    121          1           0      -10.621284   -0.712796   -1.700549
    122          1           0      -12.444903    0.075691   -2.863975
    123          1           0      -12.131550    1.593356   -2.093856
    124          1           0      -13.807320   -0.269661   -0.521629
    125          1           0      -14.965335    0.514295   -3.197472
    126          1           0      -15.852430   -0.048177   -1.822934
    127          1           0      -14.527771   -1.104301   -2.462270
    128          1           0      -14.927135    2.159878   -1.289059
    129          1           0      -13.442234    2.544460   -0.513229
    130          1           0      -15.136208    0.570447    1.098776
    131          1           0      -15.912540    2.093544    0.701808
    132          1           0      -15.003298    3.031178    2.401450
    133          1           0      -13.535960    3.152828    1.458123
    134          1           0      -13.137980    0.656794    2.306963
    135          1           0      -11.669578    1.734921    4.188844
    136          1           0      -12.570556    3.215928    3.948748
    137          1           0      -11.561750    2.566676    2.621267
    138          1           0      -14.125916    0.076379    3.989830
    139          1           0      -15.352450    1.326058    3.812838
    140          1           0      -14.023080    1.408992    5.082631
 ---------------------------------------------------------------------

 SCF Done:  E(RCAM-B3LYP) =  -3007.14440149     A.U. after   16 cycles

 Excitation energies and oscillator strengths:

 Excited State   1:      Singlet-A      1.6782 eV  738.81 nm  f=0.3849  <S**2>=0.000
     245 -> 248       -0.17747
     246 -> 247        0.68729
     245 <- 248       -0.10913
 This state for optimization and/or second-order correction.
 Total Energy, E(TD-HF/TD-DFT) =  -3007.08273028
 Copying the excited state density for this state as the 1-particle RhoCI density.

 Excited State   2:      Singlet-A      2.1911 eV  565.86 nm  f=0.1194  <S**2>=0.000
     245 -> 247        0.64335
     246 -> 248        0.28207

 Excited State   3:      Singlet-A      3.2575 eV  380.61 nm  f=0.0006  <S**2>=0.000
     244 -> 247        0.68127
     246 -> 248       -0.14653

 Excited State   4:      Singlet-A      3.5678 eV  347.51 nm  f=0.6539  <S**2>=0.000
     240 -> 247       -0.10040
     241 -> 247        0.14205
     242 -> 247       -0.15353
     244 -> 247        0.12038
     245 -> 247       -0.26428
     246 -> 248        0.59357
     245 <- 247        0.10917

 Excited State   5:      Singlet-A      3.6202 eV  342.48 nm  f=0.0006  <S**2>=0.000
     240 -> 247        0.51759
     240 -> 249        0.30644
     240 -> 250       -0.12301
     240 -> 251        0.10075
     241 -> 247        0.20220
     241 -> 249        0.11039
     242 -> 247       -0.15235

 The electronic state is 1-A.
 Alpha  occ. eigenvalues --  -46.89026 -19.25762 -19.25597 -19.20690 -19.19801
 Alpha  occ. eigenvalues --  -19.19675 -19.18603 -14.42598 -14.41448 -14.39162
 Alpha  occ. eigenvalues --  -14.39034 -10.40179 -10.39089 -10.35591 -10.35145
 Alpha  occ. eigenvalues --  -10.33281 -10.31934 -10.31657 -10.31084 -10.30450
 Alpha  occ. eigenvalues --  -10.30241 -10.29852 -10.29652 -10.29640 -10.28887
 Alpha  occ. eigenvalues --  -10.28870 -10.28244 -10.28226 -10.27987 -10.27898
 Alpha  occ. eigenvalues --  -10.27830 -10.27782 -10.27555 -10.27306 -10.27286
 Alpha  occ. eigenvalues --  -10.27200 -10.26998 -10.26945 -10.26760 -10.26751
 Alpha  occ. eigenvalues --  -10.26646 -10.26470 -10.26043 -10.26039 -10.25955
 Alpha  occ. eigenvalues --  -10.25840 -10.25839 -10.25772 -10.25671 -10.25401
 Alpha  occ. eigenvalues --  -10.25232 -10.25078 -10.24950 -10.24906 -10.24883
 Alpha  occ. eigenvalues --  -10.24838 -10.24830 -10.24830 -10.24660 -10.24519
 Alpha  occ. eigenvalues --  -10.24517 -10.24479 -10.24443 -10.24388 -10.24385
 Alpha  occ. eigenvalues --  -10.23989  -3.17424  -1.92330  -1.91885  -1.91719
 Alpha  occ. eigenvalues --   -1.16220  -1.15790  -1.11303  -1.10630  -1.08436
 Alpha  occ. eigenvalues --   -1.07110  -1.04770  -1.02822  -1.01851  -1.01080
 Alpha  occ. eigenvalues --   -0.91731  -0.91712  -0.90381  -0.90162  -0.89327
 Alpha  occ. eigenvalues --   -0.88202  -0.87750  -0.87698  -0.87291  -0.86919
 Alpha  occ. eigenvalues --   -0.86220  -0.85710  -0.84665  -0.83373  -0.83176
 Alpha  occ. eigenvalues --   -0.82810  -0.81827  -0.81404  -0.80635  -0.80384
 Alpha  occ. eigenvalues --   -0.79967  -0.78444  -0.78060  -0.76968  -0.76334
 Alpha  occ. eigenvalues --   -0.76039  -0.75243  -0.74705  -0.74691  -0.74404
 Alpha  occ. eigenvalues --   -0.74180  -0.72977  -0.72205  -0.70581  -0.69254
 Alpha  occ. eigenvalues --   -0.68852  -0.68262  -0.67411  -0.66628  -0.65887
 Alpha  occ. eigenvalues --   -0.65344  -0.64750  -0.64184  -0.64027  -0.63784
 Alpha  occ. eigenvalues --   -0.63453  -0.63391  -0.62463  -0.61461  -0.60063
 Alpha  occ. eigenvalues --   -0.59906  -0.59474  -0.59397  -0.58501  -0.57646
 Alpha  occ. eigenvalues --   -0.57283  -0.56886  -0.56334  -0.56070  -0.55839
 Alpha  occ. eigenvalues --   -0.55448  -0.55132  -0.54928  -0.54332  -0.54295
 Alpha  occ. eigenvalues --   -0.53940  -0.53634  -0.53491  -0.53183  -0.53116
 Alpha  occ. eigenvalues --   -0.52658  -0.52261  -0.51929  -0.51841  -0.51614
 Alpha  occ. eigenvalues --   -0.51480  -0.51416  -0.51295  -0.50645  -0.50390
 Alpha  occ. eigenvalues --   -0.50301  -0.50064  -0.49820  -0.49764  -0.49657
 Alpha  occ. eigenvalues --   -0.49495  -0.49368  -0.49349  -0.49101  -0.48815
 Alpha  occ. eigenvalues --   -0.48688  -0.48539  -0.48395  -0.48042  -0.47976
 Alpha  occ. eigenvalues --   -0.47747  -0.47633  -0.47545  -0.47489  -0.47109
 Alpha  occ. eigenvalues --   -0.46935  -0.46651  -0.45928  -0.45742  -0.45608
 Alpha  occ. eigenvalues --   -0.45434  -0.45214  -0.45132  -0.44870  -0.44668
 Alpha  occ. eigenvalues --   -0.44545  -0.44474  -0.44126  -0.44017  -0.43944
 Alpha  occ. eigenvalues --   -0.43681  -0.43646  -0.43508  -0.43432  -0.43119
 Alpha  occ. eigenvalues --   -0.42986  -0.42868  -0.42626  -0.42532  -0.42413
 Alpha  occ. eigenvalues --   -0.42204  -0.42010  -0.41928  -0.41827  -0.41678
 Alpha  occ. eigenvalues --   -0.41589  -0.41038  -0.40700  -0.40389  -0.40326
 Alpha  occ. eigenvalues --   -0.39903  -0.39579  -0.39050  -0.39036  -0.38686
 Alpha  occ. eigenvalues --   -0.37973  -0.37804  -0.37743  -0.37527  -0.37113
 Alpha  occ. eigenvalues --   -0.36997  -0.36726  -0.36651  -0.36578  -0.36368
 Alpha  occ. eigenvalues --   -0.35542  -0.35438  -0.34786  -0.34598  -0.34223
 Alpha  occ. eigenvalues --   -0.33743  -0.33402  -0.32684  -0.31357  -0.30855
 Alpha  occ. eigenvalues --   -0.30752  -0.30563  -0.30510  -0.29228  -0.23794
 Alpha  occ. eigenvalues --   -0.20933
 Alpha virt. eigenvalues --   -0.08605  -0.01348   0.00782   0.02533   0.02933
 Alpha virt. eigenvalues --    0.04573   0.04993   0.05838   0.05913   0.07075
 Alpha virt. eigenvalues --    0.08221   0.08392   0.08552   0.08727   0.08790

 Mulliken charges:
               1
     1  Mg   0.806904
     2  C    0.040132
     3  C   -0.098525
     4  C   -0.030330
     5  C   -0.069577
     6  N   -0.331477
     7  C    0.003505
     8  C   -0.001797
     9  C   -0.065363
    10  C    0.068118
    11  C    0.082169
    12  C    0.037366
    13  C    0.065466
    14  C    0.174293
    15  O   -0.223042
    16  O   -0.348013
    17  N   -0.344237
    18  C    0.137201
    19  C   -0.145575
    20  C   -0.043467
    21  C    0.128446
    22  C    0.114319
    23  C    0.032348
    24  O   -0.182281
    25  C    0.037396
    26  N   -0.295353
    27  C    0.005464
    28  C   -0.086894
    29  C   -0.011534
    30  C    0.038326
    31  C    0.086106
    32  C    0.035355
    33  C    0.010384
    34  N   -0.347192
    35  C    0.073787
    36  C   -0.185108
    37  C    0.012870
    38  C    0.106404
    39  C    0.115771
    40  C    0.094641
    41  O   -0.138311
    42  C   -0.105435
    43  C    0.199890
    44  O   -0.237799
    45  O   -0.330457
    46  C    0.182934
    47  C    0.260725
    48  C   -0.128337
    49  C   -0.155249
    50  C    0.071010
    51  C    0.086299
    52  C    0.025128
    53  C    0.054110
    54  C   -0.123880
    55  C    0.068969
    56  C    0.057540
    57  C    0.011422
    58  C    0.041019
    59  C   -0.124605
    60  C    0.035246
    61  C    0.061403
    62  C    0.058643
    63  C    0.019762
    64  C   -0.170895
    65  C    0.056964
    66  C    0.033892
    67  H   -0.047771
    68  H   -0.007548
    69  H   -0.023704
    70  H    0.020937
    71  H    0.012856
    72  H    0.040094
    73  H    0.009874
    74  H    0.011541
    75  H    0.010975
    76  H    0.026112
    77  H    0.011024
    78  H    0.023216
    79  H    0.024231
    80  H    0.024209
    81  H    0.024330
    82  H    0.024362
    83  H    0.018221
    84  H    0.034506
    85  H    0.013604
    86  H    0.008866
    87  H    0.012548
    88  H    0.022874
    89  H    0.030310
    90  H    0.008378
    91  H   -0.007604
    92  H    0.013601
    93  H    0.021363
    94  H    0.027235
    95  H    0.045833
    96  H    0.034283
    97  H   -0.002011
    98  H    0.054863
    99  H    0.065939
   100  H    0.024234
   101  H    0.031264
   102  H    0.051935
   103  H    0.045241
   104  H   -0.005493
   105  H    0.031176
   106  H   -0.009665
   107  H    0.027428
   108  H   -0.007319
   109  H   -0.000808
   110  H   -0.003980
   111  H   -0.001830
   112  H   -0.014939
   113  H   -0.012943
   114  H   -0.020149
   115  H   -0.009444
   116  H    0.017111
   117  H    0.007822
   118  H   -0.004331
   119  H   -0.004705
   120  H   -0.010376
   121  H   -0.000998
   122  H   -0.022798
   123  H   -0.006880
   124  H   -0.018475
   125  H    0.010734
   126  H    0.002245
   127  H    0.018559
   128  H   -0.020911
   129  H   -0.004214
   130  H    0.007266
   131  H   -0.010041
   132  H   -0.005799
   133  H   -0.014311
   134  H    0.002743
   135  H    0.008557
   136  H    0.009250
   137  H    0.001925
   138  H   -0.005322
   139  H    0.006794
   140  H    0.016904
 Sum of Mulliken charges =  -0.00000

 Dipole moment (field-independent basis, Debye):
    X=             -4.3789    Y=              2.6958    Z=              0.3400  Tot=              5.1534
 Quadrupole moment (field-independent basis, Debye-Ang):
   XX=           -390.7512   YY=           -409.4531   ZZ=           -413.3184
   XY=              6.5375   XZ=             28.7667   YZ=              2.9614

 Normal termination of Gaussian 16 at Wed May  4 08:58:20 2022.
