 Gaussian 16, Revision A.03,
 Gaussian 16:  ES64L-G16RevA.03 25-Dec-2016

 ---------------------------------
 #p PBE1PBE/Def2SVP td=(nstates=5)
 ---------------------------------

 ------------------------------------------------------
 step_1551_chromophore_16 TDDFT with PBE1PBE functional
 ------------------------------------------------------
 Symbolic Z-matrix:
 Charge =  0 Multiplicity = 1

                         Standard orientation:
 ---------------------------------------------------------------------
 Center     Atomic      Atomic             Coordinates (Angstroms)
 Number     Number       Type             X           Y           Z
 ---------------------------------------------------------------------
      1         12           0        6.024324    0.407520    0.124561
      2          6           0        4.025161   -2.235862   -0.090774
      3          6           0        3.328961    2.521080   -0.842813
      4          6           0        8.053922    3.177442    0.078204
      5          6           0        8.834475   -1.666990    0.650151
      6          7           0        3.957531    0.152523   -0.346727
      7          6           0        3.275993   -1.066996   -0.347845
      8          6           0        1.824587   -0.922080   -0.843810
      9          6           0        1.661254    0.595590   -0.931176
     10          6           0        3.078840    1.158471   -0.699838
     11          6           0        0.892906    1.241853   -2.130923
     12          6           0        0.734275   -1.768141   -0.137407
     13          6           0       -0.633847   -1.093775    0.053130
     14          6           0       -1.772027   -1.899403    0.690339
     15          8           0       -2.016378   -1.943224    1.892116
     16          8           0       -2.454010   -2.514967   -0.336775
     17          7           0        5.728980    2.582450   -0.334322
     18          6           0        4.538619    3.220795   -0.674619
     19          6           0        4.800488    4.644461   -0.817344
     20          6           0        6.213946    4.827812   -0.652572
     21          6           0        6.740321    3.523775   -0.325491
     22          6           0        3.721275    5.705103   -1.053435
     23          6           0        7.085987    6.118338   -0.753485
     24          8           0        8.286230    6.085488   -0.766598
     25          6           0        6.509319    7.470526   -0.877508
     26          7           0        8.193711    0.658890    0.149819
     27          6           0        8.664305    1.959267    0.371690
     28          6           0       10.151380    1.899525    0.757956
     29          6           0       10.413526    0.348278    1.017699
     30          6           0        9.113720   -0.297172    0.501806
     31          6           0       11.029161    2.381781   -0.360643
     32          6           0       10.596739    0.081154    2.594384
     33          6           0        9.600702    0.688794    3.617190
     34          7           0        6.459590   -1.571233    0.213690
     35          6           0        7.561076   -2.337387    0.497040
     36          6           0        7.188143   -3.717733    0.603402
     37          6           0        5.858325   -3.740859    0.401022
     38          6           0        5.416710   -2.372278    0.186949
     39          6           0        8.108260   -4.842290    0.973151
     40          6           0        4.675421   -4.639706    0.364210
     41          8           0        4.616571   -5.837488    0.531547
     42          6           0        3.446277   -3.643912    0.115817
     43          6           0        2.729324   -4.186971   -1.063382
     44          8           0        2.999157   -3.958802   -2.253394
     45          8           0        1.872916   -5.106228   -0.536041
     46          6           0        1.049775   -5.762105   -1.615978
     47          6           0       -3.720366   -3.198309    0.007085
     48          6           0       -4.771582   -2.325488   -0.811996
     49          6           0       -6.089035   -2.408113   -0.784928
     50          6           0       -6.852431   -3.434119    0.041334
     51          6           0       -7.041837   -1.441265   -1.457263
     52          6           0       -7.026891   -0.060955   -0.965341
     53          6           0       -8.175470    0.247233    0.000394
     54          6           0       -9.248225    1.203370   -0.507637
     55          6           0       -8.969848    2.665577   -0.208168
     56          6           0      -10.632052    0.861310   -0.089418
     57          6           0      -11.297147   -0.191781   -1.022781
     58          6           0      -12.426049    0.563685   -1.890008
     59          6           0      -13.792499    0.512094   -1.281067
     60          6           0      -14.868411   -0.084082   -2.291207
     61          6           0      -14.219727    1.782193   -0.550096
     62          6           0      -14.944435    1.601840    0.801942
     63          6           0      -14.266595    2.445044    1.852057
     64          6           0      -13.388797    1.569042    2.849253
     65          6           0      -12.223608    2.311560    3.448255
     66          6           0      -14.306436    1.147982    4.063081
     67          1           0        2.449982    3.117464   -1.096510
     68          1           0        8.772074    3.979816    0.260116
     69          1           0        9.658093   -2.327237    0.930337
     70          1           0        1.672625   -1.237458   -1.876077
     71          1           0        1.230059    0.909031    0.019047
     72          1           0        1.426683    1.603917   -3.010266
     73          1           0        0.455245    2.115012   -1.645497
     74          1           0        0.009238    0.658491   -2.386853
     75          1           0        1.110311   -1.976471    0.864161
     76          1           0        0.609387   -2.699655   -0.690648
     77          1           0       -0.929700   -0.784223   -0.949745
     78          1           0       -0.589979   -0.210315    0.689417
     79          1           0        4.061010    6.134799   -1.995458
     80          1           0        3.814360    6.532105   -0.349493
     81          1           0        2.679163    5.403638   -1.158739
     82          1           0        7.161101    8.340341   -0.795161
     83          1           0        5.862878    7.520859   -0.001886
     84          1           0        5.884032    7.710727   -1.737984
     85          1           0       10.239342    2.527618    1.644901
     86          1           0       11.200946   -0.039502    0.370007
     87          1           0       11.874571    1.757260   -0.652278
     88          1           0       11.417490    3.320642    0.034373
     89          1           0       10.337477    2.421875   -1.201458
     90          1           0       11.630366    0.323781    2.839660
     91          1           0       10.578109   -1.007327    2.545780
     92          1           0        9.055094    1.541652    3.211735
     93          1           0       10.078957    1.161688    4.474498
     94          1           0        8.825922   -0.033657    3.871765
     95          1           0        8.310455   -5.315534    0.012613
     96          1           0        7.802752   -5.504008    1.784834
     97          1           0        9.019582   -4.483289    1.451769
     98          1           0        2.781792   -3.659686    0.980426
     99          1           0        1.679044   -6.125100   -2.428330
    100          1           0        0.271097   -5.050582   -1.891047
    101          1           0        0.377419   -6.518216   -1.210333
    102          1           0       -3.965958   -3.026572    1.054847
    103          1           0       -3.701810   -4.266673   -0.205385
    104          1           0       -4.401145   -1.408489   -1.270529
    105          1           0       -7.630018   -2.945679    0.627406
    106          1           0       -6.248545   -3.999567    0.750013
    107          1           0       -7.141443   -4.234435   -0.640401
    108          1           0       -8.065406   -1.812187   -1.502736
    109          1           0       -6.784516   -1.411796   -2.515792
    110          1           0       -6.941239    0.571594   -1.849145
    111          1           0       -6.155017    0.194823   -0.363279
    112          1           0       -7.743213    0.744864    0.869755
    113          1           0       -8.518332   -0.726287    0.351038
    114          1           0       -9.141236    1.153053   -1.591572
    115          1           0       -7.905340    2.677584    0.025692
    116          1           0       -9.572189    3.055528    0.611553
    117          1           0       -9.117295    3.246751   -1.118611
    118          1           0      -11.314047    1.710200   -0.045483
    119          1           0      -10.566256    0.477563    0.928912
    120          1           0      -11.796317   -0.965317   -0.440570
    121          1           0      -10.621284   -0.712796   -1.700549
    122          1           0      -12.444903    0.075691   -2.863975
    123          1           0      -12.131550    1.593356   -2.093856
    124          1           0      -13.807320   -0.269661   -0.521629
    125          1           0      -14.965335    0.514295   -3.197472
    126          1           0      -15.852430   -0.048177   -1.822934
    127          1           0      -14.527771   -1.104301   -2.462270
    128          1           0      -14.927135    2.159878   -1.289059
    129          1           0      -13.442234    2.544460   -0.513229
    130          1           0      -15.136208    0.570447    1.098776
    131          1           0      -15.912540    2.093544    0.701808
    132          1           0      -15.003298    3.031178    2.401450
    133          1           0      -13.535960    3.152828    1.458123
    134          1           0      -13.137980    0.656794    2.306963
    135          1           0      -11.669578    1.734921    4.188844
    136          1           0      -12.570556    3.215928    3.948748
    137          1           0      -11.561750    2.566676    2.621267
    138          1           0      -14.125916    0.076379    3.989830
    139          1           0      -15.352450    1.326058    3.812838
    140          1           0      -14.023080    1.408992    5.082631
 ---------------------------------------------------------------------

 SCF Done:  E(RPBE1PBE) =  -3005.33355878     A.U. after   15 cycles

 Excitation energies and oscillator strengths:

 Excited State   1:      Singlet-A      1.8384 eV  674.43 nm  f=0.3717  <S**2>=0.000
     245 -> 248        0.17066
     246 -> 247        0.69477
     246 <- 247       -0.11092
 This state for optimization and/or second-order correction.
 Total Energy, E(TD-HF/TD-DFT) =  -3005.26600025
 Copying the excited state density for this state as the 1-particle RhoCI density.

 Excited State   2:      Singlet-A      2.2076 eV  561.61 nm  f=0.1151  <S**2>=0.000
     245 -> 247        0.65305
     246 -> 248       -0.25971

 Excited State   3:      Singlet-A      2.9491 eV  420.42 nm  f=0.0032  <S**2>=0.000
     244 -> 247        0.69432
     246 -> 248        0.10218

 Excited State   4:      Singlet-A      3.1019 eV  399.70 nm  f=0.0009  <S**2>=0.000
     243 -> 247        0.68382
     243 -> 249       -0.11503
     243 -> 250       -0.10087

 Excited State   5:      Singlet-A      3.1228 eV  397.03 nm  f=0.0009  <S**2>=0.000
     241 -> 247        0.67538
     241 -> 249        0.17170

 The electronic state is 1-A.
 Alpha  occ. eigenvalues --  -46.92428 -19.26503 -19.26222 -19.20995 -19.20007
 Alpha  occ. eigenvalues --  -19.19905 -19.18783 -14.42163 -14.40987 -14.38796
 Alpha  occ. eigenvalues --  -14.38719 -10.37232 -10.36068 -10.32774 -10.32258
 Alpha  occ. eigenvalues --  -10.30716 -10.29448 -10.29134 -10.28812 -10.28247
 Alpha  occ. eigenvalues --  -10.28009 -10.27521 -10.27429 -10.27335 -10.26619
 Alpha  occ. eigenvalues --  -10.26541 -10.26049 -10.26033 -10.25827 -10.25542
 Alpha  occ. eigenvalues --  -10.25457 -10.25372 -10.25352 -10.24985 -10.24900
 Alpha  occ. eigenvalues --  -10.24698 -10.24675 -10.24452 -10.24393 -10.24390
 Alpha  occ. eigenvalues --  -10.24344 -10.24319 -10.23709 -10.23416 -10.23407
 Alpha  occ. eigenvalues --  -10.23392 -10.23338 -10.23211 -10.23109 -10.22937
 Alpha  occ. eigenvalues --  -10.22798 -10.22762 -10.22716 -10.22482 -10.22444
 Alpha  occ. eigenvalues --  -10.22422 -10.22396 -10.22235 -10.22228 -10.22052
 Alpha  occ. eigenvalues --  -10.22041 -10.22026 -10.22005 -10.21773 -10.21744
 Alpha  occ. eigenvalues --  -10.21401  -3.14413  -1.87259  -1.86794  -1.86628
 Alpha  occ. eigenvalues --   -1.11045  -1.10508  -1.06036  -1.05401  -1.03325
 Alpha  occ. eigenvalues --   -1.01874  -0.99504  -0.97425  -0.96459  -0.95717
 Alpha  occ. eigenvalues --   -0.86053  -0.85837  -0.84568  -0.84287  -0.83455
 Alpha  occ. eigenvalues --   -0.82545  -0.82078  -0.81806  -0.81604  -0.81265
 Alpha  occ. eigenvalues --   -0.80456  -0.79968  -0.78877  -0.77670  -0.77374
 Alpha  occ. eigenvalues --   -0.77037  -0.75987  -0.75638  -0.74911  -0.74642
 Alpha  occ. eigenvalues --   -0.74234  -0.72710  -0.72363  -0.71292  -0.70489
 Alpha  occ. eigenvalues --   -0.70362  -0.69322  -0.69047  -0.68844  -0.68587
 Alpha  occ. eigenvalues --   -0.68455  -0.67444  -0.66532  -0.65025  -0.63607
 Alpha  occ. eigenvalues --   -0.63059  -0.62749  -0.61618  -0.61082  -0.60104
 Alpha  occ. eigenvalues --   -0.59878  -0.59245  -0.58785  -0.58503  -0.57959
 Alpha  occ. eigenvalues --   -0.57873  -0.57542  -0.56648  -0.56038  -0.54585
 Alpha  occ. eigenvalues --   -0.54434  -0.54037  -0.53846  -0.53160  -0.51999
 Alpha  occ. eigenvalues --   -0.51709  -0.51406  -0.50876  -0.50548  -0.50407
 Alpha  occ. eigenvalues --   -0.49899  -0.49751  -0.49472  -0.48870  -0.48667
 Alpha  occ. eigenvalues --   -0.48535  -0.48083  -0.48066  -0.47788  -0.47616
 Alpha  occ. eigenvalues --   -0.47221  -0.46642  -0.46488  -0.46350  -0.46196
 Alpha  occ. eigenvalues --   -0.46059  -0.45911  -0.45872  -0.45165  -0.44979
 Alpha  occ. eigenvalues --   -0.44960  -0.44647  -0.44343  -0.44318  -0.44252
 Alpha  occ. eigenvalues --   -0.44040  -0.43915  -0.43886  -0.43725  -0.43460
 Alpha  occ. eigenvalues --   -0.43323  -0.43098  -0.43009  -0.42710  -0.42579
 Alpha  occ. eigenvalues --   -0.42405  -0.42317  -0.42207  -0.42078  -0.41769
 Alpha  occ. eigenvalues --   -0.41617  -0.41268  -0.40744  -0.40443  -0.40332
 Alpha  occ. eigenvalues --   -0.40070  -0.39969  -0.39894  -0.39563  -0.39334
 Alpha  occ. eigenvalues --   -0.39274  -0.39189  -0.38824  -0.38818  -0.38663
 Alpha  occ. eigenvalues --   -0.38511  -0.38414  -0.38237  -0.38187  -0.37937
 Alpha  occ. eigenvalues --   -0.37793  -0.37622  -0.37479  -0.37401  -0.37148
 Alpha  occ. eigenvalues --   -0.36978  -0.36873  -0.36753  -0.36592  -0.36473
 Alpha  occ. eigenvalues --   -0.36363  -0.36004  -0.35601  -0.35139  -0.35088
 Alpha  occ. eigenvalues --   -0.34775  -0.34525  -0.34002  -0.33783  -0.33518
 Alpha  occ. eigenvalues --   -0.32877  -0.32777  -0.32602  -0.32371  -0.31952
 Alpha  occ. eigenvalues --   -0.31912  -0.31721  -0.31676  -0.31582  -0.31218
 Alpha  occ. eigenvalues --   -0.30539  -0.30371  -0.29651  -0.29501  -0.29101
 Alpha  occ. eigenvalues --   -0.28849  -0.28318  -0.28286  -0.26979  -0.26267
 Alpha  occ. eigenvalues --   -0.25804  -0.25722  -0.25480  -0.24837  -0.20737
 Alpha  occ. eigenvalues --   -0.18587
 Alpha virt. eigenvalues --   -0.11059  -0.04861  -0.03499  -0.01662  -0.00205
 Alpha virt. eigenvalues --   -0.00045   0.00498   0.01441   0.01489   0.03239
 Alpha virt. eigenvalues --    0.04588   0.04718   0.05112   0.05155   0.05387

 Mulliken charges:
               1
     1  Mg   0.953828
     2  C    0.028937
     3  C   -0.090785
     4  C   -0.024150
     5  C   -0.071682
     6  N   -0.440239
     7  C    0.079902
     8  C   -0.059136
     9  C   -0.154815
    10  C    0.115758
    11  C    0.018018
    12  C   -0.022739
    13  C   -0.018885
    14  C    0.247128
    15  O   -0.257226
    16  O   -0.376669
    17  N   -0.451838
    18  C    0.162733
    19  C   -0.174254
    20  C   -0.094393
    21  C    0.160860
    22  C    0.056583
    23  C    0.081246
    24  O   -0.218858
    25  C   -0.032435
    26  N   -0.392093
    27  C    0.031487
    28  C   -0.164233
    29  C   -0.090278
    30  C    0.089872
    31  C    0.031350
    32  C   -0.025647
    33  C   -0.063753
    34  N   -0.477734
    35  C    0.098208
    36  C   -0.217119
    37  C   -0.032511
    38  C    0.150055
    39  C    0.068550
    40  C    0.195023
    41  O   -0.184208
    42  C   -0.207732
    43  C    0.283277
    44  O   -0.272071
    45  O   -0.359948
    46  C    0.126235
    47  C    0.218786
    48  C   -0.133114
    49  C   -0.201658
    50  C    0.005086
    51  C    0.018134
    52  C   -0.033812
    53  C   -0.004486
    54  C   -0.204153
    55  C    0.004462
    56  C   -0.006438
    57  C   -0.050878
    58  C   -0.017275
    59  C   -0.201042
    60  C   -0.031338
    61  C    0.009582
    62  C   -0.009384
    63  C   -0.034218
    64  C   -0.262154
    65  C   -0.012636
    66  C   -0.024451
    67  H   -0.013481
    68  H    0.024472
    69  H    0.008400
    70  H    0.059509
    71  H    0.054483
    72  H    0.067364
    73  H    0.037287
    74  H    0.040605
    75  H    0.045286
    76  H    0.065823
    77  H    0.046670
    78  H    0.055347
    79  H    0.053283
    80  H    0.051750
    81  H    0.050159
    82  H    0.051737
    83  H    0.045643
    84  H    0.059761
    85  H    0.049245
    86  H    0.044656
    87  H    0.040109
    88  H    0.049898
    89  H    0.059432
    90  H    0.041865
    91  H    0.027569
    92  H    0.042490
    93  H    0.049114
    94  H    0.055048
    95  H    0.073598
    96  H    0.060458
    97  H    0.024273
    98  H    0.091047
    99  H    0.086888
   100  H    0.045560
   101  H    0.053001
   102  H    0.078131
   103  H    0.070275
   104  H    0.023642
   105  H    0.058762
   106  H    0.018213
   107  H    0.056115
   108  H    0.026276
   109  H    0.033162
   110  H    0.026544
   111  H    0.031012
   112  H    0.019020
   113  H    0.021970
   114  H    0.019415
   115  H    0.019350
   116  H    0.045724
   117  H    0.035922
   118  H    0.033638
   119  H    0.029011
   120  H    0.022056
   121  H    0.031626
   122  H    0.011082
   123  H    0.026430
   124  H    0.020664
   125  H    0.038421
   126  H    0.031356
   127  H    0.046603
   128  H    0.014331
   129  H    0.023809
   130  H    0.036744
   131  H    0.024620
   132  H    0.026134
   133  H    0.018128
   134  H    0.041323
   135  H    0.037090
   136  H    0.037415
   137  H    0.034421
   138  H    0.022845
   139  H    0.034386
   140  H    0.043352
 Sum of Mulliken charges =  -0.00000

 Dipole moment (field-independent basis, Debye):
    X=             -4.3212    Y=              2.7163    Z=              0.4130  Tot=              5.1207
 Quadrupole moment (field-independent basis, Debye-Ang):
   XX=           -384.2400   YY=           -406.9629   ZZ=           -410.8099
   XY=              6.0318   XZ=             29.8204   YZ=              2.7405

 Normal termination of Gaussian 16 at Wed May  4 09:14:16 2022.
