 Gaussian 16, Revision A.03,
 Gaussian 16:  ES64L-G16RevA.03 25-Dec-2016

 --------------------------------
 #p wB97XD/Def2SVP td=(nstates=5)
 --------------------------------

 -----------------------------------------------------
 step_1551_chromophore_16 TDDFT with wB97XD functional
 -----------------------------------------------------
 Symbolic Z-matrix:
 Charge =  0 Multiplicity = 1

                         Standard orientation:
 ---------------------------------------------------------------------
 Center     Atomic      Atomic             Coordinates (Angstroms)
 Number     Number       Type             X           Y           Z
 ---------------------------------------------------------------------
      1         12           0        6.024324    0.407520    0.124561
      2          6           0        4.025161   -2.235862   -0.090774
      3          6           0        3.328961    2.521080   -0.842813
      4          6           0        8.053922    3.177442    0.078204
      5          6           0        8.834475   -1.666990    0.650151
      6          7           0        3.957531    0.152523   -0.346727
      7          6           0        3.275993   -1.066996   -0.347845
      8          6           0        1.824587   -0.922080   -0.843810
      9          6           0        1.661254    0.595590   -0.931176
     10          6           0        3.078840    1.158471   -0.699838
     11          6           0        0.892906    1.241853   -2.130923
     12          6           0        0.734275   -1.768141   -0.137407
     13          6           0       -0.633847   -1.093775    0.053130
     14          6           0       -1.772027   -1.899403    0.690339
     15          8           0       -2.016378   -1.943224    1.892116
     16          8           0       -2.454010   -2.514967   -0.336775
     17          7           0        5.728980    2.582450   -0.334322
     18          6           0        4.538619    3.220795   -0.674619
     19          6           0        4.800488    4.644461   -0.817344
     20          6           0        6.213946    4.827812   -0.652572
     21          6           0        6.740321    3.523775   -0.325491
     22          6           0        3.721275    5.705103   -1.053435
     23          6           0        7.085987    6.118338   -0.753485
     24          8           0        8.286230    6.085488   -0.766598
     25          6           0        6.509319    7.470526   -0.877508
     26          7           0        8.193711    0.658890    0.149819
     27          6           0        8.664305    1.959267    0.371690
     28          6           0       10.151380    1.899525    0.757956
     29          6           0       10.413526    0.348278    1.017699
     30          6           0        9.113720   -0.297172    0.501806
     31          6           0       11.029161    2.381781   -0.360643
     32          6           0       10.596739    0.081154    2.594384
     33          6           0        9.600702    0.688794    3.617190
     34          7           0        6.459590   -1.571233    0.213690
     35          6           0        7.561076   -2.337387    0.497040
     36          6           0        7.188143   -3.717733    0.603402
     37          6           0        5.858325   -3.740859    0.401022
     38          6           0        5.416710   -2.372278    0.186949
     39          6           0        8.108260   -4.842290    0.973151
     40          6           0        4.675421   -4.639706    0.364210
     41          8           0        4.616571   -5.837488    0.531547
     42          6           0        3.446277   -3.643912    0.115817
     43          6           0        2.729324   -4.186971   -1.063382
     44          8           0        2.999157   -3.958802   -2.253394
     45          8           0        1.872916   -5.106228   -0.536041
     46          6           0        1.049775   -5.762105   -1.615978
     47          6           0       -3.720366   -3.198309    0.007085
     48          6           0       -4.771582   -2.325488   -0.811996
     49          6           0       -6.089035   -2.408113   -0.784928
     50          6           0       -6.852431   -3.434119    0.041334
     51          6           0       -7.041837   -1.441265   -1.457263
     52          6           0       -7.026891   -0.060955   -0.965341
     53          6           0       -8.175470    0.247233    0.000394
     54          6           0       -9.248225    1.203370   -0.507637
     55          6           0       -8.969848    2.665577   -0.208168
     56          6           0      -10.632052    0.861310   -0.089418
     57          6           0      -11.297147   -0.191781   -1.022781
     58          6           0      -12.426049    0.563685   -1.890008
     59          6           0      -13.792499    0.512094   -1.281067
     60          6           0      -14.868411   -0.084082   -2.291207
     61          6           0      -14.219727    1.782193   -0.550096
     62          6           0      -14.944435    1.601840    0.801942
     63          6           0      -14.266595    2.445044    1.852057
     64          6           0      -13.388797    1.569042    2.849253
     65          6           0      -12.223608    2.311560    3.448255
     66          6           0      -14.306436    1.147982    4.063081
     67          1           0        2.449982    3.117464   -1.096510
     68          1           0        8.772074    3.979816    0.260116
     69          1           0        9.658093   -2.327237    0.930337
     70          1           0        1.672625   -1.237458   -1.876077
     71          1           0        1.230059    0.909031    0.019047
     72          1           0        1.426683    1.603917   -3.010266
     73          1           0        0.455245    2.115012   -1.645497
     74          1           0        0.009238    0.658491   -2.386853
     75          1           0        1.110311   -1.976471    0.864161
     76          1           0        0.609387   -2.699655   -0.690648
     77          1           0       -0.929700   -0.784223   -0.949745
     78          1           0       -0.589979   -0.210315    0.689417
     79          1           0        4.061010    6.134799   -1.995458
     80          1           0        3.814360    6.532105   -0.349493
     81          1           0        2.679163    5.403638   -1.158739
     82          1           0        7.161101    8.340341   -0.795161
     83          1           0        5.862878    7.520859   -0.001886
     84          1           0        5.884032    7.710727   -1.737984
     85          1           0       10.239342    2.527618    1.644901
     86          1           0       11.200946   -0.039502    0.370007
     87          1           0       11.874571    1.757260   -0.652278
     88          1           0       11.417490    3.320642    0.034373
     89          1           0       10.337477    2.421875   -1.201458
     90          1           0       11.630366    0.323781    2.839660
     91          1           0       10.578109   -1.007327    2.545780
     92          1           0        9.055094    1.541652    3.211735
     93          1           0       10.078957    1.161688    4.474498
     94          1           0        8.825922   -0.033657    3.871765
     95          1           0        8.310455   -5.315534    0.012613
     96          1           0        7.802752   -5.504008    1.784834
     97          1           0        9.019582   -4.483289    1.451769
     98          1           0        2.781792   -3.659686    0.980426
     99          1           0        1.679044   -6.125100   -2.428330
    100          1           0        0.271097   -5.050582   -1.891047
    101          1           0        0.377419   -6.518216   -1.210333
    102          1           0       -3.965958   -3.026572    1.054847
    103          1           0       -3.701810   -4.266673   -0.205385
    104          1           0       -4.401145   -1.408489   -1.270529
    105          1           0       -7.630018   -2.945679    0.627406
    106          1           0       -6.248545   -3.999567    0.750013
    107          1           0       -7.141443   -4.234435   -0.640401
    108          1           0       -8.065406   -1.812187   -1.502736
    109          1           0       -6.784516   -1.411796   -2.515792
    110          1           0       -6.941239    0.571594   -1.849145
    111          1           0       -6.155017    0.194823   -0.363279
    112          1           0       -7.743213    0.744864    0.869755
    113          1           0       -8.518332   -0.726287    0.351038
    114          1           0       -9.141236    1.153053   -1.591572
    115          1           0       -7.905340    2.677584    0.025692
    116          1           0       -9.572189    3.055528    0.611553
    117          1           0       -9.117295    3.246751   -1.118611
    118          1           0      -11.314047    1.710200   -0.045483
    119          1           0      -10.566256    0.477563    0.928912
    120          1           0      -11.796317   -0.965317   -0.440570
    121          1           0      -10.621284   -0.712796   -1.700549
    122          1           0      -12.444903    0.075691   -2.863975
    123          1           0      -12.131550    1.593356   -2.093856
    124          1           0      -13.807320   -0.269661   -0.521629
    125          1           0      -14.965335    0.514295   -3.197472
    126          1           0      -15.852430   -0.048177   -1.822934
    127          1           0      -14.527771   -1.104301   -2.462270
    128          1           0      -14.927135    2.159878   -1.289059
    129          1           0      -13.442234    2.544460   -0.513229
    130          1           0      -15.136208    0.570447    1.098776
    131          1           0      -15.912540    2.093544    0.701808
    132          1           0      -15.003298    3.031178    2.401450
    133          1           0      -13.535960    3.152828    1.458123
    134          1           0      -13.137980    0.656794    2.306963
    135          1           0      -11.669578    1.734921    4.188844
    136          1           0      -12.570556    3.215928    3.948748
    137          1           0      -11.561750    2.566676    2.621267
    138          1           0      -14.125916    0.076379    3.989830
    139          1           0      -15.352450    1.326058    3.812838
    140          1           0      -14.023080    1.408992    5.082631
 ---------------------------------------------------------------------

 SCF Done:  E(RwB97XD) =  -3007.84660753     A.U. after   19 cycles

 Excitation energies and oscillator strengths:

 Excited State   1:      Singlet-A      1.6172 eV  766.65 nm  f=0.3833  <S**2>=0.000
     245 -> 248       -0.18341
     246 -> 247        0.68506
     245 <- 248       -0.11868
 This state for optimization and/or second-order correction.
 Total Energy, E(TD-HF/TD-DFT) =  -3007.78717561
 Copying the excited state density for this state as the 1-particle RhoCI density.

 Excited State   2:      Singlet-A      2.1328 eV  581.32 nm  f=0.1165  <S**2>=0.000
     245 -> 247        0.64161
     246 -> 248        0.28449
     246 <- 248        0.10041

 Excited State   3:      Singlet-A      3.2789 eV  378.13 nm  f=0.0018  <S**2>=0.000
     244 -> 247        0.67376
     246 -> 248       -0.16207

 Excited State   4:      Singlet-A      3.5814 eV  346.18 nm  f=0.6642  <S**2>=0.000
     240 -> 247       -0.17458
     241 -> 247        0.16086
     244 -> 247        0.13006
     245 -> 247       -0.26552
     246 -> 248        0.58856
     245 <- 247        0.11420

 Excited State   5:      Singlet-A      3.6584 eV  338.91 nm  f=0.0016  <S**2>=0.000
     240 -> 247        0.36399
     240 -> 249        0.25303
     240 -> 250       -0.12602
     241 -> 247        0.41211
     241 -> 249        0.25008
     241 -> 250       -0.11257

 The electronic state is 1-A.
 Alpha  occ. eigenvalues --  -46.95358 -19.31050 -19.30825 -19.25677 -19.24762
 Alpha  occ. eigenvalues --  -19.24735 -19.23623 -14.47222 -14.46064 -14.43746
 Alpha  occ. eigenvalues --  -14.43665 -10.44037 -10.42954 -10.39633 -10.39114
 Alpha  occ. eigenvalues --  -10.37215 -10.35717 -10.35692 -10.35128 -10.34458
 Alpha  occ. eigenvalues --  -10.34298 -10.33907 -10.33711 -10.33662 -10.33046
 Alpha  occ. eigenvalues --  -10.32895 -10.32303 -10.32284 -10.32125 -10.31956
 Alpha  occ. eigenvalues --  -10.31800 -10.31782 -10.31619 -10.31398 -10.31330
 Alpha  occ. eigenvalues --  -10.31233 -10.31058 -10.30863 -10.30806 -10.30750
 Alpha  occ. eigenvalues --  -10.30611 -10.30508 -10.30117 -10.29874 -10.29826
 Alpha  occ. eigenvalues --  -10.29794 -10.29708 -10.29607 -10.29606 -10.29321
 Alpha  occ. eigenvalues --  -10.29159 -10.29043 -10.29002 -10.28822 -10.28788
 Alpha  occ. eigenvalues --  -10.28786 -10.28769 -10.28671 -10.28578 -10.28437
 Alpha  occ. eigenvalues --  -10.28396 -10.28377 -10.28370 -10.28207 -10.28189
 Alpha  occ. eigenvalues --  -10.27803  -3.21218  -1.94811  -1.94344  -1.94177
 Alpha  occ. eigenvalues --   -1.18439  -1.17963  -1.13525  -1.12889  -1.10676
 Alpha  occ. eigenvalues --   -1.09302  -1.06808  -1.04832  -1.03867  -1.03114
 Alpha  occ. eigenvalues --   -0.93691  -0.93502  -0.92217  -0.91948  -0.91111
 Alpha  occ. eigenvalues --   -0.90153  -0.89647  -0.89464  -0.89195  -0.88855
 Alpha  occ. eigenvalues --   -0.88168  -0.87611  -0.86528  -0.85303  -0.85019
 Alpha  occ. eigenvalues --   -0.84681  -0.83736  -0.83307  -0.82542  -0.82285
 Alpha  occ. eigenvalues --   -0.81880  -0.80358  -0.80029  -0.78894  -0.78171
 Alpha  occ. eigenvalues --   -0.77989  -0.77021  -0.76632  -0.76524  -0.76240
 Alpha  occ. eigenvalues --   -0.76085  -0.74979  -0.74145  -0.72565  -0.71163
 Alpha  occ. eigenvalues --   -0.70708  -0.70283  -0.69266  -0.68647  -0.67739
 Alpha  occ. eigenvalues --   -0.67341  -0.66752  -0.66207  -0.65975  -0.65585
 Alpha  occ. eigenvalues --   -0.65413  -0.65212  -0.64283  -0.63468  -0.62051
 Alpha  occ. eigenvalues --   -0.61895  -0.61459  -0.61342  -0.60507  -0.59547
 Alpha  occ. eigenvalues --   -0.59227  -0.58870  -0.58299  -0.58002  -0.57795
 Alpha  occ. eigenvalues --   -0.57332  -0.57137  -0.56878  -0.56273  -0.56146
 Alpha  occ. eigenvalues --   -0.55891  -0.55505  -0.55429  -0.55142  -0.55021
 Alpha  occ. eigenvalues --   -0.54600  -0.54203  -0.53871  -0.53722  -0.53554
 Alpha  occ. eigenvalues --   -0.53405  -0.53277  -0.53194  -0.52525  -0.52304
 Alpha  occ. eigenvalues --   -0.52249  -0.52001  -0.51712  -0.51647  -0.51595
 Alpha  occ. eigenvalues --   -0.51402  -0.51324  -0.51237  -0.51011  -0.50736
 Alpha  occ. eigenvalues --   -0.50592  -0.50397  -0.50317  -0.49968  -0.49907
 Alpha  occ. eigenvalues --   -0.49640  -0.49568  -0.49503  -0.49349  -0.49027
 Alpha  occ. eigenvalues --   -0.48856  -0.48528  -0.47858  -0.47692  -0.47574
 Alpha  occ. eigenvalues --   -0.47306  -0.47118  -0.47049  -0.46784  -0.46513
 Alpha  occ. eigenvalues --   -0.46461  -0.46355  -0.45978  -0.45946  -0.45857
 Alpha  occ. eigenvalues --   -0.45628  -0.45570  -0.45392  -0.45380  -0.45069
 Alpha  occ. eigenvalues --   -0.44900  -0.44762  -0.44577  -0.44451  -0.44279
 Alpha  occ. eigenvalues --   -0.44143  -0.43977  -0.43918  -0.43702  -0.43533
 Alpha  occ. eigenvalues --   -0.43504  -0.43044  -0.42606  -0.42233  -0.42173
 Alpha  occ. eigenvalues --   -0.41800  -0.41506  -0.40934  -0.40868  -0.40534
 Alpha  occ. eigenvalues --   -0.39891  -0.39718  -0.39622  -0.39357  -0.39036
 Alpha  occ. eigenvalues --   -0.38975  -0.38758  -0.38636  -0.38522  -0.38221
 Alpha  occ. eigenvalues --   -0.37407  -0.37366  -0.36733  -0.36436  -0.36175
 Alpha  occ. eigenvalues --   -0.35726  -0.35233  -0.34953  -0.33553  -0.32900
 Alpha  occ. eigenvalues --   -0.32781  -0.32643  -0.32540  -0.31426  -0.25720
 Alpha  occ. eigenvalues --   -0.22735
 Alpha virt. eigenvalues --   -0.06966   0.00564   0.02836   0.04843   0.05774
 Alpha virt. eigenvalues --    0.06736   0.07222   0.08152   0.08206   0.09812
 Alpha virt. eigenvalues --    0.10933   0.11570   0.11738   0.11767   0.12002

 Mulliken charges:
               1
     1  Mg   0.944180
     2  C    0.027678
     3  C   -0.105571
     4  C   -0.040360
     5  C   -0.082381
     6  N   -0.407671
     7  C    0.044900
     8  C   -0.042895
     9  C   -0.119440
    10  C    0.098909
    11  C    0.029815
    12  C   -0.004867
    13  C    0.005399
    14  C    0.234808
    15  O   -0.254692
    16  O   -0.376572
    17  N   -0.420420
    18  C    0.155045
    19  C   -0.163018
    20  C   -0.088030
    21  C    0.152379
    22  C    0.068706
    23  C    0.080083
    24  O   -0.213707
    25  C   -0.023580
    26  N   -0.362643
    27  C    0.023128
    28  C   -0.136455
    29  C   -0.063206
    30  C    0.068157
    31  C    0.039258
    32  C   -0.009184
    33  C   -0.045424
    34  N   -0.438284
    35  C    0.088159
    36  C   -0.205471
    37  C   -0.030378
    38  C    0.136199
    39  C    0.076949
    40  C    0.173045
    41  O   -0.174901
    42  C   -0.168034
    43  C    0.259677
    44  O   -0.265461
    45  O   -0.359628
    46  C    0.142105
    47  C    0.233086
    48  C   -0.146969
    49  C   -0.185619
    50  C    0.020120
    51  C    0.040268
    52  C   -0.022087
    53  C    0.014900
    54  C   -0.174825
    55  C    0.019097
    56  C    0.024354
    57  C   -0.034621
    58  C    0.001014
    59  C   -0.174309
    60  C   -0.015075
    61  C    0.023487
    62  C    0.005830
    63  C   -0.016439
    64  C   -0.229915
    65  C    0.006850
    66  C   -0.015317
    67  H   -0.024767
    68  H    0.018826
    69  H    0.001345
    70  H    0.049383
    71  H    0.038526
    72  H    0.063398
    73  H    0.030477
    74  H    0.034245
    75  H    0.036010
    76  H    0.051425
    77  H    0.035614
    78  H    0.048809
    79  H    0.045490
    80  H    0.045919
    81  H    0.048251
    82  H    0.051283
    83  H    0.037952
    84  H    0.055947
    85  H    0.037676
    86  H    0.035888
    87  H    0.034813
    88  H    0.045049
    89  H    0.052024
    90  H    0.034625
    91  H    0.016052
    92  H    0.031286
    93  H    0.044819
    94  H    0.049409
    95  H    0.069112
    96  H    0.056853
    97  H    0.018505
    98  H    0.083673
    99  H    0.083835
   100  H    0.041034
   101  H    0.049972
   102  H    0.072518
   103  H    0.067485
   104  H    0.019720
   105  H    0.052839
   106  H    0.012546
   107  H    0.050435
   108  H    0.015351
   109  H    0.026294
   110  H    0.020163
   111  H    0.022358
   112  H    0.009946
   113  H    0.006574
   114  H    0.003212
   115  H    0.011714
   116  H    0.039156
   117  H    0.030955
   118  H    0.008667
   119  H    0.018437
   120  H    0.013746
   121  H    0.022510
   122  H    0.003380
   123  H    0.015564
   124  H    0.002511
   125  H    0.032106
   126  H    0.024756
   127  H    0.040292
   128  H    0.004889
   129  H    0.014767
   130  H    0.028801
   131  H    0.017584
   132  H    0.018303
   133  H    0.006386
   134  H    0.025763
   135  H    0.031527
   136  H    0.030592
   137  H    0.022222
   138  H    0.016306
   139  H    0.027880
   140  H    0.038846
 Sum of Mulliken charges =  -0.00000

 Dipole moment (field-independent basis, Debye):
    X=             -4.4282    Y=              2.7975    Z=              0.3756  Tot=              5.2513
 Quadrupole moment (field-independent basis, Debye-Ang):
   XX=           -385.8982   YY=           -404.8593   ZZ=           -410.5409
   XY=              6.9841   XZ=             29.6652   YZ=              2.6860

 Normal termination of Gaussian 16 at Wed May  4 09:42:27 2022.
