 Gaussian 16, Revision A.03,
 Gaussian 16:  ES64L-G16RevA.03 25-Dec-2016

 --------------------
 #p ZINDO=(nstates=5)
 --------------------

 ------------------------------
 step_1551_chromophore_16 ZINDO
 ------------------------------
 Symbolic Z-matrix:
 Charge =  0 Multiplicity = 1

                         Standard orientation:
 ---------------------------------------------------------------------
 Center     Atomic      Atomic             Coordinates (Angstroms)
 Number     Number       Type             X           Y           Z
 ---------------------------------------------------------------------
      1         12           0        6.024324    0.407520    0.124561
      2          6           0        4.025161   -2.235862   -0.090774
      3          6           0        3.328961    2.521080   -0.842813
      4          6           0        8.053922    3.177442    0.078204
      5          6           0        8.834475   -1.666990    0.650151
      6          7           0        3.957531    0.152523   -0.346727
      7          6           0        3.275993   -1.066996   -0.347845
      8          6           0        1.824587   -0.922080   -0.843810
      9          6           0        1.661254    0.595590   -0.931176
     10          6           0        3.078840    1.158471   -0.699838
     11          6           0        0.892906    1.241853   -2.130923
     12          6           0        0.734275   -1.768141   -0.137407
     13          6           0       -0.633847   -1.093775    0.053130
     14          6           0       -1.772027   -1.899403    0.690339
     15          8           0       -2.016378   -1.943224    1.892116
     16          8           0       -2.454010   -2.514967   -0.336775
     17          7           0        5.728980    2.582450   -0.334322
     18          6           0        4.538619    3.220795   -0.674619
     19          6           0        4.800488    4.644461   -0.817344
     20          6           0        6.213946    4.827812   -0.652572
     21          6           0        6.740321    3.523775   -0.325491
     22          6           0        3.721275    5.705103   -1.053435
     23          6           0        7.085987    6.118338   -0.753485
     24          8           0        8.286230    6.085488   -0.766598
     25          6           0        6.509319    7.470526   -0.877508
     26          7           0        8.193711    0.658890    0.149819
     27          6           0        8.664305    1.959267    0.371690
     28          6           0       10.151380    1.899525    0.757956
     29          6           0       10.413526    0.348278    1.017699
     30          6           0        9.113720   -0.297172    0.501806
     31          6           0       11.029161    2.381781   -0.360643
     32          6           0       10.596739    0.081154    2.594384
     33          6           0        9.600702    0.688794    3.617190
     34          7           0        6.459590   -1.571233    0.213690
     35          6           0        7.561076   -2.337387    0.497040
     36          6           0        7.188143   -3.717733    0.603402
     37          6           0        5.858325   -3.740859    0.401022
     38          6           0        5.416710   -2.372278    0.186949
     39          6           0        8.108260   -4.842290    0.973151
     40          6           0        4.675421   -4.639706    0.364210
     41          8           0        4.616571   -5.837488    0.531547
     42          6           0        3.446277   -3.643912    0.115817
     43          6           0        2.729324   -4.186971   -1.063382
     44          8           0        2.999157   -3.958802   -2.253394
     45          8           0        1.872916   -5.106228   -0.536041
     46          6           0        1.049775   -5.762105   -1.615978
     47          6           0       -3.720366   -3.198309    0.007085
     48          6           0       -4.771582   -2.325488   -0.811996
     49          6           0       -6.089035   -2.408113   -0.784928
     50          6           0       -6.852431   -3.434119    0.041334
     51          6           0       -7.041837   -1.441265   -1.457263
     52          6           0       -7.026891   -0.060955   -0.965341
     53          6           0       -8.175470    0.247233    0.000394
     54          6           0       -9.248225    1.203370   -0.507637
     55          6           0       -8.969848    2.665577   -0.208168
     56          6           0      -10.632052    0.861310   -0.089418
     57          6           0      -11.297147   -0.191781   -1.022781
     58          6           0      -12.426049    0.563685   -1.890008
     59          6           0      -13.792499    0.512094   -1.281067
     60          6           0      -14.868411   -0.084082   -2.291207
     61          6           0      -14.219727    1.782193   -0.550096
     62          6           0      -14.944435    1.601840    0.801942
     63          6           0      -14.266595    2.445044    1.852057
     64          6           0      -13.388797    1.569042    2.849253
     65          6           0      -12.223608    2.311560    3.448255
     66          6           0      -14.306436    1.147982    4.063081
     67          1           0        2.449982    3.117464   -1.096510
     68          1           0        8.772074    3.979816    0.260116
     69          1           0        9.658093   -2.327237    0.930337
     70          1           0        1.672625   -1.237458   -1.876077
     71          1           0        1.230059    0.909031    0.019047
     72          1           0        1.426683    1.603917   -3.010266
     73          1           0        0.455245    2.115012   -1.645497
     74          1           0        0.009238    0.658491   -2.386853
     75          1           0        1.110311   -1.976471    0.864161
     76          1           0        0.609387   -2.699655   -0.690648
     77          1           0       -0.929700   -0.784223   -0.949745
     78          1           0       -0.589979   -0.210315    0.689417
     79          1           0        4.061010    6.134799   -1.995458
     80          1           0        3.814360    6.532105   -0.349493
     81          1           0        2.679163    5.403638   -1.158739
     82          1           0        7.161101    8.340341   -0.795161
     83          1           0        5.862878    7.520859   -0.001886
     84          1           0        5.884032    7.710727   -1.737984
     85          1           0       10.239342    2.527618    1.644901
     86          1           0       11.200946   -0.039502    0.370007
     87          1           0       11.874571    1.757260   -0.652278
     88          1           0       11.417490    3.320642    0.034373
     89          1           0       10.337477    2.421875   -1.201458
     90          1           0       11.630366    0.323781    2.839660
     91          1           0       10.578109   -1.007327    2.545780
     92          1           0        9.055094    1.541652    3.211735
     93          1           0       10.078957    1.161688    4.474498
     94          1           0        8.825922   -0.033657    3.871765
     95          1           0        8.310455   -5.315534    0.012613
     96          1           0        7.802752   -5.504008    1.784834
     97          1           0        9.019582   -4.483289    1.451769
     98          1           0        2.781792   -3.659686    0.980426
     99          1           0        1.679044   -6.125100   -2.428330
    100          1           0        0.271097   -5.050582   -1.891047
    101          1           0        0.377419   -6.518216   -1.210333
    102          1           0       -3.965958   -3.026572    1.054847
    103          1           0       -3.701810   -4.266673   -0.205385
    104          1           0       -4.401145   -1.408489   -1.270529
    105          1           0       -7.630018   -2.945679    0.627406
    106          1           0       -6.248545   -3.999567    0.750013
    107          1           0       -7.141443   -4.234435   -0.640401
    108          1           0       -8.065406   -1.812187   -1.502736
    109          1           0       -6.784516   -1.411796   -2.515792
    110          1           0       -6.941239    0.571594   -1.849145
    111          1           0       -6.155017    0.194823   -0.363279
    112          1           0       -7.743213    0.744864    0.869755
    113          1           0       -8.518332   -0.726287    0.351038
    114          1           0       -9.141236    1.153053   -1.591572
    115          1           0       -7.905340    2.677584    0.025692
    116          1           0       -9.572189    3.055528    0.611553
    117          1           0       -9.117295    3.246751   -1.118611
    118          1           0      -11.314047    1.710200   -0.045483
    119          1           0      -10.566256    0.477563    0.928912
    120          1           0      -11.796317   -0.965317   -0.440570
    121          1           0      -10.621284   -0.712796   -1.700549
    122          1           0      -12.444903    0.075691   -2.863975
    123          1           0      -12.131550    1.593356   -2.093856
    124          1           0      -13.807320   -0.269661   -0.521629
    125          1           0      -14.965335    0.514295   -3.197472
    126          1           0      -15.852430   -0.048177   -1.822934
    127          1           0      -14.527771   -1.104301   -2.462270
    128          1           0      -14.927135    2.159878   -1.289059
    129          1           0      -13.442234    2.544460   -0.513229
    130          1           0      -15.136208    0.570447    1.098776
    131          1           0      -15.912540    2.093544    0.701808
    132          1           0      -15.003298    3.031178    2.401450
    133          1           0      -13.535960    3.152828    1.458123
    134          1           0      -13.137980    0.656794    2.306963
    135          1           0      -11.669578    1.734921    4.188844
    136          1           0      -12.570556    3.215928    3.948748
    137          1           0      -11.561750    2.566676    2.621267
    138          1           0      -14.125916    0.076379    3.989830
    139          1           0      -15.352450    1.326058    3.812838
    140          1           0      -14.023080    1.408992    5.082631
 ---------------------------------------------------------------------

 SCF Done:  E(RZINDO/S) =  -474.270295008     A.U. after   20 cycles

 Excitation energies and oscillator strengths:

 Excited State   1:      Singlet-A      1.2272 eV 1010.28 nm  f=0.6148  <S**2>=0.000
     175 ->178        -0.18934
     176 ->177         0.66327
 This state for optimization and/or second-order correction.
 Total Energy, E(CIS/TDA) =  -474.225195126
 Copying the excited state density for this state as the 1-particle RhoCI density.

 Excited State   2:      Singlet-A      1.9119 eV  648.49 nm  f=0.0435  <S**2>=0.000
     175 ->177         0.54930
     176 ->178         0.41815

 Excited State   3:      Singlet-A      2.9788 eV  416.23 nm  f=0.5482  <S**2>=0.000
     169 ->180        -0.10331
     175 ->177        -0.28975
     176 ->178         0.44942
     176 ->179         0.34039
     176 ->183         0.10685

 Excited State   4:      Singlet-A      2.9961 eV  413.82 nm  f=0.0054  <S**2>=0.000
     168 ->179        -0.11584
     169 ->177         0.23452
     169 ->179        -0.22143
     169 ->180        -0.34296
     169 ->183         0.15917
     169 ->186        -0.20123
     169 ->187        -0.16088
     170 ->180         0.13322
     176 ->179        -0.22531

 Excited State   5:      Singlet-A      3.0741 eV  403.32 nm  f=0.1158  <S**2>=0.000
     168 ->177         0.29366
     168 ->178         0.17206
     168 ->179         0.38061
     168 ->180        -0.15774
     168 ->183         0.13764
     168 ->184        -0.10052
     168 ->186         0.18077
     168 ->187        -0.11795
     168 ->199        -0.10677
     169 ->179        -0.14089
     175 ->177         0.10690
     176 ->178        -0.14154

 The electronic state is 1-A.
 Alpha  occ. eigenvalues --   -1.85355  -1.79111  -1.78277  -1.72503  -1.71805
 Alpha  occ. eigenvalues --   -1.69792  -1.68150  -1.63124  -1.60775  -1.56839
 Alpha  occ. eigenvalues --   -1.56090  -1.52599  -1.49518  -1.48906  -1.46306
 Alpha  occ. eigenvalues --   -1.43234  -1.42555  -1.40972  -1.38882  -1.37901
 Alpha  occ. eigenvalues --   -1.36177  -1.34339  -1.34202  -1.30774  -1.28668
 Alpha  occ. eigenvalues --   -1.27537  -1.24199  -1.21822  -1.21149  -1.18318
 Alpha  occ. eigenvalues --   -1.17312  -1.15870  -1.15354  -1.14151  -1.12751
 Alpha  occ. eigenvalues --   -1.11966  -1.11208  -1.10417  -1.04297  -1.03277
 Alpha  occ. eigenvalues --   -1.02508  -1.01917  -0.99115  -0.98494  -0.97456
 Alpha  occ. eigenvalues --   -0.95378  -0.94734  -0.93332  -0.92704  -0.92246
 Alpha  occ. eigenvalues --   -0.91179  -0.90718  -0.90358  -0.87113  -0.86718
 Alpha  occ. eigenvalues --   -0.85344  -0.84430  -0.82995  -0.81792  -0.80749
 Alpha  occ. eigenvalues --   -0.79136  -0.78510  -0.77863  -0.77487  -0.77034
 Alpha  occ. eigenvalues --   -0.76261  -0.75054  -0.74784  -0.74395  -0.73707
 Alpha  occ. eigenvalues --   -0.72806  -0.72448  -0.71920  -0.71009  -0.70690
 Alpha  occ. eigenvalues --   -0.70034  -0.69320  -0.68764  -0.68054  -0.67846
 Alpha  occ. eigenvalues --   -0.67154  -0.66861  -0.66653  -0.65890  -0.65329
 Alpha  occ. eigenvalues --   -0.65263  -0.64900  -0.64631  -0.64534  -0.64142
 Alpha  occ. eigenvalues --   -0.63344  -0.62977  -0.62723  -0.62276  -0.61931
 Alpha  occ. eigenvalues --   -0.61453  -0.61085  -0.60546  -0.60197  -0.60123
 Alpha  occ. eigenvalues --   -0.59712  -0.59316  -0.58860  -0.58592  -0.58255
 Alpha  occ. eigenvalues --   -0.58106  -0.57534  -0.57057  -0.56847  -0.56700
 Alpha  occ. eigenvalues --   -0.56612  -0.56261  -0.55761  -0.55226  -0.54579
 Alpha  occ. eigenvalues --   -0.54284  -0.53976  -0.53401  -0.53141  -0.52955
 Alpha  occ. eigenvalues --   -0.52479  -0.52197  -0.51958  -0.51680  -0.51239
 Alpha  occ. eigenvalues --   -0.50997  -0.50921  -0.50812  -0.50538  -0.50045
 Alpha  occ. eigenvalues --   -0.49857  -0.49561  -0.49514  -0.49247  -0.48911
 Alpha  occ. eigenvalues --   -0.48761  -0.48454  -0.48074  -0.47520  -0.47396
 Alpha  occ. eigenvalues --   -0.47246  -0.46902  -0.46895  -0.46561  -0.46293
 Alpha  occ. eigenvalues --   -0.45991  -0.45759  -0.45510  -0.45204  -0.44918
 Alpha  occ. eigenvalues --   -0.44777  -0.44541  -0.44412  -0.43969  -0.43612
 Alpha  occ. eigenvalues --   -0.43478  -0.42819  -0.42330  -0.42260  -0.41996
 Alpha  occ. eigenvalues --   -0.41861  -0.41786  -0.40543  -0.39283  -0.38826
 Alpha  occ. eigenvalues --   -0.38247  -0.37000  -0.35251  -0.35037  -0.34358
 Alpha  occ. eigenvalues --   -0.33665  -0.32805  -0.32560  -0.32245  -0.26553
 Alpha  occ. eigenvalues --   -0.21564
 Alpha virt. eigenvalues --   -0.08466  -0.01851  -0.00294   0.01266   0.01600
 Alpha virt. eigenvalues --    0.02435   0.02670   0.03036   0.04943   0.05045
 Alpha virt. eigenvalues --    0.06289   0.06819   0.07094   0.07734   0.08070

 Mulliken charges:
               1
     1  Mg   0.432324
     2  C   -0.045881
     3  C   -0.077144
     4  C   -0.054450
     5  C   -0.066107
     6  N   -0.286367
     7  C    0.109041
     8  C    0.010314
     9  C    0.002386
    10  C    0.132061
    11  C   -0.052988
    12  C   -0.015200
    13  C    0.002751
    14  C    0.469338
    15  O   -0.513490
    16  O   -0.272127
    17  N   -0.348374
    18  C    0.109397
    19  C    0.007735
    20  C   -0.049437
    21  C    0.141489
    22  C   -0.045799
    23  C    0.337325
    24  O   -0.512121
    25  C   -0.025563
    26  N   -0.280445
    27  C    0.131449
    28  C    0.000488
    29  C   -0.005929
    30  C    0.118349
    31  C   -0.053274
    32  C   -0.030435
    33  C   -0.050694
    34  N   -0.295136
    35  C    0.082429
    36  C    0.047300
    37  C   -0.053297
    38  C    0.112256
    39  C   -0.043184
    40  C    0.334463
    41  O   -0.497707
    42  C    0.051009
    43  C    0.489989
    44  O   -0.536098
    45  O   -0.258531
    46  C    0.065943
    47  C    0.098285
    48  C   -0.098933
    49  C    0.005669
    50  C   -0.050857
    51  C   -0.009077
    52  C   -0.024135
    53  C   -0.031429
    54  C   -0.001627
    55  C   -0.058852
    56  C   -0.026135
    57  C   -0.046307
    58  C   -0.032371
    59  C   -0.011541
    60  C   -0.060713
    61  C   -0.035687
    62  C   -0.028685
    63  C   -0.035351
    64  C   -0.018679
    65  C   -0.048193
    66  C   -0.074232
    67  H    0.022727
    68  H    0.039662
    69  H    0.025068
    70  H    0.037311
    71  H    0.030100
    72  H    0.040810
    73  H    0.009793
    74  H    0.019670
    75  H    0.022191
    76  H    0.035198
    77  H    0.031903
    78  H    0.037817
    79  H    0.024908
    80  H    0.029143
    81  H    0.033446
    82  H    0.037183
    83  H    0.023832
    84  H    0.036111
    85  H    0.032276
    86  H    0.040306
    87  H    0.019591
    88  H    0.024620
    89  H    0.033957
    90  H    0.016136
    91  H    0.016622
    92  H    0.018611
    93  H    0.025638
    94  H    0.026886
    95  H    0.042870
    96  H    0.037503
    97  H    0.014045
    98  H    0.057392
    99  H    0.064147
   100  H    0.033491
   101  H    0.032238
   102  H    0.058083
   103  H    0.055860
   104  H    0.031578
   105  H    0.034258
   106  H    0.011610
   107  H    0.030732
   108  H    0.018255
   109  H    0.010438
   110  H    0.017387
   111  H    0.015661
   112  H    0.010864
   113  H    0.019947
   114  H    0.011474
   115  H    0.014527
   116  H    0.025092
   117  H    0.017284
   118  H    0.021584
   119  H    0.012942
   120  H    0.016751
   121  H    0.021401
   122  H    0.007299
   123  H    0.019532
   124  H    0.009632
   125  H    0.021753
   126  H    0.014945
   127  H    0.022937
   128  H    0.009023
   129  H    0.026088
   130  H    0.032936
   131  H    0.009253
   132  H    0.017735
   133  H    0.015519
   134  H    0.027127
   135  H    0.017431
   136  H    0.020662
   137  H    0.009209
   138  H    0.006484
   139  H    0.022473
   140  H    0.031825
 Sum of Mulliken charges =  -0.00000

 Dipole moment (field-independent basis, Debye):
    X=             -5.5285    Y=              5.0013    Z=              1.3709  Tot=              7.5800
 N-N= 4.251531375568D+03 E-N= 0.000000000000D+00  KE=-9.177417538737D+03
 Leave Link  601 at Wed May  4 09:54:49 2022, MaxMem=  6710886400 cpu:               0.8 elap:               0.0
 (Enter /sw/apps/gaussian-16.0/g16/l9999.exe)
 1\1\GINC-BP1-COMPUTE101\SP\RZINDO CIS\STO-3G\C55H74Mg1N4O6\OF15641\04-
 May-2022\0\\#p ZINDO=(nstates=5)\\step_1551_chromophore_16 ZINDO\\0,1\
 Mg,0,40.296,41.369,27.405\C,0,39.533,43.629,29.716\C,0,41.23,39.075,29
 .961\C,0,41.344,39.045,25.104\C,0,39.814,43.734,24.826\N,0,40.319,41.3
 65,29.54\C,0,39.916,42.428,30.352\C,0,40.165,42.146,31.846\C,0,40.571,
 40.672,31.835\C,0,40.733,40.319,30.342\C,0,41.731,40.163,32.753\C,0,39
 .099,42.637,32.859\C,0,38.829,41.719,34.062\C,0,37.83,42.177,35.131\O,

 Normal termination of Gaussian 16 at Wed May  4 09:54:49 2022.
