 Gaussian 16, Revision A.03,
 Gaussian 16:  ES64L-G16RevA.03 25-Dec-2016

 ------------------------------
 #p blyp/Def2SVP td=(nstates=5)
 ------------------------------

 --------------------------------------------------
 step_851_chromophore_23 TDDFT with blyp functional
 --------------------------------------------------
 Symbolic Z-matrix:
 Charge =  0 Multiplicity = 1

                         Standard orientation:
 ---------------------------------------------------------------------
 Center     Atomic      Atomic             Coordinates (Angstroms)
 Number     Number       Type             X           Y           Z
 ---------------------------------------------------------------------
      1         12           0       -4.589980   -0.132555   -0.323658
      2          6           0       -2.614094    2.699169    0.058732
      3          6           0       -2.477678   -1.133073   -2.896712
      4          6           0       -6.091282   -3.173142   -0.285891
      5          6           0       -6.147598    0.580971    2.783298
      6          7           0       -2.612931    0.600865   -1.186680
      7          6           0       -2.126559    1.838207   -0.939172
      8          6           0       -0.840002    2.204020   -1.733931
      9          6           0       -0.925549    0.988292   -2.789163
     10          6           0       -2.130730    0.173692   -2.344200
     11          6           0       -0.979085    1.517374   -4.273338
     12          6           0        0.461230    2.247782   -0.945171
     13          6           0        1.255353    3.536397   -1.209950
     14          6           0        2.428010    3.443944   -2.211438
     15          8           0        2.392915    3.174264   -3.402936
     16          8           0        3.599688    3.609049   -1.532189
     17          7           0       -4.523954   -1.830623   -1.564414
     18          6           0       -3.515794   -2.066210   -2.547807
     19          6           0       -3.708782   -3.329332   -3.172889
     20          6           0       -4.740043   -3.987801   -2.458188
     21          6           0       -5.234508   -2.973005   -1.391428
     22          6           0       -2.761781   -3.930834   -4.258042
     23          6           0       -5.171517   -5.364874   -2.768962
     24          8           0       -4.807735   -5.930015   -3.781895
     25          6           0       -6.187773   -6.166037   -1.874125
     26          7           0       -5.940038   -1.168244    1.168468
     27          6           0       -6.452166   -2.375679    0.796899
     28          6           0       -7.410957   -2.771935    1.952074
     29          6           0       -7.387222   -1.607096    2.938178
     30          6           0       -6.432725   -0.647421    2.272698
     31          6           0       -8.806064   -3.277299    1.571639
     32          6           0       -6.930462   -1.969995    4.467749
     33          6           0       -7.954961   -1.878466    5.576462
     34          7           0       -4.464980    1.337499    1.119609
     35          6           0       -5.221108    1.544072    2.260972
     36          6           0       -4.907413    2.845802    2.830507
     37          6           0       -3.890891    3.349998    1.967425
     38          6           0       -3.602758    2.355680    0.969258
     39          6           0       -5.503953    3.459348    4.094481
     40          6           0       -3.177781    4.550883    1.590868
     41          8           0       -3.217184    5.653871    2.109779
     42          6           0       -2.259932    4.142851    0.386331
     43          6           0       -2.501005    5.053951   -0.780094
     44          8           0       -3.481351    5.087122   -1.552039
     45          8           0       -1.499315    6.003596   -0.737249
     46          6           0       -1.692930    7.235424   -1.573879
     47          6           0        4.928259    3.348263   -2.009727
     48          6           0        5.686833    2.762067   -0.849810
     49          6           0        5.656922    1.553763   -0.314995
     50          6           0        4.615838    0.537220   -0.717461
     51          6           0        6.800029    1.020774    0.593815
     52          6           0        8.050187    0.374547   -0.029313
     53          6           0        9.344539    0.972917    0.570164
     54          6           0       10.513923   -0.020564    0.745037
     55          6           0       11.882384    0.567161    0.481970
     56          6           0       10.564842   -0.548707    2.201351
     57          6           0       10.196206   -2.070598    2.244889
     58          6           0        9.230851   -2.493428    3.376384
     59          6           0        7.760418   -2.467391    2.917690
     60          6           0        6.795675   -1.931265    4.052412
     61          6           0        7.258441   -3.867227    2.522611
     62          6           0        6.115471   -3.893296    1.506099
     63          6           0        6.664184   -4.146289    0.023307
     64          6           0        5.942782   -3.290921   -1.060978
     65          6           0        4.854393   -4.161425   -1.807259
     66          6           0        6.991239   -2.606901   -2.043755
     67          1           0       -2.012742   -1.294997   -3.871687
     68          1           0       -6.711620   -4.068702   -0.361868
     69          1           0       -6.552406    0.932236    3.733303
     70          1           0       -1.051602    3.107106   -2.307881
     71          1           0       -0.046156    0.351757   -2.688025
     72          1           0       -1.117592    2.596689   -4.334396
     73          1           0       -1.776113    0.971490   -4.779500
     74          1           0       -0.012377    1.364784   -4.753448
     75          1           0        1.102456    1.435480   -1.286852
     76          1           0        0.334953    2.053353    0.119663
     77          1           0        1.668816    3.722657   -0.218451
     78          1           0        0.684013    4.367342   -1.623190
     79          1           0       -2.663958   -5.015794   -4.297870
     80          1           0       -1.742267   -3.581191   -4.093505
     81          1           0       -2.967353   -3.532191   -5.250809
     82          1           0       -7.249689   -5.965997   -2.014595
     83          1           0       -5.900797   -5.922139   -0.851435
     84          1           0       -5.960803   -7.226677   -1.977091
     85          1           0       -6.933207   -3.636223    2.413180
     86          1           0       -8.451624   -1.369899    2.952522
     87          1           0       -9.379451   -2.364473    1.408425
     88          1           0       -9.312984   -4.060953    2.134683
     89          1           0       -8.716786   -3.690275    0.567501
     90          1           0       -6.247460   -1.182622    4.786875
     91          1           0       -6.498202   -2.969513    4.482657
     92          1           0       -8.182540   -2.857016    5.997168
     93          1           0       -8.881492   -1.481828    5.160135
     94          1           0       -7.733716   -1.160309    6.365887
     95          1           0       -4.851160    3.164013    4.915496
     96          1           0       -6.474609    3.029811    4.341880
     97          1           0       -5.685907    4.533770    4.132380
     98          1           0       -1.232586    4.193673    0.748531
     99          1           0       -0.733425    7.680691   -1.840231
    100          1           0       -2.338788    7.962065   -1.080601
    101          1           0       -2.285765    6.978325   -2.451569
    102          1           0        5.280751    4.265008   -2.482147
    103          1           0        4.931573    2.534985   -2.735438
    104          1           0        6.386580    3.380982   -0.286687
    105          1           0        5.184395   -0.300429   -1.121364
    106          1           0        3.971522    0.796962   -1.556119
    107          1           0        4.089868    0.112586    0.138552
    108          1           0        6.398401    0.279945    1.284513
    109          1           0        7.082653    1.895356    1.179739
    110          1           0        7.989014    0.568769   -1.100524
    111          1           0        8.028990   -0.710400    0.070386
    112          1           0        9.196424    1.568355    1.470687
    113          1           0        9.495223    1.651948   -0.269460
    114          1           0       10.470193   -0.914660    0.122811
    115          1           0       11.810608    1.589704    0.853340
    116          1           0       12.042996    0.604805   -0.595529
    117          1           0       12.682468    0.130464    1.079954
    118          1           0        9.808381   -0.019026    2.779644
    119          1           0       11.508997   -0.449282    2.737096
    120          1           0       11.101391   -2.675797    2.294124
    121          1           0        9.775598   -2.338670    1.275856
    122          1           0        9.459359   -1.933676    4.283118
    123          1           0        9.405011   -3.552597    3.566565
    124          1           0        7.586898   -1.858427    2.031069
    125          1           0        7.368960   -1.817023    4.972783
    126          1           0        6.001081   -2.614707    4.351823
    127          1           0        6.411789   -0.944039    3.795232
    128          1           0        6.887757   -4.441907    3.371191
    129          1           0        8.062632   -4.450079    2.074289
    130          1           0        5.372156   -3.101609    1.599547
    131          1           0        5.515487   -4.765977    1.765788
    132          1           0        6.614415   -5.228183   -0.096449
    133          1           0        7.728687   -3.910593    0.037364
    134          1           0        5.353698   -2.484049   -0.624742
    135          1           0        5.212919   -4.566210   -2.753714
    136          1           0        4.046573   -3.511165   -2.140773
    137          1           0        4.622112   -4.984742   -1.130648
    138          1           0        6.585122   -1.628520   -2.302160
    139          1           0        7.165144   -3.211783   -2.933523
    140          1           0        7.978617   -2.325838   -1.679957
 ---------------------------------------------------------------------

 SCF Done:  E(RB-LYP) =  -3007.36375562     A.U. after   21 cycles

 Excitation energies and oscillator strengths:

 Excited State   1:      Singlet-A      1.7209 eV  720.44 nm  f=0.0090  <S**2>=0.000
     244 -> 247        0.65824
     245 -> 247       -0.23212
     246 -> 247       -0.10672
 This state for optimization and/or second-order correction.
 Total Energy, E(TD-HF/TD-DFT) =  -3007.30051196
 Copying the excited state density for this state as the 1-particle RhoCI density.

 Excited State   2:      Singlet-A      1.8198 eV  681.30 nm  f=0.2785  <S**2>=0.000
     245 -> 248       -0.20572
     246 -> 247        0.67451
     246 <- 247       -0.14106

 Excited State   3:      Singlet-A      2.0057 eV  618.15 nm  f=0.0069  <S**2>=0.000
     243 -> 247        0.68635
     245 -> 247       -0.14048

 Excited State   4:      Singlet-A      2.0397 eV  607.86 nm  f=0.0788  <S**2>=0.000
     243 -> 247        0.16443
     244 -> 247        0.22142
     245 -> 247        0.58421
     246 -> 248        0.26003

 Excited State   5:      Singlet-A      2.4266 eV  510.94 nm  f=0.0006  <S**2>=0.000
     241 -> 247        0.65605
     242 -> 247        0.26180

 The electronic state is 1-A.
 Alpha  occ. eigenvalues --  -46.28683 -18.82441 -18.81347 -18.77218 -18.76928
 Alpha  occ. eigenvalues --  -18.75867 -18.74957 -14.03901 -14.02846 -14.02022
 Alpha  occ. eigenvalues --  -14.01156 -10.04478 -10.04275  -9.99755  -9.99409
 Alpha  occ. eigenvalues --   -9.98617  -9.97752  -9.97158  -9.97060  -9.97010
 Alpha  occ. eigenvalues --   -9.96785  -9.96293  -9.96039  -9.95928  -9.94527
 Alpha  occ. eigenvalues --   -9.94453  -9.94239  -9.94099  -9.94052  -9.94051
 Alpha  occ. eigenvalues --   -9.93885  -9.93652  -9.93590  -9.93558  -9.93528
 Alpha  occ. eigenvalues --   -9.93520  -9.93498  -9.93200  -9.93121  -9.92901
 Alpha  occ. eigenvalues --   -9.92893  -9.92882  -9.92684  -9.92644  -9.92489
 Alpha  occ. eigenvalues --   -9.92418  -9.92300  -9.92135  -9.91961  -9.91958
 Alpha  occ. eigenvalues --   -9.91934  -9.91913  -9.91722  -9.91711  -9.91525
 Alpha  occ. eigenvalues --   -9.91507  -9.91311  -9.91286  -9.91275  -9.91260
 Alpha  occ. eigenvalues --   -9.91183  -9.91132  -9.91054  -9.90979  -9.90927
 Alpha  occ. eigenvalues --   -9.90689  -2.93092  -1.73501  -1.73014  -1.72781
 Alpha  occ. eigenvalues --   -0.97861  -0.96680  -0.91536  -0.91504  -0.90016
 Alpha  occ. eigenvalues --   -0.88856  -0.87605  -0.87012  -0.85675  -0.84512
 Alpha  occ. eigenvalues --   -0.75901  -0.74274  -0.73397  -0.73039  -0.72305
 Alpha  occ. eigenvalues --   -0.72262  -0.72085  -0.70550  -0.70506  -0.70053
 Alpha  occ. eigenvalues --   -0.69468  -0.69000  -0.68316  -0.67730  -0.67467
 Alpha  occ. eigenvalues --   -0.66814  -0.66061  -0.65453  -0.65143  -0.64150
 Alpha  occ. eigenvalues --   -0.63917  -0.62413  -0.62136  -0.61308  -0.60963
 Alpha  occ. eigenvalues --   -0.60800  -0.60306  -0.60264  -0.59463  -0.59058
 Alpha  occ. eigenvalues --   -0.58731  -0.58013  -0.57283  -0.56185  -0.54243
 Alpha  occ. eigenvalues --   -0.54119  -0.53983  -0.53318  -0.52838  -0.52019
 Alpha  occ. eigenvalues --   -0.51583  -0.51173  -0.50967  -0.50570  -0.50271
 Alpha  occ. eigenvalues --   -0.50118  -0.49781  -0.49096  -0.48648  -0.46363
 Alpha  occ. eigenvalues --   -0.46150  -0.46029  -0.45951  -0.45637  -0.44840
 Alpha  occ. eigenvalues --   -0.44498  -0.44355  -0.43436  -0.43151  -0.42702
 Alpha  occ. eigenvalues --   -0.42281  -0.42133  -0.41897  -0.41439  -0.41203
 Alpha  occ. eigenvalues --   -0.40990  -0.40787  -0.40547  -0.40455  -0.40323
 Alpha  occ. eigenvalues --   -0.39866  -0.39700  -0.39456  -0.39123  -0.38854
 Alpha  occ. eigenvalues --   -0.38607  -0.38548  -0.38393  -0.38178  -0.38030
 Alpha  occ. eigenvalues --   -0.37944  -0.37911  -0.37760  -0.37315  -0.37150
 Alpha  occ. eigenvalues --   -0.37132  -0.36901  -0.36641  -0.36612  -0.36440
 Alpha  occ. eigenvalues --   -0.36277  -0.36070  -0.35936  -0.35654  -0.35539
 Alpha  occ. eigenvalues --   -0.35455  -0.35191  -0.35040  -0.34929  -0.34714
 Alpha  occ. eigenvalues --   -0.34480  -0.34301  -0.34225  -0.34065  -0.33950
 Alpha  occ. eigenvalues --   -0.33891  -0.33636  -0.33539  -0.33308  -0.33254
 Alpha  occ. eigenvalues --   -0.33035  -0.32946  -0.32833  -0.32570  -0.32323
 Alpha  occ. eigenvalues --   -0.32049  -0.31990  -0.31839  -0.31599  -0.31484
 Alpha  occ. eigenvalues --   -0.31410  -0.31199  -0.31156  -0.31010  -0.30836
 Alpha  occ. eigenvalues --   -0.30632  -0.30571  -0.30189  -0.30035  -0.29984
 Alpha  occ. eigenvalues --   -0.29709  -0.29523  -0.29386  -0.29231  -0.28899
 Alpha  occ. eigenvalues --   -0.28730  -0.28549  -0.28317  -0.28027  -0.27865
 Alpha  occ. eigenvalues --   -0.27617  -0.27565  -0.27229  -0.27107  -0.26644
 Alpha  occ. eigenvalues --   -0.26451  -0.26151  -0.25770  -0.25600  -0.25459
 Alpha  occ. eigenvalues --   -0.25344  -0.25089  -0.24582  -0.24105  -0.24002
 Alpha  occ. eigenvalues --   -0.23317  -0.22407  -0.22367  -0.22192  -0.20952
 Alpha  occ. eigenvalues --   -0.20680  -0.20627  -0.19022  -0.18036  -0.17570
 Alpha  occ. eigenvalues --   -0.16133
 Alpha virt. eigenvalues --   -0.11758  -0.07325  -0.06419  -0.04665  -0.03601
 Alpha virt. eigenvalues --   -0.03479  -0.03163  -0.02426  -0.01861   0.00188
 Alpha virt. eigenvalues --    0.01044   0.01103   0.01678   0.02276   0.02819

 Mulliken charges:
               1
     1  Mg   0.698580
     2  C    0.007886
     3  C   -0.077519
     4  C   -0.045709
     5  C   -0.061973
     6  N   -0.165804
     7  C   -0.128345
     8  C    0.035498
     9  C   -0.045281
    10  C    0.029914
    11  C    0.119405
    12  C    0.153240
    13  C    0.127395
    14  C    0.041542
    15  O   -0.192431
    16  O   -0.266086
    17  N   -0.310382
    18  C    0.140294
    19  C   -0.102847
    20  C    0.037294
    21  C    0.117859
    22  C    0.179214
    23  C   -0.105119
    24  O   -0.162234
    25  C    0.109561
    26  N   -0.170994
    27  C    0.010137
    28  C   -0.001897
    29  C    0.052256
    30  C    0.050034
    31  C    0.138582
    32  C    0.082616
    33  C    0.054418
    34  N   -0.266561
    35  C    0.071518
    36  C   -0.152734
    37  C    0.064905
    38  C    0.064881
    39  C    0.161309
    40  C   -0.047368
    41  O   -0.124529
    42  C    0.092624
    43  C    0.138356
    44  O   -0.203160
    45  O   -0.285208
    46  C    0.206443
    47  C    0.348779
    48  C   -0.089878
    49  C   -0.167605
    50  C    0.135986
    51  C    0.111111
    52  C    0.065403
    53  C    0.106822
    54  C   -0.073754
    55  C    0.112900
    56  C    0.114748
    57  C    0.022303
    58  C    0.154377
    59  C   -0.078524
    60  C    0.097490
    61  C    0.080469
    62  C    0.045957
    63  C    0.090384
    64  C   -0.077744
    65  C    0.089707
    66  C    0.068031
    67  H   -0.039280
    68  H   -0.060008
    69  H   -0.068527
    70  H   -0.010246
    71  H   -0.008521
    72  H   -0.003733
    73  H   -0.005836
    74  H    0.000325
    75  H   -0.019379
    76  H   -0.009889
    77  H   -0.011331
    78  H    0.012820
    79  H    0.015123
    80  H   -0.024109
    81  H   -0.005881
    82  H    0.024419
    83  H   -0.011808
    84  H   -0.009154
    85  H   -0.028015
    86  H   -0.026643
    87  H   -0.018777
    88  H    0.002383
    89  H   -0.029356
    90  H   -0.014880
    91  H   -0.015934
    92  H   -0.005890
    93  H   -0.024532
    94  H   -0.007230
    95  H    0.006061
    96  H   -0.017374
    97  H    0.014723
    98  H    0.001332
    99  H    0.025630
   100  H    0.022186
   101  H    0.017335
   102  H   -0.003001
   103  H   -0.010168
   104  H   -0.050010
   105  H   -0.014067
   106  H   -0.006724
   107  H    0.003038
   108  H   -0.028615
   109  H   -0.022748
   110  H   -0.028937
   111  H    0.004907
   112  H   -0.015082
   113  H   -0.030796
   114  H   -0.029689
   115  H   -0.030883
   116  H   -0.016839
   117  H   -0.014783
   118  H   -0.041811
   119  H   -0.028169
   120  H   -0.038667
   121  H   -0.031042
   122  H   -0.027968
   123  H   -0.043636
   124  H   -0.030454
   125  H   -0.029541
   126  H   -0.015669
   127  H   -0.010168
   128  H   -0.037214
   129  H   -0.040702
   130  H   -0.030845
   131  H   -0.044731
   132  H   -0.025107
   133  H   -0.027715
   134  H   -0.019769
   135  H   -0.018950
   136  H   -0.016213
   137  H   -0.001726
   138  H   -0.017694
   139  H   -0.014461
   140  H   -0.005892
 Sum of Mulliken charges =  -0.00000

 Dipole moment (field-independent basis, Debye):
    X=              1.8325    Y=             -1.0558    Z=              3.2188  Tot=              3.8514
 Quadrupole moment (field-independent basis, Debye-Ang):
   XX=           -372.9982   YY=           -429.9764   ZZ=           -415.2352
   XY=              8.8613   XZ=            -20.5722   YZ=            -26.1007

 Normal termination of Gaussian 16 at Thu May  5 13:22:02 2022.
