 Gaussian 16, Revision A.03,
 Gaussian 16:  ES64L-G16RevA.03 25-Dec-2016

 -----------------------------------
 #p cam-b3lyp/Def2SVP td=(nstates=5)
 -----------------------------------

 -------------------------------------------------------
 step_851_chromophore_23 TDDFT with cam-b3lyp functional
 -------------------------------------------------------
 Symbolic Z-matrix:
 Charge =  0 Multiplicity = 1

                         Standard orientation:
 ---------------------------------------------------------------------
 Center     Atomic      Atomic             Coordinates (Angstroms)
 Number     Number       Type             X           Y           Z
 ---------------------------------------------------------------------
      1         12           0       -4.589980   -0.132555   -0.323658
      2          6           0       -2.614094    2.699169    0.058732
      3          6           0       -2.477678   -1.133073   -2.896712
      4          6           0       -6.091282   -3.173142   -0.285891
      5          6           0       -6.147598    0.580971    2.783298
      6          7           0       -2.612931    0.600865   -1.186680
      7          6           0       -2.126559    1.838207   -0.939172
      8          6           0       -0.840002    2.204020   -1.733931
      9          6           0       -0.925549    0.988292   -2.789163
     10          6           0       -2.130730    0.173692   -2.344200
     11          6           0       -0.979085    1.517374   -4.273338
     12          6           0        0.461230    2.247782   -0.945171
     13          6           0        1.255353    3.536397   -1.209950
     14          6           0        2.428010    3.443944   -2.211438
     15          8           0        2.392915    3.174264   -3.402936
     16          8           0        3.599688    3.609049   -1.532189
     17          7           0       -4.523954   -1.830623   -1.564414
     18          6           0       -3.515794   -2.066210   -2.547807
     19          6           0       -3.708782   -3.329332   -3.172889
     20          6           0       -4.740043   -3.987801   -2.458188
     21          6           0       -5.234508   -2.973005   -1.391428
     22          6           0       -2.761781   -3.930834   -4.258042
     23          6           0       -5.171517   -5.364874   -2.768962
     24          8           0       -4.807735   -5.930015   -3.781895
     25          6           0       -6.187773   -6.166037   -1.874125
     26          7           0       -5.940038   -1.168244    1.168468
     27          6           0       -6.452166   -2.375679    0.796899
     28          6           0       -7.410957   -2.771935    1.952074
     29          6           0       -7.387222   -1.607096    2.938178
     30          6           0       -6.432725   -0.647421    2.272698
     31          6           0       -8.806064   -3.277299    1.571639
     32          6           0       -6.930462   -1.969995    4.467749
     33          6           0       -7.954961   -1.878466    5.576462
     34          7           0       -4.464980    1.337499    1.119609
     35          6           0       -5.221108    1.544072    2.260972
     36          6           0       -4.907413    2.845802    2.830507
     37          6           0       -3.890891    3.349998    1.967425
     38          6           0       -3.602758    2.355680    0.969258
     39          6           0       -5.503953    3.459348    4.094481
     40          6           0       -3.177781    4.550883    1.590868
     41          8           0       -3.217184    5.653871    2.109779
     42          6           0       -2.259932    4.142851    0.386331
     43          6           0       -2.501005    5.053951   -0.780094
     44          8           0       -3.481351    5.087122   -1.552039
     45          8           0       -1.499315    6.003596   -0.737249
     46          6           0       -1.692930    7.235424   -1.573879
     47          6           0        4.928259    3.348263   -2.009727
     48          6           0        5.686833    2.762067   -0.849810
     49          6           0        5.656922    1.553763   -0.314995
     50          6           0        4.615838    0.537220   -0.717461
     51          6           0        6.800029    1.020774    0.593815
     52          6           0        8.050187    0.374547   -0.029313
     53          6           0        9.344539    0.972917    0.570164
     54          6           0       10.513923   -0.020564    0.745037
     55          6           0       11.882384    0.567161    0.481970
     56          6           0       10.564842   -0.548707    2.201351
     57          6           0       10.196206   -2.070598    2.244889
     58          6           0        9.230851   -2.493428    3.376384
     59          6           0        7.760418   -2.467391    2.917690
     60          6           0        6.795675   -1.931265    4.052412
     61          6           0        7.258441   -3.867227    2.522611
     62          6           0        6.115471   -3.893296    1.506099
     63          6           0        6.664184   -4.146289    0.023307
     64          6           0        5.942782   -3.290921   -1.060978
     65          6           0        4.854393   -4.161425   -1.807259
     66          6           0        6.991239   -2.606901   -2.043755
     67          1           0       -2.012742   -1.294997   -3.871687
     68          1           0       -6.711620   -4.068702   -0.361868
     69          1           0       -6.552406    0.932236    3.733303
     70          1           0       -1.051602    3.107106   -2.307881
     71          1           0       -0.046156    0.351757   -2.688025
     72          1           0       -1.117592    2.596689   -4.334396
     73          1           0       -1.776113    0.971490   -4.779500
     74          1           0       -0.012377    1.364784   -4.753448
     75          1           0        1.102456    1.435480   -1.286852
     76          1           0        0.334953    2.053353    0.119663
     77          1           0        1.668816    3.722657   -0.218451
     78          1           0        0.684013    4.367342   -1.623190
     79          1           0       -2.663958   -5.015794   -4.297870
     80          1           0       -1.742267   -3.581191   -4.093505
     81          1           0       -2.967353   -3.532191   -5.250809
     82          1           0       -7.249689   -5.965997   -2.014595
     83          1           0       -5.900797   -5.922139   -0.851435
     84          1           0       -5.960803   -7.226677   -1.977091
     85          1           0       -6.933207   -3.636223    2.413180
     86          1           0       -8.451624   -1.369899    2.952522
     87          1           0       -9.379451   -2.364473    1.408425
     88          1           0       -9.312984   -4.060953    2.134683
     89          1           0       -8.716786   -3.690275    0.567501
     90          1           0       -6.247460   -1.182622    4.786875
     91          1           0       -6.498202   -2.969513    4.482657
     92          1           0       -8.182540   -2.857016    5.997168
     93          1           0       -8.881492   -1.481828    5.160135
     94          1           0       -7.733716   -1.160309    6.365887
     95          1           0       -4.851160    3.164013    4.915496
     96          1           0       -6.474609    3.029811    4.341880
     97          1           0       -5.685907    4.533770    4.132380
     98          1           0       -1.232586    4.193673    0.748531
     99          1           0       -0.733425    7.680691   -1.840231
    100          1           0       -2.338788    7.962065   -1.080601
    101          1           0       -2.285765    6.978325   -2.451569
    102          1           0        5.280751    4.265008   -2.482147
    103          1           0        4.931573    2.534985   -2.735438
    104          1           0        6.386580    3.380982   -0.286687
    105          1           0        5.184395   -0.300429   -1.121364
    106          1           0        3.971522    0.796962   -1.556119
    107          1           0        4.089868    0.112586    0.138552
    108          1           0        6.398401    0.279945    1.284513
    109          1           0        7.082653    1.895356    1.179739
    110          1           0        7.989014    0.568769   -1.100524
    111          1           0        8.028990   -0.710400    0.070386
    112          1           0        9.196424    1.568355    1.470687
    113          1           0        9.495223    1.651948   -0.269460
    114          1           0       10.470193   -0.914660    0.122811
    115          1           0       11.810608    1.589704    0.853340
    116          1           0       12.042996    0.604805   -0.595529
    117          1           0       12.682468    0.130464    1.079954
    118          1           0        9.808381   -0.019026    2.779644
    119          1           0       11.508997   -0.449282    2.737096
    120          1           0       11.101391   -2.675797    2.294124
    121          1           0        9.775598   -2.338670    1.275856
    122          1           0        9.459359   -1.933676    4.283118
    123          1           0        9.405011   -3.552597    3.566565
    124          1           0        7.586898   -1.858427    2.031069
    125          1           0        7.368960   -1.817023    4.972783
    126          1           0        6.001081   -2.614707    4.351823
    127          1           0        6.411789   -0.944039    3.795232
    128          1           0        6.887757   -4.441907    3.371191
    129          1           0        8.062632   -4.450079    2.074289
    130          1           0        5.372156   -3.101609    1.599547
    131          1           0        5.515487   -4.765977    1.765788
    132          1           0        6.614415   -5.228183   -0.096449
    133          1           0        7.728687   -3.910593    0.037364
    134          1           0        5.353698   -2.484049   -0.624742
    135          1           0        5.212919   -4.566210   -2.753714
    136          1           0        4.046573   -3.511165   -2.140773
    137          1           0        4.622112   -4.984742   -1.130648
    138          1           0        6.585122   -1.628520   -2.302160
    139          1           0        7.165144   -3.211783   -2.933523
    140          1           0        7.978617   -2.325838   -1.679957
 ---------------------------------------------------------------------

 SCF Done:  E(RCAM-B3LYP) =  -3007.15113986     A.U. after   17 cycles

 Excitation energies and oscillator strengths:

 Excited State   1:      Singlet-A      1.7273 eV  717.80 nm  f=0.3709  <S**2>=0.000
     245 -> 248       -0.19331
     246 -> 247        0.68216
     245 <- 248       -0.11042
 This state for optimization and/or second-order correction.
 Total Energy, E(TD-HF/TD-DFT) =  -3007.08766357
 Copying the excited state density for this state as the 1-particle RhoCI density.

 Excited State   2:      Singlet-A      2.2589 eV  548.87 nm  f=0.0941  <S**2>=0.000
     245 -> 247        0.62653
     246 -> 248        0.31576

 Excited State   3:      Singlet-A      3.3693 eV  367.98 nm  f=0.0020  <S**2>=0.000
     242 -> 247        0.19855
     242 -> 249        0.15319
     242 -> 251       -0.11864
     243 -> 247        0.52014
     243 -> 249        0.24685
     243 -> 251       -0.15450
     244 -> 247       -0.11293

 Excited State   4:      Singlet-A      3.4431 eV  360.09 nm  f=0.2138  <S**2>=0.000
     240 -> 247       -0.10921
     243 -> 247        0.10692
     244 -> 247        0.48997
     245 -> 247        0.17072
     246 -> 248       -0.41392

 Excited State   5:      Singlet-A      3.4875 eV  355.51 nm  f=0.2770  <S**2>=0.000
     240 -> 247       -0.20815
     242 -> 247        0.32987
     243 -> 247       -0.13214
     244 -> 247        0.36254
     245 -> 247       -0.18154
     246 -> 248        0.37469

 The electronic state is 1-A.
 Alpha  occ. eigenvalues --  -46.90322 -19.25428 -19.24165 -19.20375 -19.19905
 Alpha  occ. eigenvalues --  -19.18853 -19.18326 -14.42943 -14.41470 -14.40660
 Alpha  occ. eigenvalues --  -14.39438 -10.40108 -10.39622 -10.34942 -10.34748
 Alpha  occ. eigenvalues --  -10.32675 -10.32016 -10.31850 -10.31741 -10.31665
 Alpha  occ. eigenvalues --  -10.31128 -10.30948 -10.30100 -10.29901 -10.28970
 Alpha  occ. eigenvalues --  -10.28805 -10.28561 -10.28380 -10.28212 -10.28160
 Alpha  occ. eigenvalues --  -10.28126 -10.27901 -10.27796 -10.27776 -10.27604
 Alpha  occ. eigenvalues --  -10.27569 -10.27421 -10.27346 -10.27140 -10.26696
 Alpha  occ. eigenvalues --  -10.26556 -10.26441 -10.26422 -10.26414 -10.26207
 Alpha  occ. eigenvalues --  -10.26077 -10.26000 -10.25986 -10.25856 -10.25793
 Alpha  occ. eigenvalues --  -10.25714 -10.25608 -10.25598 -10.25579 -10.25254
 Alpha  occ. eigenvalues --  -10.25238 -10.25133 -10.24983 -10.24947 -10.24924
 Alpha  occ. eigenvalues --  -10.24828 -10.24797 -10.24697 -10.24627 -10.24530
 Alpha  occ. eigenvalues --  -10.24231  -3.18623  -1.93511  -1.93096  -1.92904
 Alpha  occ. eigenvalues --   -1.16317  -1.15220  -1.10084  -1.09771  -1.07904
 Alpha  occ. eigenvalues --   -1.06801  -1.05444  -1.04632  -1.03050  -1.02214
 Alpha  occ. eigenvalues --   -0.92990  -0.91141  -0.90202  -0.89837  -0.89002
 Alpha  occ. eigenvalues --   -0.88986  -0.88652  -0.87156  -0.87054  -0.86529
 Alpha  occ. eigenvalues --   -0.85776  -0.85560  -0.84648  -0.83828  -0.83621
 Alpha  occ. eigenvalues --   -0.82906  -0.82047  -0.81323  -0.81008  -0.80082
 Alpha  occ. eigenvalues --   -0.79956  -0.77968  -0.77635  -0.76965  -0.76403
 Alpha  occ. eigenvalues --   -0.76255  -0.75667  -0.75559  -0.74725  -0.74153
 Alpha  occ. eigenvalues --   -0.73930  -0.73016  -0.72202  -0.71067  -0.68954
 Alpha  occ. eigenvalues --   -0.68706  -0.68436  -0.67793  -0.67200  -0.66246
 Alpha  occ. eigenvalues --   -0.65546  -0.65377  -0.65037  -0.64624  -0.64307
 Alpha  occ. eigenvalues --   -0.63845  -0.63756  -0.63008  -0.62363  -0.59958
 Alpha  occ. eigenvalues --   -0.59752  -0.59522  -0.59378  -0.58908  -0.58422
 Alpha  occ. eigenvalues --   -0.57815  -0.57701  -0.56707  -0.56490  -0.55831
 Alpha  occ. eigenvalues --   -0.55366  -0.55125  -0.54797  -0.54263  -0.54240
 Alpha  occ. eigenvalues --   -0.53827  -0.53618  -0.53184  -0.53043  -0.52991
 Alpha  occ. eigenvalues --   -0.52657  -0.52456  -0.52048  -0.51908  -0.51570
 Alpha  occ. eigenvalues --   -0.51399  -0.51086  -0.50941  -0.50722  -0.50442
 Alpha  occ. eigenvalues --   -0.50344  -0.50124  -0.50041  -0.49754  -0.49576
 Alpha  occ. eigenvalues --   -0.49373  -0.49364  -0.49185  -0.48800  -0.48654
 Alpha  occ. eigenvalues --   -0.48471  -0.48353  -0.48252  -0.47985  -0.47571
 Alpha  occ. eigenvalues --   -0.47525  -0.47242  -0.46869  -0.46836  -0.46710
 Alpha  occ. eigenvalues --   -0.46365  -0.46270  -0.46198  -0.46138  -0.45809
 Alpha  occ. eigenvalues --   -0.45589  -0.45507  -0.45387  -0.45096  -0.45053
 Alpha  occ. eigenvalues --   -0.44917  -0.44667  -0.44431  -0.44066  -0.43883
 Alpha  occ. eigenvalues --   -0.43737  -0.43507  -0.43433  -0.43303  -0.43122
 Alpha  occ. eigenvalues --   -0.42899  -0.42757  -0.42469  -0.42396  -0.42326
 Alpha  occ. eigenvalues --   -0.42057  -0.41816  -0.41805  -0.41536  -0.41298
 Alpha  occ. eigenvalues --   -0.41049  -0.40737  -0.40574  -0.40398  -0.40123
 Alpha  occ. eigenvalues --   -0.39714  -0.39642  -0.39507  -0.38950  -0.38734
 Alpha  occ. eigenvalues --   -0.38538  -0.38489  -0.38156  -0.37999  -0.37948
 Alpha  occ. eigenvalues --   -0.37145  -0.36855  -0.36789  -0.36589  -0.36401
 Alpha  occ. eigenvalues --   -0.36364  -0.36044  -0.35042  -0.34821  -0.34524
 Alpha  occ. eigenvalues --   -0.34315  -0.34030  -0.33247  -0.31553  -0.30886
 Alpha  occ. eigenvalues --   -0.30662  -0.30614  -0.30208  -0.29707  -0.24357
 Alpha  occ. eigenvalues --   -0.21374
 Alpha virt. eigenvalues --   -0.08793  -0.02323   0.00033   0.01841   0.02337
 Alpha virt. eigenvalues --    0.03934   0.04156   0.04866   0.05553   0.06941
 Alpha virt. eigenvalues --    0.07239   0.08031   0.08339   0.08575   0.09076

 Mulliken charges:
               1
     1  Mg   0.827503
     2  C   -0.018555
     3  C   -0.079334
     4  C   -0.071190
     5  C   -0.067210
     6  N   -0.230581
     7  C   -0.083964
     8  C   -0.013775
     9  C   -0.095675
    10  C    0.046028
    11  C    0.063945
    12  C    0.098732
    13  C    0.052652
    14  C    0.129261
    15  O   -0.233940
    16  O   -0.331899
    17  N   -0.397114
    18  C    0.142204
    19  C   -0.103317
    20  C   -0.038213
    21  C    0.159523
    22  C    0.122122
    23  C   -0.032119
    24  O   -0.201720
    25  C    0.036095
    26  N   -0.248174
    27  C    0.040825
    28  C   -0.059604
    29  C    0.000492
    30  C    0.063757
    31  C    0.078199
    32  C    0.028859
    33  C   -0.006127
    34  N   -0.355887
    35  C    0.076585
    36  C   -0.154946
    37  C   -0.006662
    38  C    0.096102
    39  C    0.112143
    40  C    0.048608
    41  O   -0.165065
    42  C    0.016031
    43  C    0.224159
    44  O   -0.240834
    45  O   -0.349720
    46  C    0.169111
    47  C    0.316470
    48  C   -0.117891
    49  C   -0.181797
    50  C    0.082553
    51  C    0.062369
    52  C    0.023912
    53  C    0.048808
    54  C   -0.133422
    55  C    0.056114
    56  C    0.061150
    57  C   -0.022709
    58  C    0.094627
    59  C   -0.127493
    60  C    0.043646
    61  C    0.027473
    62  C   -0.004592
    63  C    0.036793
    64  C   -0.135137
    65  C    0.037592
    66  C    0.016690
    67  H   -0.006483
    68  H   -0.030594
    69  H   -0.034700
    70  H    0.021154
    71  H    0.025709
    72  H    0.021217
    73  H    0.017351
    74  H    0.026482
    75  H    0.008984
    76  H    0.022886
    77  H    0.027042
    78  H    0.040925
    79  H    0.046157
    80  H    0.003594
    81  H    0.022439
    82  H    0.051552
    83  H    0.015485
    84  H    0.025499
    85  H    0.006440
    86  H    0.006358
    87  H    0.006263
    88  H    0.028625
    89  H   -0.005194
    90  H    0.014453
    91  H    0.011459
    92  H    0.016924
    93  H   -0.001555
    94  H    0.016512
    95  H    0.031041
    96  H    0.005844
    97  H    0.041039
    98  H    0.043597
    99  H    0.047542
   100  H    0.044887
   101  H    0.043319
   102  H    0.026811
   103  H    0.020448
   104  H   -0.017241
   105  H   -0.000878
   106  H    0.014637
   107  H    0.027116
   108  H   -0.004611
   109  H    0.006328
   110  H   -0.000231
   111  H    0.018743
   112  H    0.012570
   113  H   -0.000430
   114  H    0.001485
   115  H   -0.006695
   116  H    0.007819
   117  H    0.009970
   118  H   -0.014223
   119  H    0.001224
   120  H   -0.008869
   121  H   -0.009919
   122  H    0.000600
   123  H   -0.012064
   124  H   -0.007625
   125  H   -0.004719
   126  H    0.008062
   127  H    0.011233
   128  H   -0.007710
   129  H   -0.012416
   130  H   -0.004788
   131  H   -0.014280
   132  H    0.003802
   133  H   -0.002209
   134  H    0.005635
   135  H    0.003914
   136  H    0.007175
   137  H    0.020085
   138  H    0.002083
   139  H    0.010206
   140  H    0.014243
 Sum of Mulliken charges =  -0.00000

 Dipole moment (field-independent basis, Debye):
    X=              1.8236    Y=             -1.6207    Z=              2.7793  Tot=              3.6982
 Quadrupole moment (field-independent basis, Debye-Ang):
   XX=           -371.9275   YY=           -426.3387   ZZ=           -414.3466
   XY=             13.0439   XZ=            -19.8026   YZ=            -26.6231

 Normal termination of Gaussian 16 at Thu May  5 11:41:57 2022.
