 Gaussian 16, Revision A.03,
 Gaussian 16:  ES64L-G16RevA.03 25-Dec-2016

 ---------------------------------
 #p PBE1PBE/Def2SVP td=(nstates=5)
 ---------------------------------

 -----------------------------------------------------
 step_851_chromophore_23 TDDFT with PBE1PBE functional
 -----------------------------------------------------
 Symbolic Z-matrix:
 Charge =  0 Multiplicity = 1

                         Standard orientation:
 ---------------------------------------------------------------------
 Center     Atomic      Atomic             Coordinates (Angstroms)
 Number     Number       Type             X           Y           Z
 ---------------------------------------------------------------------
      1         12           0       -4.589980   -0.132555   -0.323658
      2          6           0       -2.614094    2.699169    0.058732
      3          6           0       -2.477678   -1.133073   -2.896712
      4          6           0       -6.091282   -3.173142   -0.285891
      5          6           0       -6.147598    0.580971    2.783298
      6          7           0       -2.612931    0.600865   -1.186680
      7          6           0       -2.126559    1.838207   -0.939172
      8          6           0       -0.840002    2.204020   -1.733931
      9          6           0       -0.925549    0.988292   -2.789163
     10          6           0       -2.130730    0.173692   -2.344200
     11          6           0       -0.979085    1.517374   -4.273338
     12          6           0        0.461230    2.247782   -0.945171
     13          6           0        1.255353    3.536397   -1.209950
     14          6           0        2.428010    3.443944   -2.211438
     15          8           0        2.392915    3.174264   -3.402936
     16          8           0        3.599688    3.609049   -1.532189
     17          7           0       -4.523954   -1.830623   -1.564414
     18          6           0       -3.515794   -2.066210   -2.547807
     19          6           0       -3.708782   -3.329332   -3.172889
     20          6           0       -4.740043   -3.987801   -2.458188
     21          6           0       -5.234508   -2.973005   -1.391428
     22          6           0       -2.761781   -3.930834   -4.258042
     23          6           0       -5.171517   -5.364874   -2.768962
     24          8           0       -4.807735   -5.930015   -3.781895
     25          6           0       -6.187773   -6.166037   -1.874125
     26          7           0       -5.940038   -1.168244    1.168468
     27          6           0       -6.452166   -2.375679    0.796899
     28          6           0       -7.410957   -2.771935    1.952074
     29          6           0       -7.387222   -1.607096    2.938178
     30          6           0       -6.432725   -0.647421    2.272698
     31          6           0       -8.806064   -3.277299    1.571639
     32          6           0       -6.930462   -1.969995    4.467749
     33          6           0       -7.954961   -1.878466    5.576462
     34          7           0       -4.464980    1.337499    1.119609
     35          6           0       -5.221108    1.544072    2.260972
     36          6           0       -4.907413    2.845802    2.830507
     37          6           0       -3.890891    3.349998    1.967425
     38          6           0       -3.602758    2.355680    0.969258
     39          6           0       -5.503953    3.459348    4.094481
     40          6           0       -3.177781    4.550883    1.590868
     41          8           0       -3.217184    5.653871    2.109779
     42          6           0       -2.259932    4.142851    0.386331
     43          6           0       -2.501005    5.053951   -0.780094
     44          8           0       -3.481351    5.087122   -1.552039
     45          8           0       -1.499315    6.003596   -0.737249
     46          6           0       -1.692930    7.235424   -1.573879
     47          6           0        4.928259    3.348263   -2.009727
     48          6           0        5.686833    2.762067   -0.849810
     49          6           0        5.656922    1.553763   -0.314995
     50          6           0        4.615838    0.537220   -0.717461
     51          6           0        6.800029    1.020774    0.593815
     52          6           0        8.050187    0.374547   -0.029313
     53          6           0        9.344539    0.972917    0.570164
     54          6           0       10.513923   -0.020564    0.745037
     55          6           0       11.882384    0.567161    0.481970
     56          6           0       10.564842   -0.548707    2.201351
     57          6           0       10.196206   -2.070598    2.244889
     58          6           0        9.230851   -2.493428    3.376384
     59          6           0        7.760418   -2.467391    2.917690
     60          6           0        6.795675   -1.931265    4.052412
     61          6           0        7.258441   -3.867227    2.522611
     62          6           0        6.115471   -3.893296    1.506099
     63          6           0        6.664184   -4.146289    0.023307
     64          6           0        5.942782   -3.290921   -1.060978
     65          6           0        4.854393   -4.161425   -1.807259
     66          6           0        6.991239   -2.606901   -2.043755
     67          1           0       -2.012742   -1.294997   -3.871687
     68          1           0       -6.711620   -4.068702   -0.361868
     69          1           0       -6.552406    0.932236    3.733303
     70          1           0       -1.051602    3.107106   -2.307881
     71          1           0       -0.046156    0.351757   -2.688025
     72          1           0       -1.117592    2.596689   -4.334396
     73          1           0       -1.776113    0.971490   -4.779500
     74          1           0       -0.012377    1.364784   -4.753448
     75          1           0        1.102456    1.435480   -1.286852
     76          1           0        0.334953    2.053353    0.119663
     77          1           0        1.668816    3.722657   -0.218451
     78          1           0        0.684013    4.367342   -1.623190
     79          1           0       -2.663958   -5.015794   -4.297870
     80          1           0       -1.742267   -3.581191   -4.093505
     81          1           0       -2.967353   -3.532191   -5.250809
     82          1           0       -7.249689   -5.965997   -2.014595
     83          1           0       -5.900797   -5.922139   -0.851435
     84          1           0       -5.960803   -7.226677   -1.977091
     85          1           0       -6.933207   -3.636223    2.413180
     86          1           0       -8.451624   -1.369899    2.952522
     87          1           0       -9.379451   -2.364473    1.408425
     88          1           0       -9.312984   -4.060953    2.134683
     89          1           0       -8.716786   -3.690275    0.567501
     90          1           0       -6.247460   -1.182622    4.786875
     91          1           0       -6.498202   -2.969513    4.482657
     92          1           0       -8.182540   -2.857016    5.997168
     93          1           0       -8.881492   -1.481828    5.160135
     94          1           0       -7.733716   -1.160309    6.365887
     95          1           0       -4.851160    3.164013    4.915496
     96          1           0       -6.474609    3.029811    4.341880
     97          1           0       -5.685907    4.533770    4.132380
     98          1           0       -1.232586    4.193673    0.748531
     99          1           0       -0.733425    7.680691   -1.840231
    100          1           0       -2.338788    7.962065   -1.080601
    101          1           0       -2.285765    6.978325   -2.451569
    102          1           0        5.280751    4.265008   -2.482147
    103          1           0        4.931573    2.534985   -2.735438
    104          1           0        6.386580    3.380982   -0.286687
    105          1           0        5.184395   -0.300429   -1.121364
    106          1           0        3.971522    0.796962   -1.556119
    107          1           0        4.089868    0.112586    0.138552
    108          1           0        6.398401    0.279945    1.284513
    109          1           0        7.082653    1.895356    1.179739
    110          1           0        7.989014    0.568769   -1.100524
    111          1           0        8.028990   -0.710400    0.070386
    112          1           0        9.196424    1.568355    1.470687
    113          1           0        9.495223    1.651948   -0.269460
    114          1           0       10.470193   -0.914660    0.122811
    115          1           0       11.810608    1.589704    0.853340
    116          1           0       12.042996    0.604805   -0.595529
    117          1           0       12.682468    0.130464    1.079954
    118          1           0        9.808381   -0.019026    2.779644
    119          1           0       11.508997   -0.449282    2.737096
    120          1           0       11.101391   -2.675797    2.294124
    121          1           0        9.775598   -2.338670    1.275856
    122          1           0        9.459359   -1.933676    4.283118
    123          1           0        9.405011   -3.552597    3.566565
    124          1           0        7.586898   -1.858427    2.031069
    125          1           0        7.368960   -1.817023    4.972783
    126          1           0        6.001081   -2.614707    4.351823
    127          1           0        6.411789   -0.944039    3.795232
    128          1           0        6.887757   -4.441907    3.371191
    129          1           0        8.062632   -4.450079    2.074289
    130          1           0        5.372156   -3.101609    1.599547
    131          1           0        5.515487   -4.765977    1.765788
    132          1           0        6.614415   -5.228183   -0.096449
    133          1           0        7.728687   -3.910593    0.037364
    134          1           0        5.353698   -2.484049   -0.624742
    135          1           0        5.212919   -4.566210   -2.753714
    136          1           0        4.046573   -3.511165   -2.140773
    137          1           0        4.622112   -4.984742   -1.130648
    138          1           0        6.585122   -1.628520   -2.302160
    139          1           0        7.165144   -3.211783   -2.933523
    140          1           0        7.978617   -2.325838   -1.679957
 ---------------------------------------------------------------------

 SCF Done:  E(RPBE1PBE) =  -3005.33962074     A.U. after   15 cycles

 Excitation energies and oscillator strengths:

 Excited State   1:      Singlet-A      1.8744 eV  661.47 nm  f=0.3564  <S**2>=0.000
     245 -> 248       -0.18882
     246 -> 247        0.68867
     246 <- 247       -0.10076
 This state for optimization and/or second-order correction.
 Total Energy, E(TD-HF/TD-DFT) =  -3005.27073882
 Copying the excited state density for this state as the 1-particle RhoCI density.

 Excited State   2:      Singlet-A      2.2594 eV  548.76 nm  f=0.1006  <S**2>=0.000
     245 -> 247        0.64146
     246 -> 248        0.28546

 Excited State   3:      Singlet-A      2.8409 eV  436.43 nm  f=0.0002  <S**2>=0.000
     244 -> 247        0.67031
     244 -> 249        0.15815
     244 -> 250       -0.10423

 Excited State   4:      Singlet-A      3.0079 eV  412.20 nm  f=0.0009  <S**2>=0.000
     240 -> 247       -0.18974
     242 -> 247        0.35437
     242 -> 249       -0.11542
     243 -> 247        0.54918

 Excited State   5:      Singlet-A      3.1365 eV  395.29 nm  f=0.0017  <S**2>=0.000
     242 -> 247        0.57254
     243 -> 247       -0.38056

 The electronic state is 1-A.
 Alpha  occ. eigenvalues --  -46.93709 -19.26097 -19.24868 -19.20614 -19.20164
 Alpha  occ. eigenvalues --  -19.19207 -19.18426 -14.42311 -14.41066 -14.40240
 Alpha  occ. eigenvalues --  -14.39177 -10.37122 -10.36644 -10.32180 -10.31770
 Alpha  occ. eigenvalues --  -10.30031 -10.29497 -10.29328 -10.29268 -10.29076
 Alpha  occ. eigenvalues --  -10.28994 -10.28470 -10.27917 -10.27847 -10.26455
 Alpha  occ. eigenvalues --  -10.26425 -10.26420 -10.26328 -10.26044 -10.25934
 Alpha  occ. eigenvalues --  -10.25672 -10.25643 -10.25401 -10.25392 -10.25284
 Alpha  occ. eigenvalues --  -10.25251 -10.25219 -10.25076 -10.24834 -10.24395
 Alpha  occ. eigenvalues --  -10.24275 -10.24235 -10.24003 -10.23995 -10.23688
 Alpha  occ. eigenvalues --  -10.23549 -10.23537 -10.23471 -10.23319 -10.23318
 Alpha  occ. eigenvalues --  -10.23204 -10.23149 -10.23139 -10.23058 -10.23000
 Alpha  occ. eigenvalues --  -10.22822 -10.22723 -10.22507 -10.22396 -10.22388
 Alpha  occ. eigenvalues --  -10.22361 -10.22306 -10.22286 -10.22192 -10.21938
 Alpha  occ. eigenvalues --  -10.21628  -3.15596  -1.88422  -1.87987  -1.87799
 Alpha  occ. eigenvalues --   -1.11133  -1.09967  -1.04708  -1.04632  -1.02759
 Alpha  occ. eigenvalues --   -1.01606  -1.00034  -0.99309  -0.97861  -0.96740
 Alpha  occ. eigenvalues --   -0.87401  -0.85283  -0.84367  -0.83999  -0.83317
 Alpha  occ. eigenvalues --   -0.83110  -0.82968  -0.81458  -0.81147  -0.80903
 Alpha  occ. eigenvalues --   -0.80054  -0.79794  -0.78846  -0.78127  -0.77925
 Alpha  occ. eigenvalues --   -0.77073  -0.76308  -0.75573  -0.75358  -0.74194
 Alpha  occ. eigenvalues --   -0.74088  -0.72293  -0.71969  -0.71138  -0.70606
 Alpha  occ. eigenvalues --   -0.70529  -0.69905  -0.69743  -0.68856  -0.68457
 Alpha  occ. eigenvalues --   -0.68113  -0.67486  -0.66663  -0.65368  -0.63381
 Alpha  occ. eigenvalues --   -0.62924  -0.62830  -0.62297  -0.61429  -0.60682
 Alpha  occ. eigenvalues --   -0.59992  -0.59600  -0.59563  -0.59174  -0.58460
 Alpha  occ. eigenvalues --   -0.58349  -0.57927  -0.57180  -0.56975  -0.54512
 Alpha  occ. eigenvalues --   -0.54285  -0.54153  -0.53791  -0.53577  -0.52841
 Alpha  occ. eigenvalues --   -0.52419  -0.52050  -0.51236  -0.51010  -0.50388
 Alpha  occ. eigenvalues --   -0.49948  -0.49559  -0.49312  -0.48811  -0.48797
 Alpha  occ. eigenvalues --   -0.48430  -0.48072  -0.47777  -0.47673  -0.47427
 Alpha  occ. eigenvalues --   -0.47234  -0.46977  -0.46529  -0.46353  -0.46096
 Alpha  occ. eigenvalues --   -0.45956  -0.45518  -0.45441  -0.45216  -0.44975
 Alpha  occ. eigenvalues --   -0.44945  -0.44734  -0.44646  -0.44359  -0.44183
 Alpha  occ. eigenvalues --   -0.44051  -0.43948  -0.43674  -0.43373  -0.43257
 Alpha  occ. eigenvalues --   -0.43093  -0.43040  -0.42850  -0.42602  -0.42237
 Alpha  occ. eigenvalues --   -0.42174  -0.41854  -0.41533  -0.41510  -0.41410
 Alpha  occ. eigenvalues --   -0.41057  -0.40936  -0.40878  -0.40793  -0.40468
 Alpha  occ. eigenvalues --   -0.40212  -0.40190  -0.40148  -0.39851  -0.39720
 Alpha  occ. eigenvalues --   -0.39642  -0.39406  -0.39227  -0.38795  -0.38734
 Alpha  occ. eigenvalues --   -0.38475  -0.38293  -0.38165  -0.38120  -0.37952
 Alpha  occ. eigenvalues --   -0.37594  -0.37572  -0.37271  -0.37114  -0.37101
 Alpha  occ. eigenvalues --   -0.36807  -0.36637  -0.36559  -0.36393  -0.36151
 Alpha  occ. eigenvalues --   -0.36010  -0.35561  -0.35391  -0.35348  -0.35017
 Alpha  occ. eigenvalues --   -0.34565  -0.34422  -0.34281  -0.33726  -0.33513
 Alpha  occ. eigenvalues --   -0.33483  -0.33292  -0.33136  -0.32991  -0.32795
 Alpha  occ. eigenvalues --   -0.32023  -0.31884  -0.31761  -0.31583  -0.31462
 Alpha  occ. eigenvalues --   -0.31232  -0.30885  -0.29989  -0.29715  -0.29440
 Alpha  occ. eigenvalues --   -0.29385  -0.28924  -0.28814  -0.27198  -0.26061
 Alpha  occ. eigenvalues --   -0.25944  -0.25872  -0.25436  -0.24981  -0.21296
 Alpha  occ. eigenvalues --   -0.19042
 Alpha virt. eigenvalues --   -0.11312  -0.05760  -0.04147  -0.02075  -0.00918
 Alpha virt. eigenvalues --   -0.00586  -0.00457   0.00530   0.01177   0.03167
 Alpha virt. eigenvalues --    0.03788   0.04063   0.04484   0.05035   0.05692

 Mulliken charges:
               1
     1  Mg   0.965025
     2  C   -0.032524
     3  C   -0.064182
     4  C   -0.072466
     5  C   -0.054519
     6  N   -0.332902
     7  C   -0.007808
     8  C   -0.078893
     9  C   -0.171592
    10  C    0.082582
    11  C    0.008701
    12  C    0.048974
    13  C   -0.030410
    14  C    0.204603
    15  O   -0.269866
    16  O   -0.363849
    17  N   -0.506126
    18  C    0.148837
    19  C   -0.119835
    20  C   -0.095351
    21  C    0.199001
    22  C    0.063782
    23  C    0.017137
    24  O   -0.235808
    25  C   -0.039398
    26  N   -0.355973
    27  C    0.080783
    28  C   -0.134809
    29  C   -0.071238
    30  C    0.097870
    31  C    0.015749
    32  C   -0.031742
    33  C   -0.075456
    34  N   -0.484665
    35  C    0.101954
    36  C   -0.171436
    37  C   -0.051719
    38  C    0.152189
    39  C    0.059888
    40  C    0.142638
    41  O   -0.210770
    42  C   -0.092330
    43  C    0.307565
    44  O   -0.275778
    45  O   -0.379991
    46  C    0.114895
    47  C    0.273754
    48  C   -0.128041
    49  C   -0.222815
    50  C    0.007892
    51  C   -0.004018
    52  C   -0.041932
    53  C   -0.006391
    54  C   -0.226010
    55  C   -0.005292
    56  C    0.014089
    57  C   -0.087148
    58  C    0.036203
    59  C   -0.227951
    60  C   -0.012571
    61  C   -0.028776
    62  C   -0.063857
    63  C   -0.020942
    64  C   -0.229949
    65  C   -0.021360
    66  C   -0.046559
    67  H    0.022553
    68  H    0.004360
    69  H   -0.001715
    70  H    0.061302
    71  H    0.061386
    72  H    0.047014
    73  H    0.044864
    74  H    0.053233
    75  H    0.043422
    76  H    0.053673
    77  H    0.059841
    78  H    0.073432
    79  H    0.071693
    80  H    0.030255
    81  H    0.049898
    82  H    0.076475
    83  H    0.041332
    84  H    0.053146
    85  H    0.045500
    86  H    0.043632
    87  H    0.034411
    88  H    0.055520
    89  H    0.024505
    90  H    0.047366
    91  H    0.043584
    92  H    0.044842
    93  H    0.026282
    94  H    0.043449
    95  H    0.060291
    96  H    0.032724
    97  H    0.068058
    98  H    0.081977
    99  H    0.068485
   100  H    0.066637
   101  H    0.064075
   102  H    0.052728
   103  H    0.046847
   104  H    0.013223
   105  H    0.036917
   106  H    0.042847
   107  H    0.054999
   108  H    0.032659
   109  H    0.038082
   110  H    0.033487
   111  H    0.055435
   112  H    0.041572
   113  H    0.033653
   114  H    0.039692
   115  H    0.022639
   116  H    0.036208
   117  H    0.037751
   118  H    0.019996
   119  H    0.032636
   120  H    0.024424
   121  H    0.023664
   122  H    0.031602
   123  H    0.021831
   124  H    0.046564
   125  H    0.022766
   126  H    0.034323
   127  H    0.039037
   128  H    0.025062
   129  H    0.020719
   130  H    0.025524
   131  H    0.019780
   132  H    0.035738
   133  H    0.032052
   134  H    0.046815
   135  H    0.031074
   136  H    0.034309
   137  H    0.047566
   138  H    0.031953
   139  H    0.037885
   140  H    0.039379
 Sum of Mulliken charges =  -0.00000

 Dipole moment (field-independent basis, Debye):
    X=              1.7974    Y=             -1.4204    Z=              3.1487  Tot=              3.8939
 Quadrupole moment (field-independent basis, Debye-Ang):
   XX=           -367.0490   YY=           -424.0421   ZZ=           -410.4526
   XY=             12.0996   XZ=            -22.5321   YZ=            -26.9600

 Normal termination of Gaussian 16 at Thu May  5 12:13:47 2022.
