 Gaussian 16, Revision A.03,
 Gaussian 16:  ES64L-G16RevA.03 25-Dec-2016

 --------------------------------
 #p wB97XD/Def2SVP td=(nstates=5)
 --------------------------------

 ----------------------------------------------------
 step_851_chromophore_23 TDDFT with wB97XD functional
 ----------------------------------------------------
 Symbolic Z-matrix:
 Charge =  0 Multiplicity = 1

                         Standard orientation:
 ---------------------------------------------------------------------
 Center     Atomic      Atomic             Coordinates (Angstroms)
 Number     Number       Type             X           Y           Z
 ---------------------------------------------------------------------
      1         12           0       -4.589980   -0.132555   -0.323658
      2          6           0       -2.614094    2.699169    0.058732
      3          6           0       -2.477678   -1.133073   -2.896712
      4          6           0       -6.091282   -3.173142   -0.285891
      5          6           0       -6.147598    0.580971    2.783298
      6          7           0       -2.612931    0.600865   -1.186680
      7          6           0       -2.126559    1.838207   -0.939172
      8          6           0       -0.840002    2.204020   -1.733931
      9          6           0       -0.925549    0.988292   -2.789163
     10          6           0       -2.130730    0.173692   -2.344200
     11          6           0       -0.979085    1.517374   -4.273338
     12          6           0        0.461230    2.247782   -0.945171
     13          6           0        1.255353    3.536397   -1.209950
     14          6           0        2.428010    3.443944   -2.211438
     15          8           0        2.392915    3.174264   -3.402936
     16          8           0        3.599688    3.609049   -1.532189
     17          7           0       -4.523954   -1.830623   -1.564414
     18          6           0       -3.515794   -2.066210   -2.547807
     19          6           0       -3.708782   -3.329332   -3.172889
     20          6           0       -4.740043   -3.987801   -2.458188
     21          6           0       -5.234508   -2.973005   -1.391428
     22          6           0       -2.761781   -3.930834   -4.258042
     23          6           0       -5.171517   -5.364874   -2.768962
     24          8           0       -4.807735   -5.930015   -3.781895
     25          6           0       -6.187773   -6.166037   -1.874125
     26          7           0       -5.940038   -1.168244    1.168468
     27          6           0       -6.452166   -2.375679    0.796899
     28          6           0       -7.410957   -2.771935    1.952074
     29          6           0       -7.387222   -1.607096    2.938178
     30          6           0       -6.432725   -0.647421    2.272698
     31          6           0       -8.806064   -3.277299    1.571639
     32          6           0       -6.930462   -1.969995    4.467749
     33          6           0       -7.954961   -1.878466    5.576462
     34          7           0       -4.464980    1.337499    1.119609
     35          6           0       -5.221108    1.544072    2.260972
     36          6           0       -4.907413    2.845802    2.830507
     37          6           0       -3.890891    3.349998    1.967425
     38          6           0       -3.602758    2.355680    0.969258
     39          6           0       -5.503953    3.459348    4.094481
     40          6           0       -3.177781    4.550883    1.590868
     41          8           0       -3.217184    5.653871    2.109779
     42          6           0       -2.259932    4.142851    0.386331
     43          6           0       -2.501005    5.053951   -0.780094
     44          8           0       -3.481351    5.087122   -1.552039
     45          8           0       -1.499315    6.003596   -0.737249
     46          6           0       -1.692930    7.235424   -1.573879
     47          6           0        4.928259    3.348263   -2.009727
     48          6           0        5.686833    2.762067   -0.849810
     49          6           0        5.656922    1.553763   -0.314995
     50          6           0        4.615838    0.537220   -0.717461
     51          6           0        6.800029    1.020774    0.593815
     52          6           0        8.050187    0.374547   -0.029313
     53          6           0        9.344539    0.972917    0.570164
     54          6           0       10.513923   -0.020564    0.745037
     55          6           0       11.882384    0.567161    0.481970
     56          6           0       10.564842   -0.548707    2.201351
     57          6           0       10.196206   -2.070598    2.244889
     58          6           0        9.230851   -2.493428    3.376384
     59          6           0        7.760418   -2.467391    2.917690
     60          6           0        6.795675   -1.931265    4.052412
     61          6           0        7.258441   -3.867227    2.522611
     62          6           0        6.115471   -3.893296    1.506099
     63          6           0        6.664184   -4.146289    0.023307
     64          6           0        5.942782   -3.290921   -1.060978
     65          6           0        4.854393   -4.161425   -1.807259
     66          6           0        6.991239   -2.606901   -2.043755
     67          1           0       -2.012742   -1.294997   -3.871687
     68          1           0       -6.711620   -4.068702   -0.361868
     69          1           0       -6.552406    0.932236    3.733303
     70          1           0       -1.051602    3.107106   -2.307881
     71          1           0       -0.046156    0.351757   -2.688025
     72          1           0       -1.117592    2.596689   -4.334396
     73          1           0       -1.776113    0.971490   -4.779500
     74          1           0       -0.012377    1.364784   -4.753448
     75          1           0        1.102456    1.435480   -1.286852
     76          1           0        0.334953    2.053353    0.119663
     77          1           0        1.668816    3.722657   -0.218451
     78          1           0        0.684013    4.367342   -1.623190
     79          1           0       -2.663958   -5.015794   -4.297870
     80          1           0       -1.742267   -3.581191   -4.093505
     81          1           0       -2.967353   -3.532191   -5.250809
     82          1           0       -7.249689   -5.965997   -2.014595
     83          1           0       -5.900797   -5.922139   -0.851435
     84          1           0       -5.960803   -7.226677   -1.977091
     85          1           0       -6.933207   -3.636223    2.413180
     86          1           0       -8.451624   -1.369899    2.952522
     87          1           0       -9.379451   -2.364473    1.408425
     88          1           0       -9.312984   -4.060953    2.134683
     89          1           0       -8.716786   -3.690275    0.567501
     90          1           0       -6.247460   -1.182622    4.786875
     91          1           0       -6.498202   -2.969513    4.482657
     92          1           0       -8.182540   -2.857016    5.997168
     93          1           0       -8.881492   -1.481828    5.160135
     94          1           0       -7.733716   -1.160309    6.365887
     95          1           0       -4.851160    3.164013    4.915496
     96          1           0       -6.474609    3.029811    4.341880
     97          1           0       -5.685907    4.533770    4.132380
     98          1           0       -1.232586    4.193673    0.748531
     99          1           0       -0.733425    7.680691   -1.840231
    100          1           0       -2.338788    7.962065   -1.080601
    101          1           0       -2.285765    6.978325   -2.451569
    102          1           0        5.280751    4.265008   -2.482147
    103          1           0        4.931573    2.534985   -2.735438
    104          1           0        6.386580    3.380982   -0.286687
    105          1           0        5.184395   -0.300429   -1.121364
    106          1           0        3.971522    0.796962   -1.556119
    107          1           0        4.089868    0.112586    0.138552
    108          1           0        6.398401    0.279945    1.284513
    109          1           0        7.082653    1.895356    1.179739
    110          1           0        7.989014    0.568769   -1.100524
    111          1           0        8.028990   -0.710400    0.070386
    112          1           0        9.196424    1.568355    1.470687
    113          1           0        9.495223    1.651948   -0.269460
    114          1           0       10.470193   -0.914660    0.122811
    115          1           0       11.810608    1.589704    0.853340
    116          1           0       12.042996    0.604805   -0.595529
    117          1           0       12.682468    0.130464    1.079954
    118          1           0        9.808381   -0.019026    2.779644
    119          1           0       11.508997   -0.449282    2.737096
    120          1           0       11.101391   -2.675797    2.294124
    121          1           0        9.775598   -2.338670    1.275856
    122          1           0        9.459359   -1.933676    4.283118
    123          1           0        9.405011   -3.552597    3.566565
    124          1           0        7.586898   -1.858427    2.031069
    125          1           0        7.368960   -1.817023    4.972783
    126          1           0        6.001081   -2.614707    4.351823
    127          1           0        6.411789   -0.944039    3.795232
    128          1           0        6.887757   -4.441907    3.371191
    129          1           0        8.062632   -4.450079    2.074289
    130          1           0        5.372156   -3.101609    1.599547
    131          1           0        5.515487   -4.765977    1.765788
    132          1           0        6.614415   -5.228183   -0.096449
    133          1           0        7.728687   -3.910593    0.037364
    134          1           0        5.353698   -2.484049   -0.624742
    135          1           0        5.212919   -4.566210   -2.753714
    136          1           0        4.046573   -3.511165   -2.140773
    137          1           0        4.622112   -4.984742   -1.130648
    138          1           0        6.585122   -1.628520   -2.302160
    139          1           0        7.165144   -3.211783   -2.933523
    140          1           0        7.978617   -2.325838   -1.679957
 ---------------------------------------------------------------------

 SCF Done:  E(RwB97XD) =  -3007.85482716     A.U. after   17 cycles

 Excitation energies and oscillator strengths:

 Excited State   1:      Singlet-A      1.6738 eV  740.73 nm  f=0.3697  <S**2>=0.000
     245 -> 248       -0.19811
     246 -> 247        0.68018
     245 <- 248       -0.11950
 This state for optimization and/or second-order correction.
 Total Energy, E(TD-HF/TD-DFT) =  -3007.79331569
 Copying the excited state density for this state as the 1-particle RhoCI density.

 Excited State   2:      Singlet-A      2.2060 eV  562.04 nm  f=0.0908  <S**2>=0.000
     245 -> 247        0.62449
     246 -> 248        0.31764

 Excited State   3:      Singlet-A      3.3816 eV  366.65 nm  f=0.0017  <S**2>=0.000
     243 -> 247        0.53775
     243 -> 248        0.10637
     243 -> 249        0.30615
     243 -> 250        0.20864
     244 -> 247       -0.10141

 Excited State   4:      Singlet-A      3.4602 eV  358.31 nm  f=0.3298  <S**2>=0.000
     241 -> 247        0.14930
     244 -> 247       -0.40138
     245 -> 247       -0.20593
     246 -> 248        0.48761

 Excited State   5:      Singlet-A      3.5070 eV  353.53 nm  f=0.1381  <S**2>=0.000
     240 -> 247       -0.34278
     241 -> 247        0.26656
     241 -> 249        0.11449
     244 -> 247        0.43922
     245 -> 247       -0.12217
     246 -> 248        0.25185

 The electronic state is 1-A.
 Alpha  occ. eigenvalues --  -46.96660 -19.30651 -19.29415 -19.25321 -19.24850
 Alpha  occ. eigenvalues --  -19.23878 -19.23387 -14.47537 -14.46019 -14.45295
 Alpha  occ. eigenvalues --  -14.43999 -10.43969 -10.43447 -10.38928 -10.38750
 Alpha  occ. eigenvalues --  -10.36545 -10.36139 -10.35802 -10.35738 -10.35592
 Alpha  occ. eigenvalues --  -10.35118 -10.35085 -10.34037 -10.33877 -10.33188
 Alpha  occ. eigenvalues --  -10.32838 -10.32508 -10.32465 -10.32288 -10.32273
 Alpha  occ. eigenvalues --  -10.32226 -10.32029 -10.31957 -10.31739 -10.31599
 Alpha  occ. eigenvalues --  -10.31493 -10.31446 -10.31380 -10.31203 -10.30683
 Alpha  occ. eigenvalues --  -10.30483 -10.30424 -10.30365 -10.30261 -10.30079
 Alpha  occ. eigenvalues --  -10.29991 -10.29926 -10.29922 -10.29835 -10.29686
 Alpha  occ. eigenvalues --  -10.29584 -10.29579 -10.29563 -10.29495 -10.29176
 Alpha  occ. eigenvalues --  -10.29153 -10.29042 -10.28862 -10.28837 -10.28751
 Alpha  occ. eigenvalues --  -10.28744 -10.28715 -10.28628 -10.28554 -10.28355
 Alpha  occ. eigenvalues --  -10.28053  -3.22441  -1.96009  -1.95576  -1.95382
 Alpha  occ. eigenvalues --   -1.18509  -1.17380  -1.12336  -1.11984  -1.10104
 Alpha  occ. eigenvalues --   -1.08988  -1.07458  -1.06615  -1.05053  -1.04300
 Alpha  occ. eigenvalues --   -0.94950  -0.92939  -0.92011  -0.91646  -0.90949
 Alpha  occ. eigenvalues --   -0.90766  -0.90493  -0.89108  -0.88824  -0.88476
 Alpha  occ. eigenvalues --   -0.87664  -0.87519  -0.86511  -0.85682  -0.85543
 Alpha  occ. eigenvalues --   -0.84734  -0.83955  -0.83226  -0.82977  -0.82014
 Alpha  occ. eigenvalues --   -0.81759  -0.79869  -0.79543  -0.78921  -0.78292
 Alpha  occ. eigenvalues --   -0.78155  -0.77499  -0.77457  -0.76534  -0.76063
 Alpha  occ. eigenvalues --   -0.75772  -0.74997  -0.74188  -0.72997  -0.70952
 Alpha  occ. eigenvalues --   -0.70561  -0.70330  -0.69812  -0.69061  -0.68201
 Alpha  occ. eigenvalues --   -0.67444  -0.67216  -0.67062  -0.66622  -0.66120
 Alpha  occ. eigenvalues --   -0.65809  -0.65586  -0.64825  -0.64353  -0.61968
 Alpha  occ. eigenvalues --   -0.61727  -0.61521  -0.61278  -0.60886  -0.60351
 Alpha  occ. eigenvalues --   -0.59810  -0.59580  -0.58653  -0.58478  -0.57767
 Alpha  occ. eigenvalues --   -0.57349  -0.57008  -0.56706  -0.56196  -0.56177
 Alpha  occ. eigenvalues --   -0.55765  -0.55483  -0.55046  -0.54965  -0.54849
 Alpha  occ. eigenvalues --   -0.54547  -0.54353  -0.53947  -0.53840  -0.53471
 Alpha  occ. eigenvalues --   -0.53327  -0.53063  -0.52822  -0.52613  -0.52287
 Alpha  occ. eigenvalues --   -0.52268  -0.51990  -0.51958  -0.51676  -0.51475
 Alpha  occ. eigenvalues --   -0.51330  -0.51274  -0.51127  -0.50706  -0.50611
 Alpha  occ. eigenvalues --   -0.50394  -0.50273  -0.50125  -0.49913  -0.49504
 Alpha  occ. eigenvalues --   -0.49409  -0.49108  -0.48815  -0.48718  -0.48605
 Alpha  occ. eigenvalues --   -0.48307  -0.48208  -0.48142  -0.48064  -0.47686
 Alpha  occ. eigenvalues --   -0.47450  -0.47439  -0.47314  -0.47008  -0.46989
 Alpha  occ. eigenvalues --   -0.46798  -0.46546  -0.46384  -0.45931  -0.45798
 Alpha  occ. eigenvalues --   -0.45638  -0.45408  -0.45324  -0.45281  -0.45073
 Alpha  occ. eigenvalues --   -0.44756  -0.44705  -0.44484  -0.44324  -0.44210
 Alpha  occ. eigenvalues --   -0.43912  -0.43753  -0.43672  -0.43451  -0.43212
 Alpha  occ. eigenvalues --   -0.42926  -0.42611  -0.42460  -0.42301  -0.42019
 Alpha  occ. eigenvalues --   -0.41606  -0.41485  -0.41342  -0.40787  -0.40563
 Alpha  occ. eigenvalues --   -0.40460  -0.40330  -0.40082  -0.39932  -0.39800
 Alpha  occ. eigenvalues --   -0.39005  -0.38888  -0.38817  -0.38585  -0.38415
 Alpha  occ. eigenvalues --   -0.38208  -0.37870  -0.36881  -0.36759  -0.36353
 Alpha  occ. eigenvalues --   -0.36269  -0.35972  -0.35496  -0.33786  -0.32898
 Alpha  occ. eigenvalues --   -0.32726  -0.32681  -0.32252  -0.31833  -0.26288
 Alpha  occ. eigenvalues --   -0.23182
 Alpha virt. eigenvalues --   -0.07150  -0.00422   0.02120   0.04433   0.05114
 Alpha virt. eigenvalues --    0.06130   0.06300   0.07251   0.07989   0.09674
 Alpha virt. eigenvalues --    0.10242   0.10606   0.11236   0.11518   0.12297

 Mulliken charges:
               1
     1  Mg   0.961050
     2  C   -0.030044
     3  C   -0.082125
     4  C   -0.084820
     5  C   -0.073972
     6  N   -0.297115
     7  C   -0.044200
     8  C   -0.052285
     9  C   -0.147133
    10  C    0.069585
    11  C    0.019027
    12  C    0.058850
    13  C   -0.009846
    14  C    0.187772
    15  O   -0.265040
    16  O   -0.361157
    17  N   -0.478686
    18  C    0.149772
    19  C   -0.114597
    20  C   -0.086699
    21  C    0.191632
    22  C    0.076187
    23  C    0.012342
    24  O   -0.231104
    25  C   -0.024042
    26  N   -0.320065
    27  C    0.069735
    28  C   -0.110354
    29  C   -0.045810
    30  C    0.087157
    31  C    0.029356
    32  C   -0.015555
    33  C   -0.059849
    34  N   -0.446383
    35  C    0.091534
    36  C   -0.170863
    37  C   -0.047395
    38  C    0.129557
    39  C    0.071154
    40  C    0.123407
    41  O   -0.202222
    42  C   -0.051672
    43  C    0.283798
    44  O   -0.269918
    45  O   -0.378986
    46  C    0.130605
    47  C    0.286545
    48  C   -0.138957
    49  C   -0.208720
    50  C    0.038968
    51  C    0.022689
    52  C   -0.011925
    53  C    0.008026
    54  C   -0.191317
    55  C    0.007915
    56  C    0.022478
    57  C   -0.060864
    58  C    0.050690
    59  C   -0.179341
    60  C   -0.000948
    61  C   -0.009998
    62  C   -0.049040
    63  C   -0.002192
    64  C   -0.194664
    65  C   -0.007914
    66  C   -0.028788
    67  H    0.016947
    68  H   -0.011078
    69  H   -0.010118
    70  H    0.042923
    71  H    0.051494
    72  H    0.042850
    73  H    0.037546
    74  H    0.049882
    75  H    0.032948
    76  H    0.047918
    77  H    0.055516
    78  H    0.065434
    79  H    0.069629
    80  H    0.024830
    81  H    0.046550
    82  H    0.074072
    83  H    0.034869
    84  H    0.051801
    85  H    0.033508
    86  H    0.028706
    87  H    0.027503
    88  H    0.051980
    89  H    0.016260
    90  H    0.037393
    91  H    0.035959
    92  H    0.038916
    93  H    0.018516
    94  H    0.038245
    95  H    0.054046
    96  H    0.026053
    97  H    0.064494
    98  H    0.073405
    99  H    0.065487
   100  H    0.062978
   101  H    0.059719
   102  H    0.050829
   103  H    0.041299
   104  H    0.008924
   105  H    0.012522
   106  H    0.034925
   107  H    0.050004
   108  H    0.019629
   109  H    0.027997
   110  H    0.023470
   111  H    0.028840
   112  H    0.033102
   113  H    0.024762
   114  H    0.026704
   115  H    0.014690
   116  H    0.031217
   117  H    0.031674
   118  H    0.007050
   119  H    0.025442
   120  H    0.017726
   121  H    0.005681
   122  H    0.023932
   123  H    0.013014
   124  H    0.009368
   125  H    0.016235
   126  H    0.028306
   127  H    0.033359
   128  H    0.016427
   129  H    0.008979
   130  H    0.016451
   131  H    0.011877
   132  H    0.028334
   133  H    0.017355
   134  H    0.026674
   135  H    0.024387
   136  H    0.029156
   137  H    0.040603
   138  H    0.023590
   139  H    0.032574
   140  H    0.032483
 Sum of Mulliken charges =  -0.00000

 Dipole moment (field-independent basis, Debye):
    X=              1.8506    Y=             -1.7395    Z=              2.7110  Tot=              3.7149
 Quadrupole moment (field-independent basis, Debye-Ang):
   XX=           -367.6793   YY=           -422.2010   ZZ=           -410.3002
   XY=             14.0391   XZ=            -20.2495   YZ=            -26.5085

 Normal termination of Gaussian 16 at Thu May  5 12:58:55 2022.
