 Gaussian 16, Revision A.03,
 Gaussian 16:  ES64L-G16RevA.03 25-Dec-2016

 --------------------
 #p ZINDO=(nstates=5)
 --------------------

 -----------------------------
 step_851_chromophore_23 ZINDO
 -----------------------------
 Symbolic Z-matrix:
 Charge =  0 Multiplicity = 1

                         Standard orientation:
 ---------------------------------------------------------------------
 Center     Atomic      Atomic             Coordinates (Angstroms)
 Number     Number       Type             X           Y           Z
 ---------------------------------------------------------------------
      1         12           0       -4.589980   -0.132555   -0.323658
      2          6           0       -2.614094    2.699169    0.058732
      3          6           0       -2.477678   -1.133073   -2.896712
      4          6           0       -6.091282   -3.173142   -0.285891
      5          6           0       -6.147598    0.580971    2.783298
      6          7           0       -2.612931    0.600865   -1.186680
      7          6           0       -2.126559    1.838207   -0.939172
      8          6           0       -0.840002    2.204020   -1.733931
      9          6           0       -0.925549    0.988292   -2.789163
     10          6           0       -2.130730    0.173692   -2.344200
     11          6           0       -0.979085    1.517374   -4.273338
     12          6           0        0.461230    2.247782   -0.945171
     13          6           0        1.255353    3.536397   -1.209950
     14          6           0        2.428010    3.443944   -2.211438
     15          8           0        2.392915    3.174264   -3.402936
     16          8           0        3.599688    3.609049   -1.532189
     17          7           0       -4.523954   -1.830623   -1.564414
     18          6           0       -3.515794   -2.066210   -2.547807
     19          6           0       -3.708782   -3.329332   -3.172889
     20          6           0       -4.740043   -3.987801   -2.458188
     21          6           0       -5.234508   -2.973005   -1.391428
     22          6           0       -2.761781   -3.930834   -4.258042
     23          6           0       -5.171517   -5.364874   -2.768962
     24          8           0       -4.807735   -5.930015   -3.781895
     25          6           0       -6.187773   -6.166037   -1.874125
     26          7           0       -5.940038   -1.168244    1.168468
     27          6           0       -6.452166   -2.375679    0.796899
     28          6           0       -7.410957   -2.771935    1.952074
     29          6           0       -7.387222   -1.607096    2.938178
     30          6           0       -6.432725   -0.647421    2.272698
     31          6           0       -8.806064   -3.277299    1.571639
     32          6           0       -6.930462   -1.969995    4.467749
     33          6           0       -7.954961   -1.878466    5.576462
     34          7           0       -4.464980    1.337499    1.119609
     35          6           0       -5.221108    1.544072    2.260972
     36          6           0       -4.907413    2.845802    2.830507
     37          6           0       -3.890891    3.349998    1.967425
     38          6           0       -3.602758    2.355680    0.969258
     39          6           0       -5.503953    3.459348    4.094481
     40          6           0       -3.177781    4.550883    1.590868
     41          8           0       -3.217184    5.653871    2.109779
     42          6           0       -2.259932    4.142851    0.386331
     43          6           0       -2.501005    5.053951   -0.780094
     44          8           0       -3.481351    5.087122   -1.552039
     45          8           0       -1.499315    6.003596   -0.737249
     46          6           0       -1.692930    7.235424   -1.573879
     47          6           0        4.928259    3.348263   -2.009727
     48          6           0        5.686833    2.762067   -0.849810
     49          6           0        5.656922    1.553763   -0.314995
     50          6           0        4.615838    0.537220   -0.717461
     51          6           0        6.800029    1.020774    0.593815
     52          6           0        8.050187    0.374547   -0.029313
     53          6           0        9.344539    0.972917    0.570164
     54          6           0       10.513923   -0.020564    0.745037
     55          6           0       11.882384    0.567161    0.481970
     56          6           0       10.564842   -0.548707    2.201351
     57          6           0       10.196206   -2.070598    2.244889
     58          6           0        9.230851   -2.493428    3.376384
     59          6           0        7.760418   -2.467391    2.917690
     60          6           0        6.795675   -1.931265    4.052412
     61          6           0        7.258441   -3.867227    2.522611
     62          6           0        6.115471   -3.893296    1.506099
     63          6           0        6.664184   -4.146289    0.023307
     64          6           0        5.942782   -3.290921   -1.060978
     65          6           0        4.854393   -4.161425   -1.807259
     66          6           0        6.991239   -2.606901   -2.043755
     67          1           0       -2.012742   -1.294997   -3.871687
     68          1           0       -6.711620   -4.068702   -0.361868
     69          1           0       -6.552406    0.932236    3.733303
     70          1           0       -1.051602    3.107106   -2.307881
     71          1           0       -0.046156    0.351757   -2.688025
     72          1           0       -1.117592    2.596689   -4.334396
     73          1           0       -1.776113    0.971490   -4.779500
     74          1           0       -0.012377    1.364784   -4.753448
     75          1           0        1.102456    1.435480   -1.286852
     76          1           0        0.334953    2.053353    0.119663
     77          1           0        1.668816    3.722657   -0.218451
     78          1           0        0.684013    4.367342   -1.623190
     79          1           0       -2.663958   -5.015794   -4.297870
     80          1           0       -1.742267   -3.581191   -4.093505
     81          1           0       -2.967353   -3.532191   -5.250809
     82          1           0       -7.249689   -5.965997   -2.014595
     83          1           0       -5.900797   -5.922139   -0.851435
     84          1           0       -5.960803   -7.226677   -1.977091
     85          1           0       -6.933207   -3.636223    2.413180
     86          1           0       -8.451624   -1.369899    2.952522
     87          1           0       -9.379451   -2.364473    1.408425
     88          1           0       -9.312984   -4.060953    2.134683
     89          1           0       -8.716786   -3.690275    0.567501
     90          1           0       -6.247460   -1.182622    4.786875
     91          1           0       -6.498202   -2.969513    4.482657
     92          1           0       -8.182540   -2.857016    5.997168
     93          1           0       -8.881492   -1.481828    5.160135
     94          1           0       -7.733716   -1.160309    6.365887
     95          1           0       -4.851160    3.164013    4.915496
     96          1           0       -6.474609    3.029811    4.341880
     97          1           0       -5.685907    4.533770    4.132380
     98          1           0       -1.232586    4.193673    0.748531
     99          1           0       -0.733425    7.680691   -1.840231
    100          1           0       -2.338788    7.962065   -1.080601
    101          1           0       -2.285765    6.978325   -2.451569
    102          1           0        5.280751    4.265008   -2.482147
    103          1           0        4.931573    2.534985   -2.735438
    104          1           0        6.386580    3.380982   -0.286687
    105          1           0        5.184395   -0.300429   -1.121364
    106          1           0        3.971522    0.796962   -1.556119
    107          1           0        4.089868    0.112586    0.138552
    108          1           0        6.398401    0.279945    1.284513
    109          1           0        7.082653    1.895356    1.179739
    110          1           0        7.989014    0.568769   -1.100524
    111          1           0        8.028990   -0.710400    0.070386
    112          1           0        9.196424    1.568355    1.470687
    113          1           0        9.495223    1.651948   -0.269460
    114          1           0       10.470193   -0.914660    0.122811
    115          1           0       11.810608    1.589704    0.853340
    116          1           0       12.042996    0.604805   -0.595529
    117          1           0       12.682468    0.130464    1.079954
    118          1           0        9.808381   -0.019026    2.779644
    119          1           0       11.508997   -0.449282    2.737096
    120          1           0       11.101391   -2.675797    2.294124
    121          1           0        9.775598   -2.338670    1.275856
    122          1           0        9.459359   -1.933676    4.283118
    123          1           0        9.405011   -3.552597    3.566565
    124          1           0        7.586898   -1.858427    2.031069
    125          1           0        7.368960   -1.817023    4.972783
    126          1           0        6.001081   -2.614707    4.351823
    127          1           0        6.411789   -0.944039    3.795232
    128          1           0        6.887757   -4.441907    3.371191
    129          1           0        8.062632   -4.450079    2.074289
    130          1           0        5.372156   -3.101609    1.599547
    131          1           0        5.515487   -4.765977    1.765788
    132          1           0        6.614415   -5.228183   -0.096449
    133          1           0        7.728687   -3.910593    0.037364
    134          1           0        5.353698   -2.484049   -0.624742
    135          1           0        5.212919   -4.566210   -2.753714
    136          1           0        4.046573   -3.511165   -2.140773
    137          1           0        4.622112   -4.984742   -1.130648
    138          1           0        6.585122   -1.628520   -2.302160
    139          1           0        7.165144   -3.211783   -2.933523
    140          1           0        7.978617   -2.325838   -1.679957
 ---------------------------------------------------------------------

 SCF Done:  E(RZINDO/S) =  -474.125660543     A.U. after   20 cycles

 Excitation energies and oscillator strengths:

 Excited State   1:      Singlet-A      1.2895 eV  961.51 nm  f=0.5802  <S**2>=0.000
     175 ->178         0.19427
     176 ->177         0.66247
 This state for optimization and/or second-order correction.
 Total Energy, E(CIS/TDA) =  -474.078273322
 Copying the excited state density for this state as the 1-particle RhoCI density.

 Excited State   2:      Singlet-A      1.9093 eV  649.36 nm  f=0.0189  <S**2>=0.000
     175 ->177         0.52011
     176 ->178        -0.45309

 Excited State   3:      Singlet-A      2.8729 eV  431.56 nm  f=0.0123  <S**2>=0.000
     168 ->177         0.32556
     168 ->178        -0.12916
     168 ->179        -0.36942
     168 ->180         0.12539
     168 ->181        -0.22298
     168 ->183         0.16280
     168 ->186        -0.22086
     168 ->187        -0.11180
     168 ->194        -0.10252

 Excited State   4:      Singlet-A      2.9666 eV  417.93 nm  f=0.8829  <S**2>=0.000
     174 ->177         0.10610
     175 ->177         0.37774
     176 ->178         0.44120
     176 ->179        -0.28690
     176 ->183        -0.12048

 Excited State   5:      Singlet-A      2.9817 eV  415.81 nm  f=0.2791  <S**2>=0.000
     175 ->177         0.17747
     176 ->178         0.23749
     176 ->179         0.54913
     176 ->180        -0.17621
     176 ->181        -0.19350

 The electronic state is 1-A.
 Alpha  occ. eigenvalues --   -1.83967  -1.81320  -1.78752  -1.73325  -1.71088
 Alpha  occ. eigenvalues --   -1.69856  -1.66689  -1.59733  -1.59683  -1.57577
 Alpha  occ. eigenvalues --   -1.55159  -1.51447  -1.48960  -1.48142  -1.46401
 Alpha  occ. eigenvalues --   -1.44550  -1.42956  -1.40701  -1.38512  -1.37657
 Alpha  occ. eigenvalues --   -1.35774  -1.34065  -1.32458  -1.30424  -1.28139
 Alpha  occ. eigenvalues --   -1.27584  -1.26270  -1.22887  -1.21666  -1.18396
 Alpha  occ. eigenvalues --   -1.17655  -1.16349  -1.14944  -1.13506  -1.13055
 Alpha  occ. eigenvalues --   -1.12689  -1.09794  -1.09332  -1.05517  -1.04066
 Alpha  occ. eigenvalues --   -1.03431  -1.01446  -0.99119  -0.98310  -0.97472
 Alpha  occ. eigenvalues --   -0.96025  -0.94840  -0.94630  -0.93052  -0.92035
 Alpha  occ. eigenvalues --   -0.91758  -0.91248  -0.89483  -0.88416  -0.87835
 Alpha  occ. eigenvalues --   -0.86670  -0.84537  -0.83610  -0.82889  -0.80328
 Alpha  occ. eigenvalues --   -0.79510  -0.79132  -0.77869  -0.77451  -0.77003
 Alpha  occ. eigenvalues --   -0.76610  -0.75478  -0.75097  -0.74480  -0.74142
 Alpha  occ. eigenvalues --   -0.73767  -0.72888  -0.72585  -0.72027  -0.71357
 Alpha  occ. eigenvalues --   -0.70251  -0.69717  -0.69270  -0.68888  -0.68429
 Alpha  occ. eigenvalues --   -0.68031  -0.67023  -0.66924  -0.65847  -0.65445
 Alpha  occ. eigenvalues --   -0.65088  -0.64448  -0.64327  -0.63899  -0.62951
 Alpha  occ. eigenvalues --   -0.62734  -0.62341  -0.62151  -0.62100  -0.61785
 Alpha  occ. eigenvalues --   -0.61347  -0.61244  -0.61138  -0.60524  -0.60369
 Alpha  occ. eigenvalues --   -0.60155  -0.59547  -0.59192  -0.58208  -0.58138
 Alpha  occ. eigenvalues --   -0.57930  -0.57161  -0.57144  -0.56725  -0.56192
 Alpha  occ. eigenvalues --   -0.55977  -0.55837  -0.55629  -0.54940  -0.54253
 Alpha  occ. eigenvalues --   -0.54109  -0.53884  -0.53424  -0.52794  -0.52553
 Alpha  occ. eigenvalues --   -0.52461  -0.52376  -0.52098  -0.51891  -0.51693
 Alpha  occ. eigenvalues --   -0.51628  -0.51092  -0.50898  -0.50672  -0.50518
 Alpha  occ. eigenvalues --   -0.50306  -0.49640  -0.49501  -0.48959  -0.48869
 Alpha  occ. eigenvalues --   -0.48710  -0.48450  -0.48381  -0.48196  -0.47861
 Alpha  occ. eigenvalues --   -0.47404  -0.47307  -0.47067  -0.46993  -0.46694
 Alpha  occ. eigenvalues --   -0.46368  -0.46302  -0.46124  -0.45950  -0.45696
 Alpha  occ. eigenvalues --   -0.45286  -0.45090  -0.44942  -0.44359  -0.44258
 Alpha  occ. eigenvalues --   -0.44055  -0.43302  -0.43131  -0.43013  -0.42181
 Alpha  occ. eigenvalues --   -0.41948  -0.41699  -0.41666  -0.39327  -0.38993
 Alpha  occ. eigenvalues --   -0.38761  -0.37146  -0.35576  -0.34938  -0.34683
 Alpha  occ. eigenvalues --   -0.33905  -0.33051  -0.32730  -0.31969  -0.26975
 Alpha  occ. eigenvalues --   -0.22041
 Alpha virt. eigenvalues --   -0.08567  -0.02769  -0.00925   0.00826   0.01051
 Alpha virt. eigenvalues --    0.01656   0.02109   0.02879   0.04521   0.04641
 Alpha virt. eigenvalues --    0.06338   0.06465   0.07016   0.07486   0.07853

 Mulliken charges:
               1
     1  Mg   0.438900
     2  C   -0.033264
     3  C   -0.082230
     4  C   -0.091014
     5  C   -0.073050
     6  N   -0.249529
     7  C    0.098093
     8  C   -0.007944
     9  C    0.000973
    10  C    0.154874
    11  C   -0.054258
    12  C   -0.010166
    13  C    0.004909
    14  C    0.469499
    15  O   -0.523650
    16  O   -0.284389
    17  N   -0.328760
    18  C    0.115876
    19  C    0.057614
    20  C   -0.043703
    21  C    0.151736
    22  C   -0.037088
    23  C    0.325769
    24  O   -0.515394
    25  C   -0.036360
    26  N   -0.280725
    27  C    0.154646
    28  C    0.007396
    29  C   -0.009308
    30  C    0.129874
    31  C   -0.058189
    32  C   -0.038561
    33  C   -0.056935
    34  N   -0.312581
    35  C    0.076621
    36  C    0.014402
    37  C   -0.068452
    38  C    0.097254
    39  C   -0.035941
    40  C    0.335733
    41  O   -0.525347
    42  C    0.064540
    43  C    0.488348
    44  O   -0.523295
    45  O   -0.275465
    46  C    0.069581
    47  C    0.120209
    48  C   -0.079715
    49  C   -0.002069
    50  C   -0.052124
    51  C   -0.022670
    52  C   -0.026944
    53  C   -0.033003
    54  C   -0.009029
    55  C   -0.058865
    56  C   -0.039347
    57  C   -0.044845
    58  C   -0.030727
    59  C   -0.008647
    60  C   -0.065448
    61  C   -0.029110
    62  C   -0.047077
    63  C   -0.036007
    64  C   -0.014180
    65  C   -0.062249
    66  C   -0.064543
    67  H    0.030017
    68  H    0.020228
    69  H    0.028185
    70  H    0.044017
    71  H    0.037234
    72  H    0.030221
    73  H    0.024850
    74  H    0.025608
    75  H    0.025639
    76  H    0.029964
    77  H    0.033450
    78  H    0.052626
    79  H    0.047620
    80  H    0.014315
    81  H    0.036449
    82  H    0.049176
    83  H    0.019067
    84  H    0.037251
    85  H    0.021148
    86  H    0.037409
    87  H    0.022163
    88  H    0.035103
    89  H    0.008187
    90  H    0.025560
    91  H    0.026431
    92  H    0.018882
    93  H    0.011229
    94  H    0.022777
    95  H    0.028748
    96  H    0.015809
    97  H    0.039114
    98  H    0.051505
    99  H    0.039648
   100  H    0.046308
   101  H    0.046588
   102  H    0.049639
   103  H    0.045888
   104  H    0.019126
   105  H    0.017623
   106  H    0.028954
   107  H    0.030383
   108  H    0.016252
   109  H    0.020416
   110  H    0.019344
   111  H    0.022459
   112  H    0.032731
   113  H    0.014260
   114  H    0.025065
   115  H    0.009549
   116  H    0.016935
   117  H    0.026069
   118  H    0.014112
   119  H    0.024903
   120  H    0.011538
   121  H    0.016457
   122  H    0.025961
   123  H    0.014228
   124  H    0.025260
   125  H    0.012246
   126  H    0.023139
   127  H    0.017710
   128  H    0.015518
   129  H    0.013642
   130  H    0.024686
   131  H    0.004017
   132  H    0.024653
   133  H    0.016322
   134  H    0.023656
   135  H    0.017076
   136  H    0.019991
   137  H    0.028250
   138  H    0.012153
   139  H    0.021757
   140  H    0.020858
 Sum of Mulliken charges =  -0.00000

 Dipole moment (field-independent basis, Debye):
    X=              1.7817    Y=             -4.4638    Z=              2.9692  Tot=              5.6495
 N-N= 4.513522695067D+03 E-N= 0.000000000000D+00  KE=-9.700641244229D+03
 Leave Link  601 at Thu May  5 13:22:25 2022, MaxMem=  6710886400 cpu:               4.8 elap:               0.2
 (Enter /sw/apps/gaussian-16.0/g16/l9999.exe)
 1\1\GINC-BP1-COMPUTE197\SP\RZINDO CIS\STO-3G\C55H74Mg1N4O6\OF15641\05-
 May-2022\0\\#p ZINDO=(nstates=5)\\step_851_chromophore_23 ZINDO\\0,1\M
 g,0,-11.619,40.75,42.006\C,0,-10.307,37.69,41.014\C,0,-9.08,42.304,40.
 211\C,0,-13.231,43.706,42.411\C,0,-14.562,39.093,43.093\N,0,-9.985,40.
 068,40.572\C,0,-9.598,38.776,40.473\C,0,-8.371,38.532,39.548\C,0,-7.91
 8,40.075,39.435\C,0,-8.978,40.847,40.206\C,0,-6.437,40.278,39.936\C,0,
 -8.648,37.869,38.206\C,0,-7.698,36.692,37.935\C,0,-6.493,36.963,37.007

 Normal termination of Gaussian 16 at Thu May  5 13:22:25 2022.
