 Gaussian 16, Revision A.03,
 Gaussian 16:  ES64L-G16RevA.03 25-Dec-2016

 ------------------------------
 #p blyp/Def2SVP td=(nstates=5)
 ------------------------------

 ---------------------------------------------------
 step_1251_chromophore_21 TDDFT with blyp functional
 ---------------------------------------------------
 Symbolic Z-matrix:
 Charge =  0 Multiplicity = 1

                         Standard orientation:
 ---------------------------------------------------------------------
 Center     Atomic      Atomic             Coordinates (Angstroms)
 Number     Number       Type             X           Y           Z
 ---------------------------------------------------------------------
      1         12           0        5.340166    1.085400    0.244105
      2          6           0        5.021095   -2.292771    0.051924
      3          6           0        1.943221    1.387301   -0.329083
      4          6           0        5.794851    4.466161   -0.174351
      5          6           0        8.818684    0.752799    0.455968
      6          7           0        3.691389   -0.276236   -0.081406
      7          6           0        3.796508   -1.691729   -0.038139
      8          6           0        2.414417   -2.286309    0.200332
      9          6           0        1.405050   -1.185421   -0.326891
     10          6           0        2.375236    0.085663   -0.236157
     11          6           0        0.801845   -1.471991   -1.750385
     12          6           0        2.071569   -2.584924    1.676817
     13          6           0        1.241131   -3.822029    2.020289
     14          6           0        0.222492   -4.234428    0.857478
     15          8           0        0.540181   -4.839865   -0.152475
     16          8           0       -0.982698   -3.564886    1.040101
     17          7           0        4.033051    2.727724   -0.212523
     18          6           0        2.674376    2.615891   -0.269200
     19          6           0        2.108553    3.908527   -0.245247
     20          6           0        3.171161    4.817969   -0.344058
     21          6           0        4.381296    4.060494   -0.265169
     22          6           0        0.582128    4.157100   -0.162309
     23          6           0        3.154850    6.374379   -0.457444
     24          8           0        4.183506    7.005883   -0.666128
     25          6           0        1.848266    7.249510   -0.554441
     26          7           0        7.089358    2.514227    0.190960
     27          6           0        6.952368    3.779200    0.007714
     28          6           0        8.341952    4.448576    0.054565
     29          6           0        9.309257    3.268769    0.341533
     30          6           0        8.374688    2.108271    0.384051
     31          6           0        8.697005    5.317607   -1.198657
     32          6           0       10.277213    3.327396    1.539078
     33          6           0       11.801779    3.179443    1.216617
     34          7           0        6.721407   -0.438783    0.334842
     35          6           0        8.113778   -0.500936    0.430650
     36          6           0        8.564280   -1.822045    0.232156
     37          6           0        7.411758   -2.593059    0.253980
     38          6           0        6.285831   -1.681121    0.220909
     39          6           0        9.983917   -2.183623    0.149318
     40          6           0        6.837081   -3.969169    0.128285
     41          8           0        7.363640   -5.047990    0.067969
     42          6           0        5.286022   -3.796970    0.118994
     43          6           0        4.730352   -4.550608   -0.974464
     44          8           0        4.458447   -4.107020   -2.049913
     45          8           0        4.199930   -5.717239   -0.570086
     46          6           0        3.318807   -6.447977   -1.449729
     47          6           0       -1.845266   -3.767595   -0.095511
     48          6           0       -3.214793   -2.975247   -0.028221
     49          6           0       -4.105163   -2.561549   -0.981229
     50          6           0       -3.866875   -2.738495   -2.505095
     51          6           0       -5.203773   -1.554386   -0.652502
     52          6           0       -6.622399   -2.187974   -0.760450
     53          6           0       -7.285599   -2.470986    0.528823
     54          6           0       -8.192343   -1.235865    1.002436
     55          6           0       -7.823603   -0.617583    2.345657
     56          6           0       -9.683464   -1.587410    0.790769
     57          6           0      -10.488599   -0.650819   -0.103940
     58          6           0      -11.940331   -0.841568    0.275845
     59          6           0      -12.601020    0.481546    0.705138
     60          6           0      -12.807104    0.510240    2.286830
     61          6           0      -13.791895    0.699003   -0.246101
     62          6           0      -14.397187    2.111973    0.023705
     63          6           0      -15.505643    2.525510   -0.952728
     64          6           0      -16.850141    2.680460   -0.220213
     65          6           0      -18.048974    1.970768   -1.047184
     66          6           0      -17.244519    4.202556    0.058269
     67          1           0        0.857216    1.435007   -0.228243
     68          1           0        5.979990    5.543179   -0.170922
     69          1           0        9.902694    0.679100    0.571961
     70          1           0        2.400177   -3.243039   -0.321693
     71          1           0        0.519809   -1.050384    0.295874
     72          1           0       -0.230795   -1.123261   -1.738172
     73          1           0        0.701088   -2.524700   -2.014069
     74          1           0        1.384337   -0.931184   -2.495554
     75          1           0        1.738473   -1.806761    2.363658
     76          1           0        3.052588   -2.801158    2.097606
     77          1           0        0.717056   -3.600551    2.949481
     78          1           0        1.842570   -4.713232    2.201440
     79          1           0        0.202511    4.496430    0.801359
     80          1           0       -0.003383    3.297417   -0.487450
     81          1           0        0.425269    5.007807   -0.825332
     82          1           0        2.178434    8.281875   -0.665567
     83          1           0        1.340852    7.128115    0.402206
     84          1           0        1.288197    7.094702   -1.476355
     85          1           0        8.271867    5.076061    0.942927
     86          1           0        9.943252    3.121308   -0.533096
     87          1           0        9.655568    5.064664   -1.652215
     88          1           0        8.812877    6.376907   -0.965090
     89          1           0        7.932837    5.197689   -1.965947
     90          1           0       10.224496    2.475306    2.216978
     91          1           0       10.159400    4.183891    2.203089
     92          1           0       12.434109    4.066929    1.208765
     93          1           0       11.850674    2.680553    0.249209
     94          1           0       12.341676    2.470688    1.843861
     95          1           0       10.428253   -1.512589   -0.585755
     96          1           0       10.092863   -3.131515   -0.377081
     97          1           0       10.427229   -2.101207    1.141025
     98          1           0        4.907755   -4.234968    1.042050
     99          1           0        3.999080   -7.214529   -1.820205
    100          1           0        2.853653   -5.931415   -2.289406
    101          1           0        2.462199   -6.907910   -0.957976
    102          1           0       -2.035232   -4.839857   -0.050618
    103          1           0       -1.333534   -3.504419   -1.021785
    104          1           0       -3.426141   -2.506414    0.932891
    105          1           0       -4.149272   -1.876045   -3.108391
    106          1           0       -4.493679   -3.504885   -2.961994
    107          1           0       -2.834871   -3.025831   -2.708356
    108          1           0       -5.097800   -0.788160   -1.420581
    109          1           0       -5.076405   -1.158410    0.355512
    110          1           0       -6.499670   -3.104654   -1.337217
    111          1           0       -7.189855   -1.501864   -1.389316
    112          1           0       -6.387310   -2.650675    1.120088
    113          1           0       -7.844459   -3.391421    0.360513
    114          1           0       -7.957624   -0.391445    0.353404
    115          1           0       -7.229756   -1.303831    2.949752
    116          1           0       -8.675797   -0.304043    2.947972
    117          1           0       -7.229491    0.275654    2.154665
    118          1           0      -10.141042   -1.776568    1.761649
    119          1           0       -9.810643   -2.542513    0.281514
    120          1           0      -10.314666   -0.849039   -1.161369
    121          1           0       -9.991422    0.269950    0.202125
    122          1           0      -12.204700   -1.552847    1.057502
    123          1           0      -12.456441   -1.200175   -0.615417
    124          1           0      -11.823121    1.215745    0.495942
    125          1           0      -12.687233    1.559134    2.560766
    126          1           0      -12.018419    0.046773    2.879983
    127          1           0      -13.816011    0.161316    2.507470
    128          1           0      -14.523956    0.015818    0.182902
    129          1           0      -13.541934    0.439379   -1.274994
    130          1           0      -13.508335    2.721082   -0.139252
    131          1           0      -14.752035    2.241666    1.046462
    132          1           0      -15.633270    1.757917   -1.714819
    133          1           0      -15.242387    3.425678   -1.508001
    134          1           0      -16.723684    2.155073    0.726287
    135          1           0      -18.638947    2.722395   -1.571941
    136          1           0      -18.702082    1.345907   -0.437297
    137          1           0      -17.623869    1.344215   -1.830910
    138          1           0      -16.732912    4.946186   -0.552813
    139          1           0      -16.916921    4.315786    1.092046
    140          1           0      -18.327155    4.324678    0.030793
 ---------------------------------------------------------------------

 SCF Done:  E(RB-LYP) =  -3007.34592731     A.U. after   21 cycles

 Excitation energies and oscillator strengths:

 Excited State   1:      Singlet-A      1.8359 eV  675.32 nm  f=0.2206  <S**2>=0.000
     244 -> 247       -0.33014
     245 -> 248       -0.15947
     246 -> 247        0.60326
     246 <- 247       -0.12869
 This state for optimization and/or second-order correction.
 Total Energy, E(TD-HF/TD-DFT) =  -3007.27845784
 Copying the excited state density for this state as the 1-particle RhoCI density.

 Excited State   2:      Singlet-A      1.8542 eV  668.65 nm  f=0.0860  <S**2>=0.000
     244 -> 247        0.60577
     245 -> 247       -0.11767
     246 -> 247        0.33418

 Excited State   3:      Singlet-A      1.9879 eV  623.70 nm  f=0.0239  <S**2>=0.000
     243 -> 247        0.61815
     245 -> 247        0.31343

 Excited State   4:      Singlet-A      2.0492 eV  605.04 nm  f=0.0874  <S**2>=0.000
     243 -> 247       -0.34073
     244 -> 247        0.12096
     245 -> 247        0.56255
     246 -> 248        0.19806

 Excited State   5:      Singlet-A      2.5002 eV  495.89 nm  f=0.0036  <S**2>=0.000
     240 -> 247        0.12671
     241 -> 247        0.66010
     242 -> 247        0.19688

 The electronic state is 1-A.
 Alpha  occ. eigenvalues --  -46.27533 -18.83694 -18.80664 -18.79026 -18.75981
 Alpha  occ. eigenvalues --  -18.75700 -18.74984 -14.03124 -14.02435 -14.00891
 Alpha  occ. eigenvalues --  -14.00670 -10.05628 -10.02349 -10.00276  -9.99893
 Alpha  occ. eigenvalues --   -9.99014  -9.96405  -9.96386  -9.96353  -9.96207
 Alpha  occ. eigenvalues --   -9.95855  -9.95362  -9.95279  -9.95027  -9.94660
 Alpha  occ. eigenvalues --   -9.94514  -9.94391  -9.94165  -9.94098  -9.93671
 Alpha  occ. eigenvalues --   -9.93509  -9.93470  -9.93388  -9.93338  -9.93244
 Alpha  occ. eigenvalues --   -9.93200  -9.93188  -9.93138  -9.93017  -9.92831
 Alpha  occ. eigenvalues --   -9.92821  -9.92629  -9.92453  -9.92430  -9.92391
 Alpha  occ. eigenvalues --   -9.92234  -9.92141  -9.92087  -9.91964  -9.91922
 Alpha  occ. eigenvalues --   -9.91871  -9.91835  -9.91584  -9.91447  -9.91427
 Alpha  occ. eigenvalues --   -9.91349  -9.91298  -9.91273  -9.91161  -9.91113
 Alpha  occ. eigenvalues --   -9.91031  -9.90921  -9.90760  -9.90667  -9.90596
 Alpha  occ. eigenvalues --   -9.90293  -2.91998  -1.72437  -1.71863  -1.71719
 Alpha  occ. eigenvalues --   -0.99388  -0.98306  -0.92556  -0.91896  -0.91495
 Alpha  occ. eigenvalues --   -0.89394  -0.87479  -0.86402  -0.85418  -0.84075
 Alpha  occ. eigenvalues --   -0.75261  -0.74076  -0.73237  -0.72853  -0.72586
 Alpha  occ. eigenvalues --   -0.71802  -0.71254  -0.70818  -0.70553  -0.70124
 Alpha  occ. eigenvalues --   -0.69395  -0.68848  -0.68169  -0.67416  -0.66931
 Alpha  occ. eigenvalues --   -0.66408  -0.65672  -0.64908  -0.64879  -0.64105
 Alpha  occ. eigenvalues --   -0.63784  -0.62637  -0.62149  -0.61767  -0.61062
 Alpha  occ. eigenvalues --   -0.60620  -0.60199  -0.59955  -0.59514  -0.59115
 Alpha  occ. eigenvalues --   -0.58549  -0.58183  -0.56415  -0.55455  -0.54935
 Alpha  occ. eigenvalues --   -0.53976  -0.53700  -0.52429  -0.51907  -0.51651
 Alpha  occ. eigenvalues --   -0.51024  -0.50864  -0.50797  -0.50467  -0.50245
 Alpha  occ. eigenvalues --   -0.49913  -0.49340  -0.48792  -0.48061  -0.46733
 Alpha  occ. eigenvalues --   -0.46386  -0.46062  -0.45989  -0.45000  -0.44633
 Alpha  occ. eigenvalues --   -0.44009  -0.43791  -0.42986  -0.42784  -0.42563
 Alpha  occ. eigenvalues --   -0.42553  -0.41814  -0.41533  -0.41445  -0.41420
 Alpha  occ. eigenvalues --   -0.41207  -0.40603  -0.40480  -0.40218  -0.39946
 Alpha  occ. eigenvalues --   -0.39716  -0.39565  -0.39439  -0.39383  -0.39158
 Alpha  occ. eigenvalues --   -0.39006  -0.38964  -0.38719  -0.38381  -0.38099
 Alpha  occ. eigenvalues --   -0.37908  -0.37636  -0.37512  -0.37404  -0.37258
 Alpha  occ. eigenvalues --   -0.37057  -0.36580  -0.36554  -0.36249  -0.35994
 Alpha  occ. eigenvalues --   -0.35968  -0.35794  -0.35742  -0.35657  -0.35550
 Alpha  occ. eigenvalues --   -0.35411  -0.35301  -0.35209  -0.35070  -0.35042
 Alpha  occ. eigenvalues --   -0.34724  -0.34442  -0.34002  -0.33930  -0.33916
 Alpha  occ. eigenvalues --   -0.33797  -0.33595  -0.33435  -0.33204  -0.33092
 Alpha  occ. eigenvalues --   -0.32925  -0.32879  -0.32794  -0.32592  -0.32235
 Alpha  occ. eigenvalues --   -0.32102  -0.32005  -0.31904  -0.31645  -0.31598
 Alpha  occ. eigenvalues --   -0.31527  -0.31303  -0.31250  -0.31045  -0.30955
 Alpha  occ. eigenvalues --   -0.30566  -0.30402  -0.30125  -0.29954  -0.29856
 Alpha  occ. eigenvalues --   -0.29567  -0.29331  -0.29203  -0.29172  -0.29043
 Alpha  occ. eigenvalues --   -0.28731  -0.28232  -0.27996  -0.27763  -0.27726
 Alpha  occ. eigenvalues --   -0.27489  -0.27279  -0.27180  -0.26701  -0.26524
 Alpha  occ. eigenvalues --   -0.26332  -0.26235  -0.26146  -0.25911  -0.25669
 Alpha  occ. eigenvalues --   -0.25178  -0.24774  -0.23652  -0.23566  -0.23347
 Alpha  occ. eigenvalues --   -0.23002  -0.22287  -0.22126  -0.21101  -0.20861
 Alpha  occ. eigenvalues --   -0.20758  -0.20390  -0.18895  -0.18395  -0.17114
 Alpha  occ. eigenvalues --   -0.16018
 Alpha virt. eigenvalues --   -0.11643  -0.06494  -0.05714  -0.04657  -0.04456
 Alpha virt. eigenvalues --   -0.02790  -0.02408  -0.01677  -0.01180   0.00258
 Alpha virt. eigenvalues --    0.01328   0.02028   0.02399   0.02613   0.03013

 Mulliken charges:
               1
     1  Mg   0.677664
     2  C    0.060571
     3  C   -0.059552
     4  C   -0.004752
     5  C   -0.061690
     6  N   -0.269297
     7  C   -0.058101
     8  C    0.035873
     9  C   -0.011973
    10  C    0.029994
    11  C    0.108886
    12  C    0.106056
    13  C    0.157725
    14  C    0.089185
    15  O   -0.191109
    16  O   -0.270452
    17  N   -0.264955
    18  C    0.136318
    19  C   -0.139391
    20  C    0.062066
    21  C    0.060045
    22  C    0.158100
    23  C   -0.074628
    24  O   -0.164854
    25  C    0.110721
    26  N   -0.134761
    27  C   -0.050482
    28  C    0.038771
    29  C    0.083167
    30  C   -0.025739
    31  C    0.125787
    32  C    0.101723
    33  C    0.023139
    34  N   -0.266874
    35  C    0.104986
    36  C   -0.210919
    37  C    0.080492
    38  C    0.052476
    39  C    0.200994
    40  C   -0.052085
    41  O   -0.100837
    42  C    0.063846
    43  C    0.083864
    44  O   -0.165722
    45  O   -0.257169
    46  C    0.212921
    47  C    0.288850
    48  C   -0.088274
    49  C   -0.144767
    50  C    0.121064
    51  C    0.124470
    52  C    0.038821
    53  C    0.148644
    54  C   -0.057326
    55  C    0.112578
    56  C    0.061477
    57  C    0.081647
    58  C    0.136405
    59  C   -0.119228
    60  C    0.099720
    61  C    0.095289
    62  C    0.054130
    63  C    0.156143
    64  C   -0.116405
    65  C    0.078715
    66  C    0.103049
    67  H   -0.065173
    68  H   -0.050142
    69  H   -0.066173
    70  H   -0.008852
    71  H   -0.022798
    72  H   -0.015363
    73  H    0.020255
    74  H    0.001030
    75  H   -0.018662
    76  H   -0.036413
    77  H   -0.015753
    78  H   -0.001201
    79  H    0.004793
    80  H   -0.004333
    81  H   -0.013192
    82  H   -0.014712
    83  H    0.005280
    84  H    0.026413
    85  H   -0.023281
    86  H   -0.020910
    87  H   -0.014649
    88  H   -0.006371
    89  H    0.003566
    90  H   -0.019095
    91  H   -0.023281
    92  H   -0.000748
    93  H   -0.018500
    94  H   -0.017329
    95  H   -0.013923
    96  H   -0.000783
    97  H    0.020560
    98  H    0.003938
    99  H    0.005795
   100  H    0.017114
   101  H    0.014674
   102  H    0.002089
   103  H    0.007340
   104  H   -0.031573
   105  H   -0.010191
   106  H   -0.003686
   107  H   -0.009083
   108  H   -0.026023
   109  H   -0.029463
   110  H   -0.037521
   111  H   -0.038182
   112  H   -0.043060
   113  H   -0.026901
   114  H   -0.036947
   115  H   -0.016048
   116  H   -0.021540
   117  H   -0.018430
   118  H   -0.031622
   119  H   -0.043656
   120  H   -0.021797
   121  H   -0.019933
   122  H   -0.033855
   123  H   -0.056217
   124  H   -0.043149
   125  H   -0.016742
   126  H   -0.010228
   127  H   -0.005826
   128  H   -0.040525
   129  H   -0.013012
   130  H   -0.045097
   131  H   -0.021008
   132  H   -0.045293
   133  H   -0.037809
   134  H   -0.027410
   135  H   -0.015668
   136  H   -0.009080
   137  H   -0.025689
   138  H   -0.004428
   139  H   -0.019133
   140  H   -0.010417
 Sum of Mulliken charges =  -0.00000

 Dipole moment (field-independent basis, Debye):
    X=             -3.9353    Y=              1.9121    Z=              2.6580  Tot=              5.1193
 Quadrupole moment (field-independent basis, Debye-Ang):
   XX=           -392.3724   YY=           -436.9581   ZZ=           -402.9134
   XY=             26.4377   XZ=             18.3161   YZ=              0.7270

 Normal termination of Gaussian 16 at Wed May  4 02:52:31 2022.
