 Gaussian 16, Revision A.03,
 Gaussian 16:  ES64L-G16RevA.03 25-Dec-2016

 -----------------------------------
 #p cam-b3lyp/Def2SVP td=(nstates=5)
 -----------------------------------

 --------------------------------------------------------
 step_1251_chromophore_21 TDDFT with cam-b3lyp functional
 --------------------------------------------------------
 Symbolic Z-matrix:
 Charge =  0 Multiplicity = 1

                         Standard orientation:
 ---------------------------------------------------------------------
 Center     Atomic      Atomic             Coordinates (Angstroms)
 Number     Number       Type             X           Y           Z
 ---------------------------------------------------------------------
      1         12           0        5.340166    1.085400    0.244105
      2          6           0        5.021095   -2.292771    0.051924
      3          6           0        1.943221    1.387301   -0.329083
      4          6           0        5.794851    4.466161   -0.174351
      5          6           0        8.818684    0.752799    0.455968
      6          7           0        3.691389   -0.276236   -0.081406
      7          6           0        3.796508   -1.691729   -0.038139
      8          6           0        2.414417   -2.286309    0.200332
      9          6           0        1.405050   -1.185421   -0.326891
     10          6           0        2.375236    0.085663   -0.236157
     11          6           0        0.801845   -1.471991   -1.750385
     12          6           0        2.071569   -2.584924    1.676817
     13          6           0        1.241131   -3.822029    2.020289
     14          6           0        0.222492   -4.234428    0.857478
     15          8           0        0.540181   -4.839865   -0.152475
     16          8           0       -0.982698   -3.564886    1.040101
     17          7           0        4.033051    2.727724   -0.212523
     18          6           0        2.674376    2.615891   -0.269200
     19          6           0        2.108553    3.908527   -0.245247
     20          6           0        3.171161    4.817969   -0.344058
     21          6           0        4.381296    4.060494   -0.265169
     22          6           0        0.582128    4.157100   -0.162309
     23          6           0        3.154850    6.374379   -0.457444
     24          8           0        4.183506    7.005883   -0.666128
     25          6           0        1.848266    7.249510   -0.554441
     26          7           0        7.089358    2.514227    0.190960
     27          6           0        6.952368    3.779200    0.007714
     28          6           0        8.341952    4.448576    0.054565
     29          6           0        9.309257    3.268769    0.341533
     30          6           0        8.374688    2.108271    0.384051
     31          6           0        8.697005    5.317607   -1.198657
     32          6           0       10.277213    3.327396    1.539078
     33          6           0       11.801779    3.179443    1.216617
     34          7           0        6.721407   -0.438783    0.334842
     35          6           0        8.113778   -0.500936    0.430650
     36          6           0        8.564280   -1.822045    0.232156
     37          6           0        7.411758   -2.593059    0.253980
     38          6           0        6.285831   -1.681121    0.220909
     39          6           0        9.983917   -2.183623    0.149318
     40          6           0        6.837081   -3.969169    0.128285
     41          8           0        7.363640   -5.047990    0.067969
     42          6           0        5.286022   -3.796970    0.118994
     43          6           0        4.730352   -4.550608   -0.974464
     44          8           0        4.458447   -4.107020   -2.049913
     45          8           0        4.199930   -5.717239   -0.570086
     46          6           0        3.318807   -6.447977   -1.449729
     47          6           0       -1.845266   -3.767595   -0.095511
     48          6           0       -3.214793   -2.975247   -0.028221
     49          6           0       -4.105163   -2.561549   -0.981229
     50          6           0       -3.866875   -2.738495   -2.505095
     51          6           0       -5.203773   -1.554386   -0.652502
     52          6           0       -6.622399   -2.187974   -0.760450
     53          6           0       -7.285599   -2.470986    0.528823
     54          6           0       -8.192343   -1.235865    1.002436
     55          6           0       -7.823603   -0.617583    2.345657
     56          6           0       -9.683464   -1.587410    0.790769
     57          6           0      -10.488599   -0.650819   -0.103940
     58          6           0      -11.940331   -0.841568    0.275845
     59          6           0      -12.601020    0.481546    0.705138
     60          6           0      -12.807104    0.510240    2.286830
     61          6           0      -13.791895    0.699003   -0.246101
     62          6           0      -14.397187    2.111973    0.023705
     63          6           0      -15.505643    2.525510   -0.952728
     64          6           0      -16.850141    2.680460   -0.220213
     65          6           0      -18.048974    1.970768   -1.047184
     66          6           0      -17.244519    4.202556    0.058269
     67          1           0        0.857216    1.435007   -0.228243
     68          1           0        5.979990    5.543179   -0.170922
     69          1           0        9.902694    0.679100    0.571961
     70          1           0        2.400177   -3.243039   -0.321693
     71          1           0        0.519809   -1.050384    0.295874
     72          1           0       -0.230795   -1.123261   -1.738172
     73          1           0        0.701088   -2.524700   -2.014069
     74          1           0        1.384337   -0.931184   -2.495554
     75          1           0        1.738473   -1.806761    2.363658
     76          1           0        3.052588   -2.801158    2.097606
     77          1           0        0.717056   -3.600551    2.949481
     78          1           0        1.842570   -4.713232    2.201440
     79          1           0        0.202511    4.496430    0.801359
     80          1           0       -0.003383    3.297417   -0.487450
     81          1           0        0.425269    5.007807   -0.825332
     82          1           0        2.178434    8.281875   -0.665567
     83          1           0        1.340852    7.128115    0.402206
     84          1           0        1.288197    7.094702   -1.476355
     85          1           0        8.271867    5.076061    0.942927
     86          1           0        9.943252    3.121308   -0.533096
     87          1           0        9.655568    5.064664   -1.652215
     88          1           0        8.812877    6.376907   -0.965090
     89          1           0        7.932837    5.197689   -1.965947
     90          1           0       10.224496    2.475306    2.216978
     91          1           0       10.159400    4.183891    2.203089
     92          1           0       12.434109    4.066929    1.208765
     93          1           0       11.850674    2.680553    0.249209
     94          1           0       12.341676    2.470688    1.843861
     95          1           0       10.428253   -1.512589   -0.585755
     96          1           0       10.092863   -3.131515   -0.377081
     97          1           0       10.427229   -2.101207    1.141025
     98          1           0        4.907755   -4.234968    1.042050
     99          1           0        3.999080   -7.214529   -1.820205
    100          1           0        2.853653   -5.931415   -2.289406
    101          1           0        2.462199   -6.907910   -0.957976
    102          1           0       -2.035232   -4.839857   -0.050618
    103          1           0       -1.333534   -3.504419   -1.021785
    104          1           0       -3.426141   -2.506414    0.932891
    105          1           0       -4.149272   -1.876045   -3.108391
    106          1           0       -4.493679   -3.504885   -2.961994
    107          1           0       -2.834871   -3.025831   -2.708356
    108          1           0       -5.097800   -0.788160   -1.420581
    109          1           0       -5.076405   -1.158410    0.355512
    110          1           0       -6.499670   -3.104654   -1.337217
    111          1           0       -7.189855   -1.501864   -1.389316
    112          1           0       -6.387310   -2.650675    1.120088
    113          1           0       -7.844459   -3.391421    0.360513
    114          1           0       -7.957624   -0.391445    0.353404
    115          1           0       -7.229756   -1.303831    2.949752
    116          1           0       -8.675797   -0.304043    2.947972
    117          1           0       -7.229491    0.275654    2.154665
    118          1           0      -10.141042   -1.776568    1.761649
    119          1           0       -9.810643   -2.542513    0.281514
    120          1           0      -10.314666   -0.849039   -1.161369
    121          1           0       -9.991422    0.269950    0.202125
    122          1           0      -12.204700   -1.552847    1.057502
    123          1           0      -12.456441   -1.200175   -0.615417
    124          1           0      -11.823121    1.215745    0.495942
    125          1           0      -12.687233    1.559134    2.560766
    126          1           0      -12.018419    0.046773    2.879983
    127          1           0      -13.816011    0.161316    2.507470
    128          1           0      -14.523956    0.015818    0.182902
    129          1           0      -13.541934    0.439379   -1.274994
    130          1           0      -13.508335    2.721082   -0.139252
    131          1           0      -14.752035    2.241666    1.046462
    132          1           0      -15.633270    1.757917   -1.714819
    133          1           0      -15.242387    3.425678   -1.508001
    134          1           0      -16.723684    2.155073    0.726287
    135          1           0      -18.638947    2.722395   -1.571941
    136          1           0      -18.702082    1.345907   -0.437297
    137          1           0      -17.623869    1.344215   -1.830910
    138          1           0      -16.732912    4.946186   -0.552813
    139          1           0      -16.916921    4.315786    1.092046
    140          1           0      -18.327155    4.324678    0.030793
 ---------------------------------------------------------------------

 SCF Done:  E(RCAM-B3LYP) =  -3007.14252603     A.U. after   19 cycles

 Excitation energies and oscillator strengths:

 Excited State   1:      Singlet-A      1.7247 eV  718.89 nm  f=0.3854  <S**2>=0.000
     245 -> 248        0.17909
     246 -> 247        0.68622
     245 <- 248        0.10728
 This state for optimization and/or second-order correction.
 Total Energy, E(TD-HF/TD-DFT) =  -3007.07914607
 Copying the excited state density for this state as the 1-particle RhoCI density.

 Excited State   2:      Singlet-A      2.2004 eV  563.47 nm  f=0.1719  <S**2>=0.000
     245 -> 247        0.65939
     246 -> 248       -0.24357

 Excited State   3:      Singlet-A      3.3066 eV  374.96 nm  f=0.0009  <S**2>=0.000
     244 -> 247        0.68470

 Excited State   4:      Singlet-A      3.5343 eV  350.80 nm  f=0.0076  <S**2>=0.000
     240 -> 247        0.10378
     240 -> 249        0.12673
     241 -> 247       -0.14501
     243 -> 247        0.59319
     246 -> 248        0.20035

 Excited State   5:      Singlet-A      3.5523 eV  349.02 nm  f=0.0007  <S**2>=0.000
     241 -> 247        0.54755
     241 -> 248        0.15326
     241 -> 249       -0.24427
     241 -> 250       -0.14649
     241 -> 251        0.21178
     243 -> 247        0.16316

 The electronic state is 1-A.
 Alpha  occ. eigenvalues --  -46.89087 -19.26522 -19.23451 -19.22039 -19.19195
 Alpha  occ. eigenvalues --  -19.19041 -19.17995 -14.41856 -14.41342 -14.39303
 Alpha  occ. eigenvalues --  -14.39109 -10.41023 -10.37571 -10.35613 -10.35190
 Alpha  occ. eigenvalues --  -10.33080 -10.30913 -10.30835 -10.30687 -10.30286
 Alpha  occ. eigenvalues --  -10.30037 -10.29583 -10.29451 -10.29360 -10.28950
 Alpha  occ. eigenvalues --  -10.28560 -10.28441 -10.28372 -10.28111 -10.27873
 Alpha  occ. eigenvalues --  -10.27543 -10.27533 -10.27499 -10.27485 -10.27436
 Alpha  occ. eigenvalues --  -10.27411 -10.27297 -10.27213 -10.27082 -10.26977
 Alpha  occ. eigenvalues --  -10.26540 -10.26521 -10.26388 -10.26300 -10.26211
 Alpha  occ. eigenvalues --  -10.26193 -10.26179 -10.25903 -10.25902 -10.25577
 Alpha  occ. eigenvalues --  -10.25543 -10.25494 -10.25439 -10.25225 -10.25192
 Alpha  occ. eigenvalues --  -10.25103 -10.24950 -10.24915 -10.24756 -10.24719
 Alpha  occ. eigenvalues --  -10.24649 -10.24599 -10.24413 -10.24318 -10.24245
 Alpha  occ. eigenvalues --  -10.23913  -3.17449  -1.92368  -1.91883  -1.91760
 Alpha  occ. eigenvalues --   -1.17828  -1.16840  -1.11026  -1.10008  -1.09755
 Alpha  occ. eigenvalues --   -1.07260  -1.05259  -1.03995  -1.03040  -1.01562
 Alpha  occ. eigenvalues --   -0.92349  -0.90966  -0.90055  -0.89579  -0.89283
 Alpha  occ. eigenvalues --   -0.88490  -0.87847  -0.87417  -0.87116  -0.86607
 Alpha  occ. eigenvalues --   -0.86009  -0.85134  -0.84444  -0.83562  -0.83042
 Alpha  occ. eigenvalues --   -0.82435  -0.81663  -0.80702  -0.80624  -0.79970
 Alpha  occ. eigenvalues --   -0.79901  -0.78310  -0.77762  -0.77268  -0.76451
 Alpha  occ. eigenvalues --   -0.75978  -0.75527  -0.75228  -0.74834  -0.74292
 Alpha  occ. eigenvalues --   -0.73667  -0.73231  -0.71240  -0.70209  -0.69542
 Alpha  occ. eigenvalues --   -0.68591  -0.68305  -0.66890  -0.66019  -0.65928
 Alpha  occ. eigenvalues --   -0.65175  -0.65041  -0.64884  -0.64354  -0.64206
 Alpha  occ. eigenvalues --   -0.63935  -0.63318  -0.62707  -0.61638  -0.60281
 Alpha  occ. eigenvalues --   -0.60023  -0.59682  -0.59482  -0.58369  -0.58205
 Alpha  occ. eigenvalues --   -0.57328  -0.57161  -0.56344  -0.56009  -0.55829
 Alpha  occ. eigenvalues --   -0.55600  -0.54814  -0.54694  -0.54262  -0.54129
 Alpha  occ. eigenvalues --   -0.53981  -0.53569  -0.53203  -0.52867  -0.52734
 Alpha  occ. eigenvalues --   -0.52536  -0.52366  -0.52145  -0.51889  -0.51640
 Alpha  occ. eigenvalues --   -0.51568  -0.51395  -0.51304  -0.50980  -0.50753
 Alpha  occ. eigenvalues --   -0.50264  -0.50009  -0.49839  -0.49711  -0.49674
 Alpha  occ. eigenvalues --   -0.49496  -0.49282  -0.48750  -0.48620  -0.48550
 Alpha  occ. eigenvalues --   -0.48195  -0.47991  -0.47926  -0.47639  -0.47553
 Alpha  occ. eigenvalues --   -0.47482  -0.47330  -0.47195  -0.47050  -0.46856
 Alpha  occ. eigenvalues --   -0.46854  -0.46418  -0.45824  -0.45707  -0.45666
 Alpha  occ. eigenvalues --   -0.45605  -0.45376  -0.45258  -0.44900  -0.44873
 Alpha  occ. eigenvalues --   -0.44639  -0.44591  -0.44494  -0.44374  -0.44030
 Alpha  occ. eigenvalues --   -0.43705  -0.43444  -0.43389  -0.43333  -0.43331
 Alpha  occ. eigenvalues --   -0.43124  -0.42791  -0.42720  -0.42406  -0.42332
 Alpha  occ. eigenvalues --   -0.42075  -0.41590  -0.41376  -0.41202  -0.41139
 Alpha  occ. eigenvalues --   -0.40649  -0.40569  -0.40426  -0.40232  -0.40208
 Alpha  occ. eigenvalues --   -0.40150  -0.39762  -0.38886  -0.38767  -0.38688
 Alpha  occ. eigenvalues --   -0.38362  -0.38318  -0.38034  -0.37941  -0.37564
 Alpha  occ. eigenvalues --   -0.37294  -0.37055  -0.36957  -0.36568  -0.36288
 Alpha  occ. eigenvalues --   -0.36112  -0.35344  -0.35107  -0.34953  -0.34112
 Alpha  occ. eigenvalues --   -0.33257  -0.32580  -0.32560  -0.31481  -0.30931
 Alpha  occ. eigenvalues --   -0.30615  -0.30447  -0.30293  -0.29751  -0.23759
 Alpha  occ. eigenvalues --   -0.21437
 Alpha virt. eigenvalues --   -0.08892  -0.01157   0.00935   0.02430   0.02808
 Alpha virt. eigenvalues --    0.03349   0.04688   0.05720   0.06110   0.06852
 Alpha virt. eigenvalues --    0.07780   0.08514   0.08704   0.09395   0.09413

 Mulliken charges:
               1
     1  Mg   0.808619
     2  C    0.023610
     3  C   -0.074771
     4  C   -0.020714
     5  C   -0.064554
     6  N   -0.341904
     7  C   -0.004017
     8  C   -0.023867
     9  C   -0.057908
    10  C    0.047484
    11  C    0.057391
    12  C    0.052504
    13  C    0.102326
    14  C    0.156912
    15  O   -0.231199
    16  O   -0.331859
    17  N   -0.351234
    18  C    0.145589
    19  C   -0.149764
    20  C   -0.010533
    21  C    0.085216
    22  C    0.111316
    23  C    0.001574
    24  O   -0.204412
    25  C    0.035598
    26  N   -0.207265
    27  C   -0.026121
    28  C   -0.016124
    29  C    0.022476
    30  C   -0.004286
    31  C    0.064525
    32  C    0.038160
    33  C   -0.032917
    34  N   -0.355557
    35  C    0.108472
    36  C   -0.205246
    37  C    0.001213
    38  C    0.091663
    39  C    0.141717
    40  C    0.052287
    41  O   -0.139375
    42  C   -0.017813
    43  C    0.171603
    44  O   -0.202063
    45  O   -0.320594
    46  C    0.173123
    47  C    0.262296
    48  C   -0.110306
    49  C   -0.165353
    50  C    0.062065
    51  C    0.063541
    52  C   -0.011432
    53  C    0.092144
    54  C   -0.118944
    55  C    0.056313
    56  C    0.013656
    57  C    0.029411
    58  C    0.075963
    59  C   -0.170587
    60  C    0.044075
    61  C    0.042627
    62  C   -0.001174
    63  C    0.101265
    64  C   -0.176342
    65  C    0.022687
    66  C    0.044832
    67  H   -0.032680
    68  H   -0.009125
    69  H   -0.031876
    70  H    0.025680
    71  H    0.011569
    72  H    0.005866
    73  H    0.040563
    74  H    0.027903
    75  H    0.013043
    76  H   -0.004512
    77  H    0.019493
    78  H    0.029438
    79  H    0.031054
    80  H    0.022339
    81  H    0.010469
    82  H    0.021030
    83  H    0.031799
    84  H    0.052682
    85  H    0.011488
    86  H    0.014432
    87  H    0.010152
    88  H    0.018266
    89  H    0.029246
    90  H    0.012052
    91  H    0.006497
    92  H    0.022493
    93  H    0.002117
    94  H    0.007314
    95  H    0.012674
    96  H    0.027757
    97  H    0.045787
    98  H    0.045701
    99  H    0.028836
   100  H    0.042278
   101  H    0.036233
   102  H    0.030890
   103  H    0.028187
   104  H    0.000493
   105  H    0.014867
   106  H    0.020703
   107  H    0.013947
   108  H    0.004538
   109  H   -0.001154
   110  H   -0.007817
   111  H   -0.010320
   112  H   -0.015465
   113  H    0.003461
   114  H   -0.006040
   115  H    0.008151
   116  H    0.002582
   117  H    0.004718
   118  H   -0.004522
   119  H   -0.013958
   120  H    0.005843
   121  H    0.005076
   122  H   -0.004105
   123  H   -0.023399
   124  H   -0.011835
   125  H    0.006783
   126  H    0.012519
   127  H    0.016332
   128  H   -0.014026
   129  H    0.015185
   130  H   -0.015227
   131  H    0.004731
   132  H   -0.015563
   133  H   -0.008168
   134  H    0.003335
   135  H    0.007350
   136  H    0.014618
   137  H   -0.002228
   138  H    0.018078
   139  H    0.003999
   140  H    0.013362
 Sum of Mulliken charges =  -0.00000

 Dipole moment (field-independent basis, Debye):
    X=             -4.1999    Y=              2.4400    Z=              2.7937  Tot=              5.6033
 Quadrupole moment (field-independent basis, Debye-Ang):
   XX=           -391.9598   YY=           -433.3762   ZZ=           -402.6127
   XY=             27.7760   XZ=             19.6854   YZ=              0.3847

 Normal termination of Gaussian 16 at Wed May  4 01:54:50 2022.
