 Gaussian 16, Revision A.03,
 Gaussian 16:  ES64L-G16RevA.03 25-Dec-2016

 ---------------------------------
 #p PBE1PBE/Def2SVP td=(nstates=5)
 ---------------------------------

 ------------------------------------------------------
 step_1251_chromophore_21 TDDFT with PBE1PBE functional
 ------------------------------------------------------
 Symbolic Z-matrix:
 Charge =  0 Multiplicity = 1

                         Standard orientation:
 ---------------------------------------------------------------------
 Center     Atomic      Atomic             Coordinates (Angstroms)
 Number     Number       Type             X           Y           Z
 ---------------------------------------------------------------------
      1         12           0        5.340166    1.085400    0.244105
      2          6           0        5.021095   -2.292771    0.051924
      3          6           0        1.943221    1.387301   -0.329083
      4          6           0        5.794851    4.466161   -0.174351
      5          6           0        8.818684    0.752799    0.455968
      6          7           0        3.691389   -0.276236   -0.081406
      7          6           0        3.796508   -1.691729   -0.038139
      8          6           0        2.414417   -2.286309    0.200332
      9          6           0        1.405050   -1.185421   -0.326891
     10          6           0        2.375236    0.085663   -0.236157
     11          6           0        0.801845   -1.471991   -1.750385
     12          6           0        2.071569   -2.584924    1.676817
     13          6           0        1.241131   -3.822029    2.020289
     14          6           0        0.222492   -4.234428    0.857478
     15          8           0        0.540181   -4.839865   -0.152475
     16          8           0       -0.982698   -3.564886    1.040101
     17          7           0        4.033051    2.727724   -0.212523
     18          6           0        2.674376    2.615891   -0.269200
     19          6           0        2.108553    3.908527   -0.245247
     20          6           0        3.171161    4.817969   -0.344058
     21          6           0        4.381296    4.060494   -0.265169
     22          6           0        0.582128    4.157100   -0.162309
     23          6           0        3.154850    6.374379   -0.457444
     24          8           0        4.183506    7.005883   -0.666128
     25          6           0        1.848266    7.249510   -0.554441
     26          7           0        7.089358    2.514227    0.190960
     27          6           0        6.952368    3.779200    0.007714
     28          6           0        8.341952    4.448576    0.054565
     29          6           0        9.309257    3.268769    0.341533
     30          6           0        8.374688    2.108271    0.384051
     31          6           0        8.697005    5.317607   -1.198657
     32          6           0       10.277213    3.327396    1.539078
     33          6           0       11.801779    3.179443    1.216617
     34          7           0        6.721407   -0.438783    0.334842
     35          6           0        8.113778   -0.500936    0.430650
     36          6           0        8.564280   -1.822045    0.232156
     37          6           0        7.411758   -2.593059    0.253980
     38          6           0        6.285831   -1.681121    0.220909
     39          6           0        9.983917   -2.183623    0.149318
     40          6           0        6.837081   -3.969169    0.128285
     41          8           0        7.363640   -5.047990    0.067969
     42          6           0        5.286022   -3.796970    0.118994
     43          6           0        4.730352   -4.550608   -0.974464
     44          8           0        4.458447   -4.107020   -2.049913
     45          8           0        4.199930   -5.717239   -0.570086
     46          6           0        3.318807   -6.447977   -1.449729
     47          6           0       -1.845266   -3.767595   -0.095511
     48          6           0       -3.214793   -2.975247   -0.028221
     49          6           0       -4.105163   -2.561549   -0.981229
     50          6           0       -3.866875   -2.738495   -2.505095
     51          6           0       -5.203773   -1.554386   -0.652502
     52          6           0       -6.622399   -2.187974   -0.760450
     53          6           0       -7.285599   -2.470986    0.528823
     54          6           0       -8.192343   -1.235865    1.002436
     55          6           0       -7.823603   -0.617583    2.345657
     56          6           0       -9.683464   -1.587410    0.790769
     57          6           0      -10.488599   -0.650819   -0.103940
     58          6           0      -11.940331   -0.841568    0.275845
     59          6           0      -12.601020    0.481546    0.705138
     60          6           0      -12.807104    0.510240    2.286830
     61          6           0      -13.791895    0.699003   -0.246101
     62          6           0      -14.397187    2.111973    0.023705
     63          6           0      -15.505643    2.525510   -0.952728
     64          6           0      -16.850141    2.680460   -0.220213
     65          6           0      -18.048974    1.970768   -1.047184
     66          6           0      -17.244519    4.202556    0.058269
     67          1           0        0.857216    1.435007   -0.228243
     68          1           0        5.979990    5.543179   -0.170922
     69          1           0        9.902694    0.679100    0.571961
     70          1           0        2.400177   -3.243039   -0.321693
     71          1           0        0.519809   -1.050384    0.295874
     72          1           0       -0.230795   -1.123261   -1.738172
     73          1           0        0.701088   -2.524700   -2.014069
     74          1           0        1.384337   -0.931184   -2.495554
     75          1           0        1.738473   -1.806761    2.363658
     76          1           0        3.052588   -2.801158    2.097606
     77          1           0        0.717056   -3.600551    2.949481
     78          1           0        1.842570   -4.713232    2.201440
     79          1           0        0.202511    4.496430    0.801359
     80          1           0       -0.003383    3.297417   -0.487450
     81          1           0        0.425269    5.007807   -0.825332
     82          1           0        2.178434    8.281875   -0.665567
     83          1           0        1.340852    7.128115    0.402206
     84          1           0        1.288197    7.094702   -1.476355
     85          1           0        8.271867    5.076061    0.942927
     86          1           0        9.943252    3.121308   -0.533096
     87          1           0        9.655568    5.064664   -1.652215
     88          1           0        8.812877    6.376907   -0.965090
     89          1           0        7.932837    5.197689   -1.965947
     90          1           0       10.224496    2.475306    2.216978
     91          1           0       10.159400    4.183891    2.203089
     92          1           0       12.434109    4.066929    1.208765
     93          1           0       11.850674    2.680553    0.249209
     94          1           0       12.341676    2.470688    1.843861
     95          1           0       10.428253   -1.512589   -0.585755
     96          1           0       10.092863   -3.131515   -0.377081
     97          1           0       10.427229   -2.101207    1.141025
     98          1           0        4.907755   -4.234968    1.042050
     99          1           0        3.999080   -7.214529   -1.820205
    100          1           0        2.853653   -5.931415   -2.289406
    101          1           0        2.462199   -6.907910   -0.957976
    102          1           0       -2.035232   -4.839857   -0.050618
    103          1           0       -1.333534   -3.504419   -1.021785
    104          1           0       -3.426141   -2.506414    0.932891
    105          1           0       -4.149272   -1.876045   -3.108391
    106          1           0       -4.493679   -3.504885   -2.961994
    107          1           0       -2.834871   -3.025831   -2.708356
    108          1           0       -5.097800   -0.788160   -1.420581
    109          1           0       -5.076405   -1.158410    0.355512
    110          1           0       -6.499670   -3.104654   -1.337217
    111          1           0       -7.189855   -1.501864   -1.389316
    112          1           0       -6.387310   -2.650675    1.120088
    113          1           0       -7.844459   -3.391421    0.360513
    114          1           0       -7.957624   -0.391445    0.353404
    115          1           0       -7.229756   -1.303831    2.949752
    116          1           0       -8.675797   -0.304043    2.947972
    117          1           0       -7.229491    0.275654    2.154665
    118          1           0      -10.141042   -1.776568    1.761649
    119          1           0       -9.810643   -2.542513    0.281514
    120          1           0      -10.314666   -0.849039   -1.161369
    121          1           0       -9.991422    0.269950    0.202125
    122          1           0      -12.204700   -1.552847    1.057502
    123          1           0      -12.456441   -1.200175   -0.615417
    124          1           0      -11.823121    1.215745    0.495942
    125          1           0      -12.687233    1.559134    2.560766
    126          1           0      -12.018419    0.046773    2.879983
    127          1           0      -13.816011    0.161316    2.507470
    128          1           0      -14.523956    0.015818    0.182902
    129          1           0      -13.541934    0.439379   -1.274994
    130          1           0      -13.508335    2.721082   -0.139252
    131          1           0      -14.752035    2.241666    1.046462
    132          1           0      -15.633270    1.757917   -1.714819
    133          1           0      -15.242387    3.425678   -1.508001
    134          1           0      -16.723684    2.155073    0.726287
    135          1           0      -18.638947    2.722395   -1.571941
    136          1           0      -18.702082    1.345907   -0.437297
    137          1           0      -17.623869    1.344215   -1.830910
    138          1           0      -16.732912    4.946186   -0.552813
    139          1           0      -16.916921    4.315786    1.092046
    140          1           0      -18.327155    4.324678    0.030793
 ---------------------------------------------------------------------

 SCF Done:  E(RPBE1PBE) =  -3005.32969272     A.U. after   15 cycles

 Excitation energies and oscillator strengths:

 Excited State   1:      Singlet-A      1.8864 eV  657.26 nm  f=0.3691  <S**2>=0.000
     245 -> 248       -0.17195
     246 -> 247        0.69293
     246 <- 247       -0.10686
 This state for optimization and/or second-order correction.
 Total Energy, E(TD-HF/TD-DFT) =  -3005.26036938
 Copying the excited state density for this state as the 1-particle RhoCI density.

 Excited State   2:      Singlet-A      2.2195 eV  558.62 nm  f=0.1581  <S**2>=0.000
     245 -> 247        0.66548
     246 -> 248        0.22742

 Excited State   3:      Singlet-A      2.9693 eV  417.55 nm  f=0.0006  <S**2>=0.000
     243 -> 247        0.18042
     244 -> 247        0.65979

 Excited State   4:      Singlet-A      2.9980 eV  413.56 nm  f=0.0007  <S**2>=0.000
     242 -> 247       -0.12046
     243 -> 247        0.65498
     244 -> 247       -0.18103

 Excited State   5:      Singlet-A      3.0665 eV  404.32 nm  f=0.0032  <S**2>=0.000
     240 -> 247       -0.12418
     242 -> 247        0.65706
     243 -> 247        0.11203
     244 -> 247       -0.10392

 The electronic state is 1-A.
 Alpha  occ. eigenvalues --  -46.92483 -19.27219 -19.24140 -19.22325 -19.19441
 Alpha  occ. eigenvalues --  -19.19191 -19.18240 -14.41515 -14.40708 -14.38961
 Alpha  occ. eigenvalues --  -14.38760 -10.38122 -10.34568 -10.32750 -10.32390
 Alpha  occ. eigenvalues --  -10.30501 -10.28617 -10.28614 -10.28477 -10.27971
 Alpha  occ. eigenvalues --  -10.27309 -10.27282 -10.27201 -10.26973 -10.26661
 Alpha  occ. eigenvalues --  -10.26263 -10.26082 -10.26057 -10.25944 -10.25518
 Alpha  occ. eigenvalues --  -10.25380 -10.25212 -10.25199 -10.25149 -10.25133
 Alpha  occ. eigenvalues --  -10.25115 -10.25101 -10.24810 -10.24716 -10.24369
 Alpha  occ. eigenvalues --  -10.24183 -10.24105 -10.23957 -10.23904 -10.23773
 Alpha  occ. eigenvalues --  -10.23758 -10.23635 -10.23539 -10.23331 -10.23266
 Alpha  occ. eigenvalues --  -10.23046 -10.22995 -10.22957 -10.22926 -10.22666
 Alpha  occ. eigenvalues --  -10.22643 -10.22535 -10.22464 -10.22266 -10.22146
 Alpha  occ. eigenvalues --  -10.22138 -10.22049 -10.21891 -10.21832 -10.21789
 Alpha  occ. eigenvalues --  -10.21508  -3.14431  -1.87291  -1.86783  -1.86664
 Alpha  occ. eigenvalues --   -1.12649  -1.11662  -1.05825  -1.04686  -1.04642
 Alpha  occ. eigenvalues --   -1.02126  -0.99867  -0.98724  -0.97690  -0.96188
 Alpha  occ. eigenvalues --   -0.86731  -0.85082  -0.84177  -0.83796  -0.83585
 Alpha  occ. eigenvalues --   -0.82609  -0.82211  -0.81728  -0.81237  -0.80944
 Alpha  occ. eigenvalues --   -0.80282  -0.79340  -0.78644  -0.77897  -0.77313
 Alpha  occ. eigenvalues --   -0.76621  -0.75970  -0.75051  -0.74906  -0.74066
 Alpha  occ. eigenvalues --   -0.74036  -0.72634  -0.72019  -0.71581  -0.70627
 Alpha  occ. eigenvalues --   -0.70324  -0.69655  -0.69558  -0.68915  -0.68534
 Alpha  occ. eigenvalues --   -0.68002  -0.67629  -0.65685  -0.64525  -0.63890
 Alpha  occ. eigenvalues --   -0.62881  -0.62724  -0.61342  -0.60393  -0.60215
 Alpha  occ. eigenvalues --   -0.59602  -0.59461  -0.59249  -0.58905  -0.58682
 Alpha  occ. eigenvalues --   -0.58178  -0.57470  -0.56899  -0.56252  -0.54715
 Alpha  occ. eigenvalues --   -0.54591  -0.54221  -0.53969  -0.52954  -0.52699
 Alpha  occ. eigenvalues --   -0.51959  -0.51602  -0.50882  -0.50608  -0.50356
 Alpha  occ. eigenvalues --   -0.50109  -0.49397  -0.49182  -0.48804  -0.48525
 Alpha  occ. eigenvalues --   -0.48463  -0.48207  -0.47734  -0.47362  -0.47343
 Alpha  occ. eigenvalues --   -0.47112  -0.46874  -0.46559  -0.46426  -0.46157
 Alpha  occ. eigenvalues --   -0.46056  -0.45946  -0.45865  -0.45551  -0.45442
 Alpha  occ. eigenvalues --   -0.44888  -0.44595  -0.44414  -0.44249  -0.44195
 Alpha  occ. eigenvalues --   -0.44149  -0.43887  -0.43405  -0.43192  -0.43100
 Alpha  occ. eigenvalues --   -0.42756  -0.42584  -0.42529  -0.42279  -0.42215
 Alpha  occ. eigenvalues --   -0.42134  -0.41983  -0.41839  -0.41670  -0.41531
 Alpha  occ. eigenvalues --   -0.41445  -0.41046  -0.40547  -0.40476  -0.40296
 Alpha  occ. eigenvalues --   -0.40167  -0.40141  -0.40014  -0.39637  -0.39601
 Alpha  occ. eigenvalues --   -0.39417  -0.39338  -0.39291  -0.39144  -0.38798
 Alpha  occ. eigenvalues --   -0.38529  -0.38269  -0.38181  -0.38102  -0.38064
 Alpha  occ. eigenvalues --   -0.37889  -0.37649  -0.37454  -0.37189  -0.37081
 Alpha  occ. eigenvalues --   -0.36888  -0.36482  -0.36257  -0.36074  -0.35869
 Alpha  occ. eigenvalues --   -0.35458  -0.35422  -0.35233  -0.35112  -0.35076
 Alpha  occ. eigenvalues --   -0.35019  -0.34559  -0.33726  -0.33651  -0.33467
 Alpha  occ. eigenvalues --   -0.33278  -0.33197  -0.32944  -0.32817  -0.32553
 Alpha  occ. eigenvalues --   -0.32086  -0.32043  -0.31862  -0.31435  -0.31218
 Alpha  occ. eigenvalues --   -0.31144  -0.30160  -0.30054  -0.29937  -0.29302
 Alpha  occ. eigenvalues --   -0.28330  -0.27869  -0.27570  -0.27116  -0.26193
 Alpha  occ. eigenvalues --   -0.25754  -0.25651  -0.25395  -0.25259  -0.20743
 Alpha  occ. eigenvalues --   -0.19019
 Alpha virt. eigenvalues --   -0.11292  -0.04733  -0.03354  -0.01802  -0.01383
 Alpha virt. eigenvalues --   -0.00121   0.00267   0.01312   0.01692   0.03263
 Alpha virt. eigenvalues --    0.03844   0.05041   0.05391   0.05574   0.05984

 Mulliken charges:
               1
     1  Mg   0.952613
     2  C   -0.000868
     3  C   -0.065391
     4  C   -0.018100
     5  C   -0.063903
     6  N   -0.439435
     7  C    0.082130
     8  C   -0.110979
     9  C   -0.127156
    10  C    0.083212
    11  C    0.002604
    12  C    0.006364
    13  C    0.031829
    14  C    0.211773
    15  O   -0.261713
    16  O   -0.360862
    17  N   -0.464916
    18  C    0.168038
    19  C   -0.176543
    20  C   -0.073646
    21  C    0.129812
    22  C    0.055256
    23  C    0.056683
    24  O   -0.238027
    25  C   -0.039044
    26  N   -0.321476
    27  C    0.016292
    28  C   -0.094018
    29  C   -0.058632
    30  C    0.039136
    31  C    0.005689
    32  C   -0.019317
    33  C   -0.102667
    34  N   -0.484410
    35  C    0.138192
    36  C   -0.230667
    37  C   -0.045135
    38  C    0.146220
    39  C    0.085160
    40  C    0.154355
    41  O   -0.186279
    42  C   -0.132862
    43  C    0.270476
    44  O   -0.238438
    45  O   -0.357041
    46  C    0.118911
    47  C    0.220081
    48  C   -0.123212
    49  C   -0.207315
    50  C    0.003927
    51  C   -0.006034
    52  C   -0.068743
    53  C    0.030988
    54  C   -0.205615
    55  C   -0.001988
    56  C   -0.033262
    57  C   -0.038701
    58  C    0.021365
    59  C   -0.248330
    60  C   -0.019042
    61  C   -0.019603
    62  C   -0.068614
    63  C    0.053743
    64  C   -0.268352
    65  C   -0.038737
    66  C   -0.016415
    67  H    0.000134
    68  H    0.022636
    69  H    0.000801
    70  H    0.071986
    71  H    0.047064
    72  H    0.033557
    73  H    0.065364
    74  H    0.055626
    75  H    0.043960
    76  H    0.032338
    77  H    0.051319
    78  H    0.060541
    79  H    0.058151
    80  H    0.048235
    81  H    0.040508
    82  H    0.048729
    83  H    0.058537
    84  H    0.076881
    85  H    0.049682
    86  H    0.052905
    87  H    0.037206
    88  H    0.045416
    89  H    0.056817
    90  H    0.044497
    91  H    0.038868
    92  H    0.050072
    93  H    0.028848
    94  H    0.034801
    95  H    0.040648
    96  H    0.056071
    97  H    0.072741
    98  H    0.083220
    99  H    0.052097
   100  H    0.062628
   101  H    0.058308
   102  H    0.059094
   103  H    0.057478
   104  H    0.030381
   105  H    0.040620
   106  H    0.047769
   107  H    0.041068
   108  H    0.038031
   109  H    0.031129
   110  H    0.026457
   111  H    0.022448
   112  H    0.018689
   113  H    0.035375
   114  H    0.031658
   115  H    0.035298
   116  H    0.029932
   117  H    0.031640
   118  H    0.027527
   119  H    0.020038
   120  H    0.037907
   121  H    0.038205
   122  H    0.027930
   123  H    0.010683
   124  H    0.027210
   125  H    0.034485
   126  H    0.040706
   127  H    0.043374
   128  H    0.022689
   129  H    0.045746
   130  H    0.019858
   131  H    0.035997
   132  H    0.016953
   133  H    0.023691
   134  H    0.040778
   135  H    0.034642
   136  H    0.041893
   137  H    0.024943
   138  H    0.044162
   139  H    0.032362
   140  H    0.040610
 Sum of Mulliken charges =  -0.00000

 Dipole moment (field-independent basis, Debye):
    X=             -4.1229    Y=              2.3322    Z=              2.7977  Tot=              5.5014
 Quadrupole moment (field-independent basis, Debye-Ang):
   XX=           -385.9665   YY=           -431.0318   ZZ=           -400.0847
   XY=             28.1248   XZ=             20.0417   YZ=              0.6929

 Normal termination of Gaussian 16 at Wed May  4 02:10:59 2022.
