 Gaussian 16, Revision A.03,
 Gaussian 16:  ES64L-G16RevA.03 25-Dec-2016

 --------------------------------
 #p wB97XD/Def2SVP td=(nstates=5)
 --------------------------------

 -----------------------------------------------------
 step_1251_chromophore_21 TDDFT with wB97XD functional
 -----------------------------------------------------
 Symbolic Z-matrix:
 Charge =  0 Multiplicity = 1

                         Standard orientation:
 ---------------------------------------------------------------------
 Center     Atomic      Atomic             Coordinates (Angstroms)
 Number     Number       Type             X           Y           Z
 ---------------------------------------------------------------------
      1         12           0        5.340166    1.085400    0.244105
      2          6           0        5.021095   -2.292771    0.051924
      3          6           0        1.943221    1.387301   -0.329083
      4          6           0        5.794851    4.466161   -0.174351
      5          6           0        8.818684    0.752799    0.455968
      6          7           0        3.691389   -0.276236   -0.081406
      7          6           0        3.796508   -1.691729   -0.038139
      8          6           0        2.414417   -2.286309    0.200332
      9          6           0        1.405050   -1.185421   -0.326891
     10          6           0        2.375236    0.085663   -0.236157
     11          6           0        0.801845   -1.471991   -1.750385
     12          6           0        2.071569   -2.584924    1.676817
     13          6           0        1.241131   -3.822029    2.020289
     14          6           0        0.222492   -4.234428    0.857478
     15          8           0        0.540181   -4.839865   -0.152475
     16          8           0       -0.982698   -3.564886    1.040101
     17          7           0        4.033051    2.727724   -0.212523
     18          6           0        2.674376    2.615891   -0.269200
     19          6           0        2.108553    3.908527   -0.245247
     20          6           0        3.171161    4.817969   -0.344058
     21          6           0        4.381296    4.060494   -0.265169
     22          6           0        0.582128    4.157100   -0.162309
     23          6           0        3.154850    6.374379   -0.457444
     24          8           0        4.183506    7.005883   -0.666128
     25          6           0        1.848266    7.249510   -0.554441
     26          7           0        7.089358    2.514227    0.190960
     27          6           0        6.952368    3.779200    0.007714
     28          6           0        8.341952    4.448576    0.054565
     29          6           0        9.309257    3.268769    0.341533
     30          6           0        8.374688    2.108271    0.384051
     31          6           0        8.697005    5.317607   -1.198657
     32          6           0       10.277213    3.327396    1.539078
     33          6           0       11.801779    3.179443    1.216617
     34          7           0        6.721407   -0.438783    0.334842
     35          6           0        8.113778   -0.500936    0.430650
     36          6           0        8.564280   -1.822045    0.232156
     37          6           0        7.411758   -2.593059    0.253980
     38          6           0        6.285831   -1.681121    0.220909
     39          6           0        9.983917   -2.183623    0.149318
     40          6           0        6.837081   -3.969169    0.128285
     41          8           0        7.363640   -5.047990    0.067969
     42          6           0        5.286022   -3.796970    0.118994
     43          6           0        4.730352   -4.550608   -0.974464
     44          8           0        4.458447   -4.107020   -2.049913
     45          8           0        4.199930   -5.717239   -0.570086
     46          6           0        3.318807   -6.447977   -1.449729
     47          6           0       -1.845266   -3.767595   -0.095511
     48          6           0       -3.214793   -2.975247   -0.028221
     49          6           0       -4.105163   -2.561549   -0.981229
     50          6           0       -3.866875   -2.738495   -2.505095
     51          6           0       -5.203773   -1.554386   -0.652502
     52          6           0       -6.622399   -2.187974   -0.760450
     53          6           0       -7.285599   -2.470986    0.528823
     54          6           0       -8.192343   -1.235865    1.002436
     55          6           0       -7.823603   -0.617583    2.345657
     56          6           0       -9.683464   -1.587410    0.790769
     57          6           0      -10.488599   -0.650819   -0.103940
     58          6           0      -11.940331   -0.841568    0.275845
     59          6           0      -12.601020    0.481546    0.705138
     60          6           0      -12.807104    0.510240    2.286830
     61          6           0      -13.791895    0.699003   -0.246101
     62          6           0      -14.397187    2.111973    0.023705
     63          6           0      -15.505643    2.525510   -0.952728
     64          6           0      -16.850141    2.680460   -0.220213
     65          6           0      -18.048974    1.970768   -1.047184
     66          6           0      -17.244519    4.202556    0.058269
     67          1           0        0.857216    1.435007   -0.228243
     68          1           0        5.979990    5.543179   -0.170922
     69          1           0        9.902694    0.679100    0.571961
     70          1           0        2.400177   -3.243039   -0.321693
     71          1           0        0.519809   -1.050384    0.295874
     72          1           0       -0.230795   -1.123261   -1.738172
     73          1           0        0.701088   -2.524700   -2.014069
     74          1           0        1.384337   -0.931184   -2.495554
     75          1           0        1.738473   -1.806761    2.363658
     76          1           0        3.052588   -2.801158    2.097606
     77          1           0        0.717056   -3.600551    2.949481
     78          1           0        1.842570   -4.713232    2.201440
     79          1           0        0.202511    4.496430    0.801359
     80          1           0       -0.003383    3.297417   -0.487450
     81          1           0        0.425269    5.007807   -0.825332
     82          1           0        2.178434    8.281875   -0.665567
     83          1           0        1.340852    7.128115    0.402206
     84          1           0        1.288197    7.094702   -1.476355
     85          1           0        8.271867    5.076061    0.942927
     86          1           0        9.943252    3.121308   -0.533096
     87          1           0        9.655568    5.064664   -1.652215
     88          1           0        8.812877    6.376907   -0.965090
     89          1           0        7.932837    5.197689   -1.965947
     90          1           0       10.224496    2.475306    2.216978
     91          1           0       10.159400    4.183891    2.203089
     92          1           0       12.434109    4.066929    1.208765
     93          1           0       11.850674    2.680553    0.249209
     94          1           0       12.341676    2.470688    1.843861
     95          1           0       10.428253   -1.512589   -0.585755
     96          1           0       10.092863   -3.131515   -0.377081
     97          1           0       10.427229   -2.101207    1.141025
     98          1           0        4.907755   -4.234968    1.042050
     99          1           0        3.999080   -7.214529   -1.820205
    100          1           0        2.853653   -5.931415   -2.289406
    101          1           0        2.462199   -6.907910   -0.957976
    102          1           0       -2.035232   -4.839857   -0.050618
    103          1           0       -1.333534   -3.504419   -1.021785
    104          1           0       -3.426141   -2.506414    0.932891
    105          1           0       -4.149272   -1.876045   -3.108391
    106          1           0       -4.493679   -3.504885   -2.961994
    107          1           0       -2.834871   -3.025831   -2.708356
    108          1           0       -5.097800   -0.788160   -1.420581
    109          1           0       -5.076405   -1.158410    0.355512
    110          1           0       -6.499670   -3.104654   -1.337217
    111          1           0       -7.189855   -1.501864   -1.389316
    112          1           0       -6.387310   -2.650675    1.120088
    113          1           0       -7.844459   -3.391421    0.360513
    114          1           0       -7.957624   -0.391445    0.353404
    115          1           0       -7.229756   -1.303831    2.949752
    116          1           0       -8.675797   -0.304043    2.947972
    117          1           0       -7.229491    0.275654    2.154665
    118          1           0      -10.141042   -1.776568    1.761649
    119          1           0       -9.810643   -2.542513    0.281514
    120          1           0      -10.314666   -0.849039   -1.161369
    121          1           0       -9.991422    0.269950    0.202125
    122          1           0      -12.204700   -1.552847    1.057502
    123          1           0      -12.456441   -1.200175   -0.615417
    124          1           0      -11.823121    1.215745    0.495942
    125          1           0      -12.687233    1.559134    2.560766
    126          1           0      -12.018419    0.046773    2.879983
    127          1           0      -13.816011    0.161316    2.507470
    128          1           0      -14.523956    0.015818    0.182902
    129          1           0      -13.541934    0.439379   -1.274994
    130          1           0      -13.508335    2.721082   -0.139252
    131          1           0      -14.752035    2.241666    1.046462
    132          1           0      -15.633270    1.757917   -1.714819
    133          1           0      -15.242387    3.425678   -1.508001
    134          1           0      -16.723684    2.155073    0.726287
    135          1           0      -18.638947    2.722395   -1.571941
    136          1           0      -18.702082    1.345907   -0.437297
    137          1           0      -17.623869    1.344215   -1.830910
    138          1           0      -16.732912    4.946186   -0.552813
    139          1           0      -16.916921    4.315786    1.092046
    140          1           0      -18.327155    4.324678    0.030793
 ---------------------------------------------------------------------

 SCF Done:  E(RwB97XD) =  -3007.83993069     A.U. after   19 cycles

 Excitation energies and oscillator strengths:

 Excited State   1:      Singlet-A      1.6658 eV  744.28 nm  f=0.3841  <S**2>=0.000
     245 -> 248        0.18512
     246 -> 247        0.68411
     245 <- 248        0.11656
 This state for optimization and/or second-order correction.
 Total Energy, E(TD-HF/TD-DFT) =  -3007.77871258
 Copying the excited state density for this state as the 1-particle RhoCI density.

 Excited State   2:      Singlet-A      2.1463 eV  577.67 nm  f=0.1683  <S**2>=0.000
     245 -> 247        0.65752
     246 -> 248       -0.24605

 Excited State   3:      Singlet-A      3.3214 eV  373.29 nm  f=0.0007  <S**2>=0.000
     243 -> 247        0.12597
     244 -> 247        0.67156
     246 -> 248        0.10287

 Excited State   4:      Singlet-A      3.5617 eV  348.11 nm  f=0.0139  <S**2>=0.000
     241 -> 247       -0.30443
     241 -> 248       -0.10022
     241 -> 249        0.16936
     241 -> 250        0.16268
     243 -> 247        0.49041
     246 -> 248        0.19898

 Excited State   5:      Singlet-A      3.5753 eV  346.78 nm  f=0.0043  <S**2>=0.000
     241 -> 247        0.45755
     241 -> 248        0.12675
     241 -> 249       -0.21373
     241 -> 250       -0.21234
     243 -> 247        0.33969
     244 -> 247       -0.10866
     246 -> 248        0.13516

 The electronic state is 1-A.
 Alpha  occ. eigenvalues --  -46.95426 -19.31745 -19.28671 -19.26940 -19.24222
 Alpha  occ. eigenvalues --  -19.24070 -19.22911 -14.46469 -14.45927 -14.43883
 Alpha  occ. eigenvalues --  -14.43730 -10.44847 -10.41370 -10.39620 -10.39193
 Alpha  occ. eigenvalues --  -10.36985 -10.34965 -10.34872 -10.34682 -10.34372
 Alpha  occ. eigenvalues --  -10.33766 -10.33574 -10.33463 -10.33416 -10.32938
 Alpha  occ. eigenvalues --  -10.32504 -10.32456 -10.32412 -10.32186 -10.32025
 Alpha  occ. eigenvalues --  -10.31617 -10.31609 -10.31575 -10.31465 -10.31462
 Alpha  occ. eigenvalues --  -10.31459 -10.31342 -10.31197 -10.31196 -10.30922
 Alpha  occ. eigenvalues --  -10.30469 -10.30417 -10.30397 -10.30314 -10.30180
 Alpha  occ. eigenvalues --  -10.30165 -10.30135 -10.29914 -10.29758 -10.29484
 Alpha  occ. eigenvalues --  -10.29443 -10.29395 -10.29325 -10.29187 -10.29076
 Alpha  occ. eigenvalues --  -10.29035 -10.28888 -10.28830 -10.28631 -10.28577
 Alpha  occ. eigenvalues --  -10.28521 -10.28470 -10.28254 -10.28245 -10.28156
 Alpha  occ. eigenvalues --  -10.27849  -3.21247  -1.94852  -1.94344  -1.94224
 Alpha  occ. eigenvalues --   -1.19986  -1.19002  -1.13255  -1.12232  -1.11943
 Alpha  occ. eigenvalues --   -1.09442  -1.07270  -1.06021  -1.05105  -1.03570
 Alpha  occ. eigenvalues --   -0.94307  -0.92749  -0.91838  -0.91417  -0.91167
 Alpha  occ. eigenvalues --   -0.90278  -0.89776  -0.89349  -0.88901  -0.88542
 Alpha  occ. eigenvalues --   -0.87978  -0.86983  -0.86290  -0.85498  -0.84932
 Alpha  occ. eigenvalues --   -0.84273  -0.83589  -0.82654  -0.82539  -0.81879
 Alpha  occ. eigenvalues --   -0.81724  -0.80258  -0.79672  -0.79190  -0.78300
 Alpha  occ. eigenvalues --   -0.77916  -0.77342  -0.77155  -0.76626  -0.76167
 Alpha  occ. eigenvalues --   -0.75589  -0.75193  -0.73215  -0.72127  -0.71449
 Alpha  occ. eigenvalues --   -0.70484  -0.70283  -0.68907  -0.67920  -0.67818
 Alpha  occ. eigenvalues --   -0.67111  -0.66949  -0.66858  -0.66336  -0.66159
 Alpha  occ. eigenvalues --   -0.65803  -0.65134  -0.64542  -0.63614  -0.62206
 Alpha  occ. eigenvalues --   -0.62008  -0.61700  -0.61432  -0.60327  -0.60168
 Alpha  occ. eigenvalues --   -0.59328  -0.59049  -0.58271  -0.58004  -0.57751
 Alpha  occ. eigenvalues --   -0.57505  -0.56773  -0.56613  -0.56197  -0.55987
 Alpha  occ. eigenvalues --   -0.55877  -0.55524  -0.55116  -0.54762  -0.54664
 Alpha  occ. eigenvalues --   -0.54460  -0.54276  -0.54054  -0.53808  -0.53567
 Alpha  occ. eigenvalues --   -0.53436  -0.53307  -0.53200  -0.52884  -0.52703
 Alpha  occ. eigenvalues --   -0.52171  -0.51932  -0.51738  -0.51649  -0.51565
 Alpha  occ. eigenvalues --   -0.51404  -0.51224  -0.50647  -0.50506  -0.50461
 Alpha  occ. eigenvalues --   -0.50137  -0.49850  -0.49834  -0.49532  -0.49500
 Alpha  occ. eigenvalues --   -0.49387  -0.49225  -0.49127  -0.48935  -0.48786
 Alpha  occ. eigenvalues --   -0.48711  -0.48369  -0.47765  -0.47579  -0.47558
 Alpha  occ. eigenvalues --   -0.47436  -0.47278  -0.47199  -0.46834  -0.46760
 Alpha  occ. eigenvalues --   -0.46536  -0.46495  -0.46416  -0.46302  -0.45968
 Alpha  occ. eigenvalues --   -0.45655  -0.45357  -0.45301  -0.45267  -0.45249
 Alpha  occ. eigenvalues --   -0.45049  -0.44716  -0.44601  -0.44341  -0.44204
 Alpha  occ. eigenvalues --   -0.44044  -0.43523  -0.43262  -0.43082  -0.43001
 Alpha  occ. eigenvalues --   -0.42516  -0.42454  -0.42348  -0.42123  -0.42084
 Alpha  occ. eigenvalues --   -0.42050  -0.41622  -0.40750  -0.40659  -0.40541
 Alpha  occ. eigenvalues --   -0.40318  -0.40203  -0.39931  -0.39853  -0.39486
 Alpha  occ. eigenvalues --   -0.39134  -0.39042  -0.38899  -0.38421  -0.38144
 Alpha  occ. eigenvalues --   -0.38098  -0.37183  -0.37105  -0.36887  -0.36122
 Alpha  occ. eigenvalues --   -0.35203  -0.34789  -0.34417  -0.33693  -0.32955
 Alpha  occ. eigenvalues --   -0.32565  -0.32480  -0.32412  -0.31932  -0.25676
 Alpha  occ. eigenvalues --   -0.23252
 Alpha virt. eigenvalues --   -0.07254   0.00761   0.02989   0.04721   0.05444
 Alpha virt. eigenvalues --    0.05883   0.06954   0.08017   0.08480   0.09701
 Alpha virt. eigenvalues --    0.10273   0.11806   0.12131   0.12362   0.12769

 Mulliken charges:
               1
     1  Mg   0.944351
     2  C    0.002319
     3  C   -0.084184
     4  C   -0.032846
     5  C   -0.074460
     6  N   -0.412123
     7  C    0.044781
     8  C   -0.068047
     9  C   -0.104303
    10  C    0.070047
    11  C    0.011975
    12  C    0.011824
    13  C    0.048303
    14  C    0.200080
    15  O   -0.258736
    16  O   -0.360151
    17  N   -0.432828
    18  C    0.162963
    19  C   -0.169213
    20  C   -0.060122
    21  C    0.114966
    22  C    0.070064
    23  C    0.049062
    24  O   -0.233756
    25  C   -0.027814
    26  N   -0.280966
    27  C    0.001830
    28  C   -0.070254
    29  C   -0.027062
    30  C    0.024489
    31  C    0.016587
    32  C   -0.010090
    33  C   -0.084958
    34  N   -0.445972
    35  C    0.123755
    36  C   -0.219908
    37  C   -0.044848
    38  C    0.128586
    39  C    0.094760
    40  C    0.134508
    41  O   -0.177557
    42  C   -0.091887
    43  C    0.243272
    44  O   -0.232131
    45  O   -0.353541
    46  C    0.132330
    47  C    0.244004
    48  C   -0.131094
    49  C   -0.195485
    50  C    0.015389
    51  C    0.017570
    52  C   -0.053728
    53  C    0.051975
    54  C   -0.174319
    55  C    0.008436
    56  C   -0.020386
    57  C   -0.016082
    58  C    0.034646
    59  C   -0.220264
    60  C   -0.006034
    61  C   -0.000164
    62  C   -0.046357
    63  C    0.064266
    64  C   -0.240265
    65  C   -0.023507
    66  C   -0.003965
    67  H   -0.008089
    68  H    0.018233
    69  H   -0.006565
    70  H    0.048445
    71  H    0.037536
    72  H    0.027039
    73  H    0.059441
    74  H    0.051289
    75  H    0.038224
    76  H    0.020495
    77  H    0.046995
    78  H    0.055738
    79  H    0.054338
    80  H    0.044532
    81  H    0.031437
    82  H    0.047241
    83  H    0.054217
    84  H    0.073770
    85  H    0.039258
    86  H    0.037862
    87  H    0.031797
    88  H    0.040489
    89  H    0.050501
    90  H    0.035248
    91  H    0.032593
    92  H    0.044772
    93  H    0.020453
    94  H    0.029293
    95  H    0.034358
    96  H    0.052519
    97  H    0.068767
    98  H    0.075696
    99  H    0.048176
   100  H    0.059425
   101  H    0.055387
   102  H    0.053635
   103  H    0.041460
   104  H    0.026374
   105  H    0.035690
   106  H    0.042350
   107  H    0.035459
   108  H    0.029778
   109  H    0.020544
   110  H    0.017094
   111  H    0.012840
   112  H    0.004605
   113  H    0.028192
   114  H    0.015487
   115  H    0.029552
   116  H    0.024217
   117  H    0.026451
   118  H    0.016430
   119  H    0.009410
   120  H    0.031839
   121  H    0.024188
   122  H    0.018132
   123  H    0.001692
   124  H    0.011187
   125  H    0.028092
   126  H    0.034461
   127  H    0.037225
   128  H    0.009259
   129  H    0.038413
   130  H    0.009998
   131  H    0.024593
   132  H    0.006000
   133  H    0.016569
   134  H    0.028529
   135  H    0.027768
   136  H    0.036853
   137  H    0.017950
   138  H    0.038716
   139  H    0.025703
   140  H    0.034622
 Sum of Mulliken charges =  -0.00000

 Dipole moment (field-independent basis, Debye):
    X=             -4.2786    Y=              2.5568    Z=              2.8195  Tot=              5.7266
 Quadrupole moment (field-independent basis, Debye-Ang):
   XX=           -386.8478   YY=           -429.2724   ZZ=           -399.7436
   XY=             28.0750   XZ=             20.1677   YZ=              0.4891

 Normal termination of Gaussian 16 at Wed May  4 02:38:18 2022.
