 Gaussian 16, Revision A.03,
 Gaussian 16:  ES64L-G16RevA.03 25-Dec-2016

 --------------------
 #p ZINDO=(nstates=5)
 --------------------

 ------------------------------
 step_1251_chromophore_21 ZINDO
 ------------------------------
 Symbolic Z-matrix:
 Charge =  0 Multiplicity = 1

                         Standard orientation:
 ---------------------------------------------------------------------
 Center     Atomic      Atomic             Coordinates (Angstroms)
 Number     Number       Type             X           Y           Z
 ---------------------------------------------------------------------
      1         12           0        5.340166    1.085400    0.244105
      2          6           0        5.021095   -2.292771    0.051924
      3          6           0        1.943221    1.387301   -0.329083
      4          6           0        5.794851    4.466161   -0.174351
      5          6           0        8.818684    0.752799    0.455968
      6          7           0        3.691389   -0.276236   -0.081406
      7          6           0        3.796508   -1.691729   -0.038139
      8          6           0        2.414417   -2.286309    0.200332
      9          6           0        1.405050   -1.185421   -0.326891
     10          6           0        2.375236    0.085663   -0.236157
     11          6           0        0.801845   -1.471991   -1.750385
     12          6           0        2.071569   -2.584924    1.676817
     13          6           0        1.241131   -3.822029    2.020289
     14          6           0        0.222492   -4.234428    0.857478
     15          8           0        0.540181   -4.839865   -0.152475
     16          8           0       -0.982698   -3.564886    1.040101
     17          7           0        4.033051    2.727724   -0.212523
     18          6           0        2.674376    2.615891   -0.269200
     19          6           0        2.108553    3.908527   -0.245247
     20          6           0        3.171161    4.817969   -0.344058
     21          6           0        4.381296    4.060494   -0.265169
     22          6           0        0.582128    4.157100   -0.162309
     23          6           0        3.154850    6.374379   -0.457444
     24          8           0        4.183506    7.005883   -0.666128
     25          6           0        1.848266    7.249510   -0.554441
     26          7           0        7.089358    2.514227    0.190960
     27          6           0        6.952368    3.779200    0.007714
     28          6           0        8.341952    4.448576    0.054565
     29          6           0        9.309257    3.268769    0.341533
     30          6           0        8.374688    2.108271    0.384051
     31          6           0        8.697005    5.317607   -1.198657
     32          6           0       10.277213    3.327396    1.539078
     33          6           0       11.801779    3.179443    1.216617
     34          7           0        6.721407   -0.438783    0.334842
     35          6           0        8.113778   -0.500936    0.430650
     36          6           0        8.564280   -1.822045    0.232156
     37          6           0        7.411758   -2.593059    0.253980
     38          6           0        6.285831   -1.681121    0.220909
     39          6           0        9.983917   -2.183623    0.149318
     40          6           0        6.837081   -3.969169    0.128285
     41          8           0        7.363640   -5.047990    0.067969
     42          6           0        5.286022   -3.796970    0.118994
     43          6           0        4.730352   -4.550608   -0.974464
     44          8           0        4.458447   -4.107020   -2.049913
     45          8           0        4.199930   -5.717239   -0.570086
     46          6           0        3.318807   -6.447977   -1.449729
     47          6           0       -1.845266   -3.767595   -0.095511
     48          6           0       -3.214793   -2.975247   -0.028221
     49          6           0       -4.105163   -2.561549   -0.981229
     50          6           0       -3.866875   -2.738495   -2.505095
     51          6           0       -5.203773   -1.554386   -0.652502
     52          6           0       -6.622399   -2.187974   -0.760450
     53          6           0       -7.285599   -2.470986    0.528823
     54          6           0       -8.192343   -1.235865    1.002436
     55          6           0       -7.823603   -0.617583    2.345657
     56          6           0       -9.683464   -1.587410    0.790769
     57          6           0      -10.488599   -0.650819   -0.103940
     58          6           0      -11.940331   -0.841568    0.275845
     59          6           0      -12.601020    0.481546    0.705138
     60          6           0      -12.807104    0.510240    2.286830
     61          6           0      -13.791895    0.699003   -0.246101
     62          6           0      -14.397187    2.111973    0.023705
     63          6           0      -15.505643    2.525510   -0.952728
     64          6           0      -16.850141    2.680460   -0.220213
     65          6           0      -18.048974    1.970768   -1.047184
     66          6           0      -17.244519    4.202556    0.058269
     67          1           0        0.857216    1.435007   -0.228243
     68          1           0        5.979990    5.543179   -0.170922
     69          1           0        9.902694    0.679100    0.571961
     70          1           0        2.400177   -3.243039   -0.321693
     71          1           0        0.519809   -1.050384    0.295874
     72          1           0       -0.230795   -1.123261   -1.738172
     73          1           0        0.701088   -2.524700   -2.014069
     74          1           0        1.384337   -0.931184   -2.495554
     75          1           0        1.738473   -1.806761    2.363658
     76          1           0        3.052588   -2.801158    2.097606
     77          1           0        0.717056   -3.600551    2.949481
     78          1           0        1.842570   -4.713232    2.201440
     79          1           0        0.202511    4.496430    0.801359
     80          1           0       -0.003383    3.297417   -0.487450
     81          1           0        0.425269    5.007807   -0.825332
     82          1           0        2.178434    8.281875   -0.665567
     83          1           0        1.340852    7.128115    0.402206
     84          1           0        1.288197    7.094702   -1.476355
     85          1           0        8.271867    5.076061    0.942927
     86          1           0        9.943252    3.121308   -0.533096
     87          1           0        9.655568    5.064664   -1.652215
     88          1           0        8.812877    6.376907   -0.965090
     89          1           0        7.932837    5.197689   -1.965947
     90          1           0       10.224496    2.475306    2.216978
     91          1           0       10.159400    4.183891    2.203089
     92          1           0       12.434109    4.066929    1.208765
     93          1           0       11.850674    2.680553    0.249209
     94          1           0       12.341676    2.470688    1.843861
     95          1           0       10.428253   -1.512589   -0.585755
     96          1           0       10.092863   -3.131515   -0.377081
     97          1           0       10.427229   -2.101207    1.141025
     98          1           0        4.907755   -4.234968    1.042050
     99          1           0        3.999080   -7.214529   -1.820205
    100          1           0        2.853653   -5.931415   -2.289406
    101          1           0        2.462199   -6.907910   -0.957976
    102          1           0       -2.035232   -4.839857   -0.050618
    103          1           0       -1.333534   -3.504419   -1.021785
    104          1           0       -3.426141   -2.506414    0.932891
    105          1           0       -4.149272   -1.876045   -3.108391
    106          1           0       -4.493679   -3.504885   -2.961994
    107          1           0       -2.834871   -3.025831   -2.708356
    108          1           0       -5.097800   -0.788160   -1.420581
    109          1           0       -5.076405   -1.158410    0.355512
    110          1           0       -6.499670   -3.104654   -1.337217
    111          1           0       -7.189855   -1.501864   -1.389316
    112          1           0       -6.387310   -2.650675    1.120088
    113          1           0       -7.844459   -3.391421    0.360513
    114          1           0       -7.957624   -0.391445    0.353404
    115          1           0       -7.229756   -1.303831    2.949752
    116          1           0       -8.675797   -0.304043    2.947972
    117          1           0       -7.229491    0.275654    2.154665
    118          1           0      -10.141042   -1.776568    1.761649
    119          1           0       -9.810643   -2.542513    0.281514
    120          1           0      -10.314666   -0.849039   -1.161369
    121          1           0       -9.991422    0.269950    0.202125
    122          1           0      -12.204700   -1.552847    1.057502
    123          1           0      -12.456441   -1.200175   -0.615417
    124          1           0      -11.823121    1.215745    0.495942
    125          1           0      -12.687233    1.559134    2.560766
    126          1           0      -12.018419    0.046773    2.879983
    127          1           0      -13.816011    0.161316    2.507470
    128          1           0      -14.523956    0.015818    0.182902
    129          1           0      -13.541934    0.439379   -1.274994
    130          1           0      -13.508335    2.721082   -0.139252
    131          1           0      -14.752035    2.241666    1.046462
    132          1           0      -15.633270    1.757917   -1.714819
    133          1           0      -15.242387    3.425678   -1.508001
    134          1           0      -16.723684    2.155073    0.726287
    135          1           0      -18.638947    2.722395   -1.571941
    136          1           0      -18.702082    1.345907   -0.437297
    137          1           0      -17.623869    1.344215   -1.830910
    138          1           0      -16.732912    4.946186   -0.552813
    139          1           0      -16.916921    4.315786    1.092046
    140          1           0      -18.327155    4.324678    0.030793
 ---------------------------------------------------------------------

 SCF Done:  E(RZINDO/S) =  -474.322551435     A.U. after   19 cycles

 Excitation energies and oscillator strengths:

 Excited State   1:      Singlet-A      1.2557 eV  987.34 nm  f=0.6226  <S**2>=0.000
     175 ->178         0.19155
     176 ->177         0.66340
 This state for optimization and/or second-order correction.
 Total Energy, E(CIS/TDA) =  -474.276403993
 Copying the excited state density for this state as the 1-particle RhoCI density.

 Excited State   2:      Singlet-A      1.9616 eV  632.04 nm  f=0.1145  <S**2>=0.000
     175 ->177         0.58648
     176 ->178        -0.36869

 Excited State   3:      Singlet-A      2.9196 eV  424.67 nm  f=0.0023  <S**2>=0.000
     168 ->177        -0.21728
     168 ->179         0.26407
     168 ->181         0.32767
     168 ->186         0.12484
     168 ->187        -0.10931
     169 ->177         0.18466
     169 ->179        -0.20857
     169 ->181        -0.26445

 Excited State   4:      Singlet-A      3.0832 eV  402.13 nm  f=0.0206  <S**2>=0.000
     168 ->177         0.18196
     168 ->179         0.23858
     168 ->181        -0.17212
     168 ->186         0.15486
     169 ->177         0.22323
     169 ->179         0.28886
     169 ->181        -0.18854
     169 ->186         0.18484
     172 ->177        -0.10295
     173 ->177         0.12551

 Excited State   5:      Singlet-A      3.1110 eV  398.54 nm  f=0.9516  <S**2>=0.000
     171 ->177         0.11033
     172 ->177         0.10049
     175 ->177         0.31787
     176 ->178         0.54372
     176 ->179         0.17239

 The electronic state is 1-A.
 Alpha  occ. eigenvalues --   -1.84884  -1.82185  -1.79866  -1.75258  -1.74419
 Alpha  occ. eigenvalues --   -1.70136  -1.66809  -1.61619  -1.59453  -1.57829
 Alpha  occ. eigenvalues --   -1.55296  -1.50324  -1.49400  -1.48462  -1.47577
 Alpha  occ. eigenvalues --   -1.43524  -1.42817  -1.38925  -1.38791  -1.37338
 Alpha  occ. eigenvalues --   -1.35813  -1.34382  -1.32222  -1.31257  -1.28256
 Alpha  occ. eigenvalues --   -1.26580  -1.24975  -1.20061  -1.19566  -1.17831
 Alpha  occ. eigenvalues --   -1.17681  -1.16216  -1.15130  -1.14689  -1.14315
 Alpha  occ. eigenvalues --   -1.12376  -1.10120  -1.09637  -1.05366  -1.03738
 Alpha  occ. eigenvalues --   -1.03360  -1.02132  -0.98583  -0.97471  -0.96676
 Alpha  occ. eigenvalues --   -0.95963  -0.94706  -0.94432  -0.92927  -0.91397
 Alpha  occ. eigenvalues --   -0.90543  -0.90127  -0.88934  -0.88452  -0.87123
 Alpha  occ. eigenvalues --   -0.85664  -0.83729  -0.83630  -0.82347  -0.80499
 Alpha  occ. eigenvalues --   -0.79979  -0.79272  -0.77856  -0.76945  -0.76416
 Alpha  occ. eigenvalues --   -0.75538  -0.74390  -0.74162  -0.73561  -0.73229
 Alpha  occ. eigenvalues --   -0.72244  -0.72003  -0.71174  -0.70628  -0.70415
 Alpha  occ. eigenvalues --   -0.70089  -0.68909  -0.68523  -0.68208  -0.67915
 Alpha  occ. eigenvalues --   -0.67395  -0.67083  -0.66784  -0.66024  -0.65858
 Alpha  occ. eigenvalues --   -0.65758  -0.64974  -0.64595  -0.64306  -0.63704
 Alpha  occ. eigenvalues --   -0.63158  -0.62869  -0.62691  -0.62398  -0.61439
 Alpha  occ. eigenvalues --   -0.61036  -0.60815  -0.60591  -0.60142  -0.59937
 Alpha  occ. eigenvalues --   -0.59711  -0.59224  -0.59039  -0.58840  -0.58071
 Alpha  occ. eigenvalues --   -0.58047  -0.57971  -0.57222  -0.56869  -0.56296
 Alpha  occ. eigenvalues --   -0.56195  -0.55617  -0.55267  -0.55020  -0.53868
 Alpha  occ. eigenvalues --   -0.53642  -0.53536  -0.53448  -0.52992  -0.52619
 Alpha  occ. eigenvalues --   -0.52502  -0.52238  -0.51773  -0.51529  -0.51386
 Alpha  occ. eigenvalues --   -0.51184  -0.50717  -0.50215  -0.50124  -0.50024
 Alpha  occ. eigenvalues --   -0.49717  -0.49533  -0.49169  -0.48853  -0.48706
 Alpha  occ. eigenvalues --   -0.48180  -0.48075  -0.47966  -0.47767  -0.47626
 Alpha  occ. eigenvalues --   -0.47384  -0.47104  -0.47055  -0.46961  -0.46617
 Alpha  occ. eigenvalues --   -0.46204  -0.46003  -0.45911  -0.45589  -0.45335
 Alpha  occ. eigenvalues --   -0.45172  -0.44735  -0.44660  -0.44343  -0.44297
 Alpha  occ. eigenvalues --   -0.43998  -0.43613  -0.42897  -0.42848  -0.42194
 Alpha  occ. eigenvalues --   -0.42049  -0.40412  -0.39300  -0.39210  -0.38351
 Alpha  occ. eigenvalues --   -0.37355  -0.36702  -0.35136  -0.34931  -0.34348
 Alpha  occ. eigenvalues --   -0.33327  -0.32802  -0.32567  -0.32383  -0.26451
 Alpha  occ. eigenvalues --   -0.22025
 Alpha virt. eigenvalues --   -0.08729  -0.01470   0.00096   0.00901   0.01672
 Alpha virt. eigenvalues --    0.02373   0.03192   0.03260   0.03691   0.05006
 Alpha virt. eigenvalues --    0.06570   0.07097   0.07451   0.07902   0.08207

 Mulliken charges:
               1
     1  Mg   0.424558
     2  C   -0.039468
     3  C   -0.089933
     4  C   -0.051485
     5  C   -0.055451
     6  N   -0.311134
     7  C    0.128300
     8  C    0.020475
     9  C   -0.001182
    10  C    0.135284
    11  C   -0.052122
    12  C   -0.018318
    13  C    0.008256
    14  C    0.456147
    15  O   -0.503693
    16  O   -0.266172
    17  N   -0.327227
    18  C    0.122605
    19  C   -0.001748
    20  C   -0.026920
    21  C    0.120912
    22  C   -0.050225
    23  C    0.308392
    24  O   -0.513099
    25  C   -0.033651
    26  N   -0.247011
    27  C    0.146729
    28  C    0.004044
    29  C    0.015071
    30  C    0.109475
    31  C   -0.051245
    32  C   -0.029557
    33  C   -0.065693
    34  N   -0.313626
    35  C    0.069011
    36  C    0.059260
    37  C   -0.072870
    38  C    0.129541
    39  C   -0.038619
    40  C    0.334635
    41  O   -0.506223
    42  C    0.056412
    43  C    0.500921
    44  O   -0.528124
    45  O   -0.269128
    46  C    0.076378
    47  C    0.107043
    48  C   -0.100080
    49  C   -0.009030
    50  C   -0.048041
    51  C   -0.022228
    52  C   -0.027906
    53  C   -0.036446
    54  C   -0.014658
    55  C   -0.052705
    56  C   -0.037181
    57  C   -0.033288
    58  C   -0.036750
    59  C   -0.026121
    60  C   -0.059617
    61  C   -0.032407
    62  C   -0.042839
    63  C   -0.033540
    64  C   -0.020222
    65  C   -0.068167
    66  C   -0.062041
    67  H    0.019326
    68  H    0.038725
    69  H    0.020097
    70  H    0.047978
    71  H    0.029470
    72  H    0.011754
    73  H    0.033596
    74  H    0.029232
    75  H    0.033723
    76  H    0.006367
    77  H    0.031898
    78  H    0.039157
    79  H    0.031554
    80  H    0.030395
    81  H    0.020128
    82  H    0.032704
    83  H    0.036169
    84  H    0.045397
    85  H    0.029714
    86  H    0.032674
    87  H    0.017519
    88  H    0.022507
    89  H    0.028649
    90  H    0.021331
    91  H    0.022275
    92  H    0.023806
    93  H    0.012808
    94  H    0.015308
    95  H    0.024524
    96  H    0.033029
    97  H    0.043983
    98  H    0.053662
    99  H    0.033321
   100  H    0.050983
   101  H    0.036960
   102  H    0.048466
   103  H    0.054511
   104  H    0.025109
   105  H    0.025275
   106  H    0.024638
   107  H    0.023003
   108  H    0.024003
   109  H    0.024521
   110  H    0.013368
   111  H    0.011529
   112  H    0.025300
   113  H    0.023967
   114  H    0.016271
   115  H    0.017165
   116  H    0.018711
   117  H    0.014871
   118  H    0.019980
   119  H    0.007516
   120  H    0.025315
   121  H    0.025852
   122  H    0.023348
   123  H    0.007922
   124  H    0.013052
   125  H    0.009720
   126  H    0.027149
   127  H    0.027277
   128  H    0.013879
   129  H    0.039302
   130  H    0.010821
   131  H    0.030608
   132  H    0.015917
   133  H    0.018722
   134  H    0.025749
   135  H    0.019095
   136  H    0.021845
   137  H    0.015086
   138  H    0.029384
   139  H    0.011929
   140  H    0.022842
 Sum of Mulliken charges =  -0.00000

 Dipole moment (field-independent basis, Debye):
    X=             -4.7722    Y=              3.0590    Z=              5.1267  Tot=              7.6430
 N-N= 4.258406805352D+03 E-N= 0.000000000000D+00  KE=-9.191501180734D+03
 Leave Link  601 at Wed May  4 02:52:37 2022, MaxMem=  6710886400 cpu:               0.8 elap:               0.1
 (Enter /sw/apps/gaussian-16.0/g16/l9999.exe)
 1\1\GINC-BP1-COMPUTE123\SP\RZINDO CIS\STO-3G\C55H74Mg1N4O6\OF15641\04-
 May-2022\0\\#p ZINDO=(nstates=5)\\step_1251_chromophore_21 ZINDO\\0,1\
 Mg,0,16.028,52.856,25.664\C,0,17.622,51.606,28.393\C,0,13.254,53.478,2
 7.633\C,0,14.248,53.524,22.801\C,0,18.711,51.878,23.639\N,0,15.509,52.
 591,27.747\C,0,16.398,52.105,28.742\C,0,15.888,52.527,30.114\C,0,14.33
 2,52.747,29.916\C,0,14.327,52.977,28.331\C,0,13.429,51.566,30.428\C,0,
 16.492,53.837,30.667\C,0,16.772,53.962,32.165\C,0,15.772,53.094,33.063

 Normal termination of Gaussian 16 at Wed May  4 02:52:37 2022.
