 Gaussian 16, Revision A.03,
 Gaussian 16:  ES64L-G16RevA.03 25-Dec-2016

 ------------------------------
 #p blyp/Def2SVP td=(nstates=5)
 ------------------------------

 --------------------------------------------------
 step_301_chromophore_12 TDDFT with blyp functional
 --------------------------------------------------
 Symbolic Z-matrix:
 Charge =  0 Multiplicity = 1

                         Standard orientation:
 ---------------------------------------------------------------------
 Center     Atomic      Atomic             Coordinates (Angstroms)
 Number     Number       Type             X           Y           Z
 ---------------------------------------------------------------------
      1         12           0       -4.111902    0.155459   -0.246319
      2          6           0       -3.006695   -2.766193    0.879217
      3          6           0       -0.921825    1.222051   -1.019803
      4          6           0       -5.330469    3.221300   -1.360321
      5          6           0       -7.448170   -0.803550    0.693392
      6          7           0       -2.140814   -0.592908    0.087586
      7          6           0       -1.926377   -1.942255    0.439915
      8          6           0       -0.458447   -2.303213    0.189077
      9          6           0        0.197316   -0.928191   -0.030955
     10          6           0       -1.041194   -0.042881   -0.435152
     11          6           0        0.804533   -0.215413    1.127315
     12          6           0       -0.089646   -3.469915   -0.832717
     13          6           0        1.280879   -4.086785   -0.656153
     14          6           0        2.166519   -4.149761   -1.864441
     15          8           0        1.902383   -4.555585   -2.984313
     16          8           0        3.462390   -3.731456   -1.627178
     17          7           0       -3.227667    2.004482   -1.031248
     18          6           0       -1.857360    2.194325   -1.285156
     19          6           0       -1.647303    3.486375   -1.827555
     20          6           0       -2.875977    4.147390   -1.853246
     21          6           0       -3.909370    3.092083   -1.465236
     22          6           0       -0.252944    4.085065   -2.243436
     23          6           0       -3.216521    5.531550   -2.337370
     24          8           0       -4.368148    5.803670   -2.545111
     25          6           0       -2.224090    6.619696   -2.679720
     26          7           0       -6.065317    1.123612   -0.233517
     27          6           0       -6.293698    2.389884   -0.821943
     28          6           0       -7.799538    2.702866   -0.911680
     29          6           0       -8.424443    1.316753   -0.421120
     30          6           0       -7.291088    0.532417    0.157627
     31          6           0       -8.147835    3.893538   -0.027715
     32          6           0       -9.153599    0.525304   -1.494662
     33          6           0      -10.034471    1.263209   -2.501560
     34          7           0       -5.071981   -1.355997    0.735855
     35          6           0       -6.337971   -1.692737    0.977297
     36          6           0       -6.411769   -2.925272    1.594270
     37          6           0       -5.123517   -3.404610    1.557814
     38          6           0       -4.344670   -2.423499    0.977728
     39          6           0       -7.616936   -3.674772    2.009472
     40          6           0       -4.293676   -4.546658    1.792806
     41          8           0       -4.577598   -5.595811    2.305354
     42          6           0       -2.914611   -4.204089    1.328613
     43          6           0       -1.853738   -4.440514    2.318151
     44          8           0       -1.613040   -3.745322    3.305159
     45          8           0       -1.077613   -5.505355    1.898938
     46          6           0       -0.011229   -6.040189    2.716004
     47          6           0        4.549841   -4.175117   -2.466306
     48          6           0        5.872694   -4.132277   -1.801838
     49          6           0        7.052124   -3.667336   -2.271286
     50          6           0        7.356268   -3.517800   -3.833267
     51          6           0        8.202478   -3.430566   -1.284831
     52          6           0        9.120770   -2.274424   -1.820059
     53          6           0        9.890902   -1.508834   -0.622564
     54          6           0       10.046992    0.051330   -0.868684
     55          6           0       11.242136    0.383467   -1.861510
     56          6           0       10.154985    0.927734    0.422631
     57          6           0        9.123278    2.087478    0.338804
     58          6           0        8.547123    2.317260    1.758818
     59          6           0        7.595785    3.543456    1.712725
     60          6           0        8.292171    4.860877    2.112881
     61          6           0        6.290903    3.303821    2.554111
     62          6           0        5.242250    4.375519    2.086666
     63          6           0        4.333912    4.826116    3.292225
     64          6           0        2.890304    5.031265    2.809737
     65          6           0        2.559334    6.502941    3.275191
     66          6           0        1.799072    3.945378    3.296456
     67          1           0        0.112884    1.405480   -1.314971
     68          1           0       -5.813230    4.148356   -1.676679
     69          1           0       -8.442361   -1.216983    0.875259
     70          1           0       -0.089636   -2.664842    1.148799
     71          1           0        0.803146   -0.863170   -0.934325
     72          1           0        0.089782    0.424930    1.642757
     73          1           0        1.662489    0.405586    0.864884
     74          1           0        1.139523   -0.976554    1.832478
     75          1           0       -0.162541   -3.094040   -1.853536
     76          1           0       -0.999484   -4.069917   -0.797527
     77          1           0        1.060173   -5.108033   -0.345818
     78          1           0        1.621018   -3.499984    0.196855
     79          1           0        0.008320    4.956157   -1.643399
     80          1           0       -0.339306    4.255308   -3.316095
     81          1           0        0.624530    3.439966   -2.194976
     82          1           0       -1.485864    6.854912   -1.913839
     83          1           0       -2.877002    7.481577   -2.816342
     84          1           0       -1.681484    6.364241   -3.590840
     85          1           0       -7.973616    2.888198   -1.972040
     86          1           0       -9.077132    1.581591    0.410755
     87          1           0       -8.518399    3.608365    0.956675
     88          1           0       -8.908579    4.499207   -0.519561
     89          1           0       -7.284362    4.544180    0.108009
     90          1           0       -9.731700   -0.259023   -1.005361
     91          1           0       -8.412098    0.080000   -2.157390
     92          1           0       -9.653433    1.205996   -3.520763
     93          1           0      -10.100359    2.342906   -2.361248
     94          1           0      -11.032433    0.830464   -2.559759
     95          1           0       -8.502656   -3.050573    2.132992
     96          1           0       -7.244605   -4.253516    2.854516
     97          1           0       -7.722251   -4.470080    1.271265
     98          1           0       -2.748297   -4.844005    0.461002
     99          1           0        0.984665   -5.784157    2.354713
    100          1           0       -0.118119   -7.125516    2.706566
    101          1           0       -0.131156   -5.711076    3.748145
    102          1           0        4.546350   -3.390844   -3.223855
    103          1           0        4.438885   -5.166821   -2.905008
    104          1           0        5.828885   -4.212186   -0.715611
    105          1           0        8.426074   -3.723686   -3.873964
    106          1           0        7.108095   -2.539184   -4.243364
    107          1           0        6.715649   -4.183284   -4.412802
    108          1           0        8.734395   -4.350315   -1.040801
    109          1           0        7.713145   -2.949911   -0.437860
    110          1           0        8.486441   -1.581243   -2.372387
    111          1           0        9.958054   -2.639265   -2.414278
    112          1           0       10.883562   -1.940394   -0.495831
    113          1           0        9.297263   -1.511655    0.292914
    114          1           0        9.262976    0.388780   -1.545297
    115          1           0       11.449536    1.448977   -1.961977
    116          1           0       11.004725    0.019184   -2.860278
    117          1           0       12.140618   -0.037422   -1.410662
    118          1           0       11.101051    1.467663    0.473394
    119          1           0        9.974004    0.290724    1.288150
    120          1           0        8.278023    1.895459   -0.321853
    121          1           0        9.582325    3.032406    0.047897
    122          1           0        9.456723    2.621578    2.277643
    123          1           0        8.126614    1.406943    2.185777
    124          1           0        7.275982    3.663174    0.677782
    125          1           0        7.867893    5.244629    3.040467
    126          1           0        8.213296    5.672597    1.390174
    127          1           0        9.353152    4.636204    2.226467
    128          1           0        6.444417    3.391917    3.629971
    129          1           0        5.770088    2.366161    2.357502
    130          1           0        4.640533    3.817805    1.368924
    131          1           0        5.819760    5.156208    1.590057
    132          1           0        4.760882    5.733434    3.718541
    133          1           0        4.233860    4.070494    4.071102
    134          1           0        2.834832    5.008451    1.721507
    135          1           0        1.518568    6.754899    3.072774
    136          1           0        3.301697    7.271195    3.058523
    137          1           0        2.627303    6.370292    4.355932
    138          1           0        0.905362    3.735486    2.709498
    139          1           0        1.455654    4.261743    4.281161
    140          1           0        2.342867    3.011321    3.438828
 ---------------------------------------------------------------------

 SCF Done:  E(RB-LYP) =  -3007.36298799     A.U. after   22 cycles

 Excitation energies and oscillator strengths:

 Excited State   1:      Singlet-A      1.8100 eV  684.98 nm  f=0.2783  <S**2>=0.000
     245 -> 248        0.19708
     246 -> 247        0.68349
     246 <- 247       -0.14679
 This state for optimization and/or second-order correction.
 Total Energy, E(TD-HF/TD-DFT) =  -3007.29647027
 Copying the excited state density for this state as the 1-particle RhoCI density.

 Excited State   2:      Singlet-A      1.9719 eV  628.75 nm  f=0.0413  <S**2>=0.000
     243 -> 247        0.56283
     244 -> 247        0.19277
     245 -> 247        0.35187
     246 -> 248       -0.11408

 Excited State   3:      Singlet-A      1.9948 eV  621.54 nm  f=0.0028  <S**2>=0.000
     243 -> 247       -0.17472
     244 -> 247        0.67698

 Excited State   4:      Singlet-A      2.0645 eV  600.54 nm  f=0.0669  <S**2>=0.000
     243 -> 247       -0.37738
     245 -> 247        0.54018
     246 -> 248       -0.23702

 Excited State   5:      Singlet-A      2.3637 eV  524.55 nm  f=0.0001  <S**2>=0.000
     242 -> 247        0.70703

 The electronic state is 1-A.
 Alpha  occ. eigenvalues --  -46.27107 -18.82441 -18.81464 -18.77157 -18.77038
 Alpha  occ. eigenvalues --  -18.75362 -18.75247 -14.03531 -14.02712 -14.01094
 Alpha  occ. eigenvalues --  -14.00237 -10.04815 -10.04484  -9.99588  -9.98850
 Alpha  occ. eigenvalues --   -9.98116  -9.97990  -9.97178  -9.96577  -9.96360
 Alpha  occ. eigenvalues --   -9.96314  -9.95949  -9.95376  -9.94660  -9.94571
 Alpha  occ. eigenvalues --   -9.94490  -9.94041  -9.93946  -9.93852  -9.93725
 Alpha  occ. eigenvalues --   -9.93653  -9.93640  -9.93573  -9.93544  -9.93481
 Alpha  occ. eigenvalues --   -9.93300  -9.93212  -9.92848  -9.92834  -9.92794
 Alpha  occ. eigenvalues --   -9.92750  -9.92600  -9.92489  -9.92325  -9.92245
 Alpha  occ. eigenvalues --   -9.92185  -9.92173  -9.92098  -9.91949  -9.91881
 Alpha  occ. eigenvalues --   -9.91856  -9.91825  -9.91811  -9.91602  -9.91553
 Alpha  occ. eigenvalues --   -9.91500  -9.91484  -9.91292  -9.91247  -9.91191
 Alpha  occ. eigenvalues --   -9.91175  -9.90980  -9.90971  -9.90860  -9.90802
 Alpha  occ. eigenvalues --   -9.89644  -2.91656  -1.72090  -1.71519  -1.71378
 Alpha  occ. eigenvalues --   -0.98059  -0.97670  -0.92937  -0.92421  -0.89997
 Alpha  occ. eigenvalues --   -0.89735  -0.88545  -0.85955  -0.84707  -0.83061
 Alpha  occ. eigenvalues --   -0.76926  -0.73698  -0.73166  -0.72847  -0.72111
 Alpha  occ. eigenvalues --   -0.71613  -0.71555  -0.71084  -0.70712  -0.70480
 Alpha  occ. eigenvalues --   -0.69997  -0.69741  -0.68283  -0.68103  -0.67046
 Alpha  occ. eigenvalues --   -0.66586  -0.65817  -0.65108  -0.64715  -0.64488
 Alpha  occ. eigenvalues --   -0.63609  -0.62846  -0.62486  -0.62198  -0.61186
 Alpha  occ. eigenvalues --   -0.60697  -0.60210  -0.60062  -0.59334  -0.58745
 Alpha  occ. eigenvalues --   -0.58427  -0.58111  -0.56704  -0.56218  -0.54614
 Alpha  occ. eigenvalues --   -0.54248  -0.53541  -0.53001  -0.52002  -0.51583
 Alpha  occ. eigenvalues --   -0.50970  -0.50733  -0.50589  -0.49955  -0.49863
 Alpha  occ. eigenvalues --   -0.49705  -0.49170  -0.49131  -0.48569  -0.47093
 Alpha  occ. eigenvalues --   -0.46598  -0.46089  -0.45914  -0.45439  -0.45182
 Alpha  occ. eigenvalues --   -0.44588  -0.44007  -0.43303  -0.42937  -0.42661
 Alpha  occ. eigenvalues --   -0.42449  -0.42045  -0.41971  -0.41864  -0.41527
 Alpha  occ. eigenvalues --   -0.41491  -0.41269  -0.40986  -0.40484  -0.40151
 Alpha  occ. eigenvalues --   -0.39921  -0.39750  -0.39665  -0.39546  -0.39167
 Alpha  occ. eigenvalues --   -0.39118  -0.38943  -0.38764  -0.38376  -0.38283
 Alpha  occ. eigenvalues --   -0.38213  -0.37996  -0.37736  -0.37653  -0.37240
 Alpha  occ. eigenvalues --   -0.37175  -0.36991  -0.36811  -0.36688  -0.36631
 Alpha  occ. eigenvalues --   -0.36058  -0.35996  -0.35949  -0.35626  -0.35492
 Alpha  occ. eigenvalues --   -0.35309  -0.35156  -0.35039  -0.34882  -0.34852
 Alpha  occ. eigenvalues --   -0.34438  -0.34242  -0.34113  -0.34042  -0.33986
 Alpha  occ. eigenvalues --   -0.33834  -0.33653  -0.33597  -0.33266  -0.33217
 Alpha  occ. eigenvalues --   -0.32870  -0.32816  -0.32575  -0.32411  -0.32290
 Alpha  occ. eigenvalues --   -0.32156  -0.31983  -0.31895  -0.31794  -0.31610
 Alpha  occ. eigenvalues --   -0.31491  -0.31170  -0.31023  -0.30900  -0.30535
 Alpha  occ. eigenvalues --   -0.30440  -0.30196  -0.30096  -0.29882  -0.29793
 Alpha  occ. eigenvalues --   -0.29727  -0.29620  -0.29573  -0.29270  -0.29159
 Alpha  occ. eigenvalues --   -0.28774  -0.28634  -0.28081  -0.27979  -0.27879
 Alpha  occ. eigenvalues --   -0.27806  -0.27403  -0.27319  -0.27211  -0.26874
 Alpha  occ. eigenvalues --   -0.26509  -0.26128  -0.26105  -0.25996  -0.25399
 Alpha  occ. eigenvalues --   -0.25159  -0.24751  -0.24456  -0.23884  -0.22968
 Alpha  occ. eigenvalues --   -0.22399  -0.22325  -0.22203  -0.22139  -0.20870
 Alpha  occ. eigenvalues --   -0.20561  -0.20198  -0.18740  -0.18708  -0.17257
 Alpha  occ. eigenvalues --   -0.15812
 Alpha virt. eigenvalues --   -0.11512  -0.06788  -0.05877  -0.04220  -0.03838
 Alpha virt. eigenvalues --   -0.03311  -0.02368  -0.02269  -0.01293   0.00206
 Alpha virt. eigenvalues --    0.01349   0.01518   0.02161   0.02456   0.02865

 Mulliken charges:
               1
     1  Mg   0.670891
     2  C   -0.027436
     3  C   -0.060980
     4  C   -0.016351
     5  C   -0.077969
     6  N   -0.243011
     7  C   -0.074883
     8  C    0.020056
     9  C   -0.019070
    10  C   -0.043836
    11  C    0.160524
    12  C    0.118775
    13  C    0.180104
    14  C    0.066730
    15  O   -0.179831
    16  O   -0.284807
    17  N   -0.254010
    18  C    0.184483
    19  C   -0.131099
    20  C    0.047536
    21  C    0.095937
    22  C    0.154340
    23  C   -0.096846
    24  O   -0.151415
    25  C    0.126561
    26  N   -0.257701
    27  C   -0.008955
    28  C   -0.016846
    29  C    0.081479
    30  C    0.037145
    31  C    0.141515
    32  C    0.104857
    33  C    0.063955
    34  N   -0.214948
    35  C    0.071368
    36  C   -0.223635
    37  C    0.112246
    38  C    0.095491
    39  C    0.199503
    40  C   -0.120060
    41  O   -0.107496
    42  C    0.134871
    43  C    0.117430
    44  O   -0.180493
    45  O   -0.284155
    46  C    0.202918
    47  C    0.340299
    48  C   -0.095632
    49  C   -0.199022
    50  C    0.126306
    51  C    0.147215
    52  C    0.017499
    53  C    0.104085
    54  C   -0.092502
    55  C    0.058449
    56  C    0.162430
    57  C   -0.008500
    58  C    0.106289
    59  C   -0.073515
    60  C    0.113552
    61  C    0.072588
    62  C    0.044411
    63  C    0.117872
    64  C   -0.091943
    65  C    0.076481
    66  C    0.076428
    67  H   -0.076432
    68  H   -0.043951
    69  H   -0.058255
    70  H   -0.021210
    71  H   -0.032871
    72  H    0.010572
    73  H   -0.006805
    74  H   -0.013741
    75  H   -0.026533
    76  H   -0.036302
    77  H    0.023276
    78  H   -0.004353
    79  H    0.017458
    80  H    0.004350
    81  H   -0.019070
    82  H   -0.002103
    83  H   -0.002938
    84  H    0.008135
    85  H   -0.010806
    86  H   -0.043006
    87  H   -0.009176
    88  H   -0.010208
    89  H   -0.003518
    90  H   -0.016121
    91  H   -0.021774
    92  H   -0.017846
    93  H   -0.008969
    94  H   -0.011894
    95  H    0.001677
    96  H    0.004269
    97  H   -0.001682
    98  H    0.010609
    99  H    0.015234
   100  H    0.018376
   101  H    0.020585
   102  H   -0.014515
   103  H    0.010271
   104  H   -0.045229
   105  H    0.006314
   106  H    0.006460
   107  H   -0.005067
   108  H    0.002796
   109  H   -0.017602
   110  H   -0.014883
   111  H   -0.011601
   112  H   -0.021668
   113  H   -0.028604
   114  H   -0.029598
   115  H   -0.020422
   116  H   -0.012740
   117  H   -0.018589
   118  H   -0.030384
   119  H   -0.024707
   120  H   -0.020485
   121  H   -0.027345
   122  H   -0.040682
   123  H   -0.026153
   124  H   -0.039563
   125  H   -0.012448
   126  H   -0.012474
   127  H   -0.022036
   128  H   -0.024401
   129  H   -0.037177
   130  H   -0.027985
   131  H   -0.022769
   132  H   -0.025617
   133  H   -0.033064
   134  H   -0.027872
   135  H   -0.020374
   136  H   -0.004472
   137  H   -0.023739
   138  H    0.001246
   139  H   -0.018806
   140  H   -0.014664
 Sum of Mulliken charges =  -0.00000

 Dipole moment (field-independent basis, Debye):
    X=              3.7595    Y=              1.3983    Z=             -1.9196  Tot=              4.4468
 Quadrupole moment (field-independent basis, Debye-Ang):
   XX=           -369.2212   YY=           -423.8763   ZZ=           -421.3708
   XY=             -7.3617   XZ=              6.7798   YZ=              4.7940

 Normal termination of Gaussian 16 at Fri Apr 29 12:52:38 2022.
