 Gaussian 16, Revision A.03,
 Gaussian 16:  ES64L-G16RevA.03 25-Dec-2016

 -----------------------------------
 #p cam-b3lyp/Def2SVP td=(nstates=5)
 -----------------------------------

 -------------------------------------------------------
 step_301_chromophore_12 TDDFT with cam-b3lyp functional
 -------------------------------------------------------
 Symbolic Z-matrix:
 Charge =  0 Multiplicity = 1

                         Standard orientation:
 ---------------------------------------------------------------------
 Center     Atomic      Atomic             Coordinates (Angstroms)
 Number     Number       Type             X           Y           Z
 ---------------------------------------------------------------------
      1         12           0       -4.111902    0.155459   -0.246319
      2          6           0       -3.006695   -2.766193    0.879217
      3          6           0       -0.921825    1.222051   -1.019803
      4          6           0       -5.330469    3.221300   -1.360321
      5          6           0       -7.448170   -0.803550    0.693392
      6          7           0       -2.140814   -0.592908    0.087586
      7          6           0       -1.926377   -1.942255    0.439915
      8          6           0       -0.458447   -2.303213    0.189077
      9          6           0        0.197316   -0.928191   -0.030955
     10          6           0       -1.041194   -0.042881   -0.435152
     11          6           0        0.804533   -0.215413    1.127315
     12          6           0       -0.089646   -3.469915   -0.832717
     13          6           0        1.280879   -4.086785   -0.656153
     14          6           0        2.166519   -4.149761   -1.864441
     15          8           0        1.902383   -4.555585   -2.984313
     16          8           0        3.462390   -3.731456   -1.627178
     17          7           0       -3.227667    2.004482   -1.031248
     18          6           0       -1.857360    2.194325   -1.285156
     19          6           0       -1.647303    3.486375   -1.827555
     20          6           0       -2.875977    4.147390   -1.853246
     21          6           0       -3.909370    3.092083   -1.465236
     22          6           0       -0.252944    4.085065   -2.243436
     23          6           0       -3.216521    5.531550   -2.337370
     24          8           0       -4.368148    5.803670   -2.545111
     25          6           0       -2.224090    6.619696   -2.679720
     26          7           0       -6.065317    1.123612   -0.233517
     27          6           0       -6.293698    2.389884   -0.821943
     28          6           0       -7.799538    2.702866   -0.911680
     29          6           0       -8.424443    1.316753   -0.421120
     30          6           0       -7.291088    0.532417    0.157627
     31          6           0       -8.147835    3.893538   -0.027715
     32          6           0       -9.153599    0.525304   -1.494662
     33          6           0      -10.034471    1.263209   -2.501560
     34          7           0       -5.071981   -1.355997    0.735855
     35          6           0       -6.337971   -1.692737    0.977297
     36          6           0       -6.411769   -2.925272    1.594270
     37          6           0       -5.123517   -3.404610    1.557814
     38          6           0       -4.344670   -2.423499    0.977728
     39          6           0       -7.616936   -3.674772    2.009472
     40          6           0       -4.293676   -4.546658    1.792806
     41          8           0       -4.577598   -5.595811    2.305354
     42          6           0       -2.914611   -4.204089    1.328613
     43          6           0       -1.853738   -4.440514    2.318151
     44          8           0       -1.613040   -3.745322    3.305159
     45          8           0       -1.077613   -5.505355    1.898938
     46          6           0       -0.011229   -6.040189    2.716004
     47          6           0        4.549841   -4.175117   -2.466306
     48          6           0        5.872694   -4.132277   -1.801838
     49          6           0        7.052124   -3.667336   -2.271286
     50          6           0        7.356268   -3.517800   -3.833267
     51          6           0        8.202478   -3.430566   -1.284831
     52          6           0        9.120770   -2.274424   -1.820059
     53          6           0        9.890902   -1.508834   -0.622564
     54          6           0       10.046992    0.051330   -0.868684
     55          6           0       11.242136    0.383467   -1.861510
     56          6           0       10.154985    0.927734    0.422631
     57          6           0        9.123278    2.087478    0.338804
     58          6           0        8.547123    2.317260    1.758818
     59          6           0        7.595785    3.543456    1.712725
     60          6           0        8.292171    4.860877    2.112881
     61          6           0        6.290903    3.303821    2.554111
     62          6           0        5.242250    4.375519    2.086666
     63          6           0        4.333912    4.826116    3.292225
     64          6           0        2.890304    5.031265    2.809737
     65          6           0        2.559334    6.502941    3.275191
     66          6           0        1.799072    3.945378    3.296456
     67          1           0        0.112884    1.405480   -1.314971
     68          1           0       -5.813230    4.148356   -1.676679
     69          1           0       -8.442361   -1.216983    0.875259
     70          1           0       -0.089636   -2.664842    1.148799
     71          1           0        0.803146   -0.863170   -0.934325
     72          1           0        0.089782    0.424930    1.642757
     73          1           0        1.662489    0.405586    0.864884
     74          1           0        1.139523   -0.976554    1.832478
     75          1           0       -0.162541   -3.094040   -1.853536
     76          1           0       -0.999484   -4.069917   -0.797527
     77          1           0        1.060173   -5.108033   -0.345818
     78          1           0        1.621018   -3.499984    0.196855
     79          1           0        0.008320    4.956157   -1.643399
     80          1           0       -0.339306    4.255308   -3.316095
     81          1           0        0.624530    3.439966   -2.194976
     82          1           0       -1.485864    6.854912   -1.913839
     83          1           0       -2.877002    7.481577   -2.816342
     84          1           0       -1.681484    6.364241   -3.590840
     85          1           0       -7.973616    2.888198   -1.972040
     86          1           0       -9.077132    1.581591    0.410755
     87          1           0       -8.518399    3.608365    0.956675
     88          1           0       -8.908579    4.499207   -0.519561
     89          1           0       -7.284362    4.544180    0.108009
     90          1           0       -9.731700   -0.259023   -1.005361
     91          1           0       -8.412098    0.080000   -2.157390
     92          1           0       -9.653433    1.205996   -3.520763
     93          1           0      -10.100359    2.342906   -2.361248
     94          1           0      -11.032433    0.830464   -2.559759
     95          1           0       -8.502656   -3.050573    2.132992
     96          1           0       -7.244605   -4.253516    2.854516
     97          1           0       -7.722251   -4.470080    1.271265
     98          1           0       -2.748297   -4.844005    0.461002
     99          1           0        0.984665   -5.784157    2.354713
    100          1           0       -0.118119   -7.125516    2.706566
    101          1           0       -0.131156   -5.711076    3.748145
    102          1           0        4.546350   -3.390844   -3.223855
    103          1           0        4.438885   -5.166821   -2.905008
    104          1           0        5.828885   -4.212186   -0.715611
    105          1           0        8.426074   -3.723686   -3.873964
    106          1           0        7.108095   -2.539184   -4.243364
    107          1           0        6.715649   -4.183284   -4.412802
    108          1           0        8.734395   -4.350315   -1.040801
    109          1           0        7.713145   -2.949911   -0.437860
    110          1           0        8.486441   -1.581243   -2.372387
    111          1           0        9.958054   -2.639265   -2.414278
    112          1           0       10.883562   -1.940394   -0.495831
    113          1           0        9.297263   -1.511655    0.292914
    114          1           0        9.262976    0.388780   -1.545297
    115          1           0       11.449536    1.448977   -1.961977
    116          1           0       11.004725    0.019184   -2.860278
    117          1           0       12.140618   -0.037422   -1.410662
    118          1           0       11.101051    1.467663    0.473394
    119          1           0        9.974004    0.290724    1.288150
    120          1           0        8.278023    1.895459   -0.321853
    121          1           0        9.582325    3.032406    0.047897
    122          1           0        9.456723    2.621578    2.277643
    123          1           0        8.126614    1.406943    2.185777
    124          1           0        7.275982    3.663174    0.677782
    125          1           0        7.867893    5.244629    3.040467
    126          1           0        8.213296    5.672597    1.390174
    127          1           0        9.353152    4.636204    2.226467
    128          1           0        6.444417    3.391917    3.629971
    129          1           0        5.770088    2.366161    2.357502
    130          1           0        4.640533    3.817805    1.368924
    131          1           0        5.819760    5.156208    1.590057
    132          1           0        4.760882    5.733434    3.718541
    133          1           0        4.233860    4.070494    4.071102
    134          1           0        2.834832    5.008451    1.721507
    135          1           0        1.518568    6.754899    3.072774
    136          1           0        3.301697    7.271195    3.058523
    137          1           0        2.627303    6.370292    4.355932
    138          1           0        0.905362    3.735486    2.709498
    139          1           0        1.455654    4.261743    4.281161
    140          1           0        2.342867    3.011321    3.438828
 ---------------------------------------------------------------------

 SCF Done:  E(RCAM-B3LYP) =  -3007.16166392     A.U. after   17 cycles

 Excitation energies and oscillator strengths:

 Excited State   1:      Singlet-A      1.7231 eV  719.53 nm  f=0.3738  <S**2>=0.000
     245 -> 248        0.17689
     246 -> 247        0.68659
     245 <- 248        0.10615
 This state for optimization and/or second-order correction.
 Total Energy, E(TD-HF/TD-DFT) =  -3007.09833980
 Copying the excited state density for this state as the 1-particle RhoCI density.

 Excited State   2:      Singlet-A      2.2328 eV  555.28 nm  f=0.1177  <S**2>=0.000
     245 -> 247        0.63979
     246 -> 248       -0.28804

 Excited State   3:      Singlet-A      3.4406 eV  360.35 nm  f=0.0336  <S**2>=0.000
     239 -> 247        0.10412
     242 -> 247        0.47924
     244 -> 247       -0.42017
     246 -> 248        0.21087

 Excited State   4:      Singlet-A      3.5489 eV  349.36 nm  f=0.4107  <S**2>=0.000
     244 -> 247        0.39067
     245 -> 247        0.22003
     246 -> 248        0.52063

 Excited State   5:      Singlet-A      3.6444 eV  340.20 nm  f=0.2225  <S**2>=0.000
     240 -> 247       -0.27992
     240 -> 249       -0.13261
     241 -> 247       -0.13754
     241 -> 249        0.12503
     242 -> 247        0.35990
     244 -> 247        0.33809
     245 -> 247       -0.14445
     246 -> 248       -0.22515

 The electronic state is 1-A.
 Alpha  occ. eigenvalues --  -46.88647 -19.25388 -19.24268 -19.20263 -19.20081
 Alpha  occ. eigenvalues --  -19.18909 -19.18257 -14.42644 -14.41350 -14.39748
 Alpha  occ. eigenvalues --  -14.38415 -10.40163 -10.40009 -10.35006 -10.33876
 Alpha  occ. eigenvalues --  -10.32109 -10.31944 -10.31555 -10.31219 -10.31107
 Alpha  occ. eigenvalues --  -10.30767 -10.30609 -10.30097 -10.29127 -10.28637
 Alpha  occ. eigenvalues --  -10.28592 -10.28362 -10.28300 -10.28030 -10.27969
 Alpha  occ. eigenvalues --  -10.27775 -10.27700 -10.27644 -10.27623 -10.27506
 Alpha  occ. eigenvalues --  -10.27453 -10.27241 -10.27018 -10.27000 -10.26593
 Alpha  occ. eigenvalues --  -10.26495 -10.26406 -10.26198 -10.26173 -10.26017
 Alpha  occ. eigenvalues --  -10.25993 -10.25991 -10.25976 -10.25880 -10.25734
 Alpha  occ. eigenvalues --  -10.25692 -10.25452 -10.25439 -10.25297 -10.25289
 Alpha  occ. eigenvalues --  -10.25232 -10.25098 -10.25059 -10.24969 -10.24966
 Alpha  occ. eigenvalues --  -10.24843 -10.24737 -10.24654 -10.24579 -10.24515
 Alpha  occ. eigenvalues --  -10.23343  -3.17098  -1.92010  -1.91537  -1.91409
 Alpha  occ. eigenvalues --   -1.16538  -1.16201  -1.11723  -1.10726  -1.07954
 Alpha  occ. eigenvalues --   -1.07586  -1.05999  -1.03798  -1.02548  -1.00459
 Alpha  occ. eigenvalues --   -0.94060  -0.90570  -0.90040  -0.89690  -0.88884
 Alpha  occ. eigenvalues --   -0.88347  -0.88075  -0.87655  -0.87174  -0.87045
 Alpha  occ. eigenvalues --   -0.86699  -0.86377  -0.84547  -0.84189  -0.83242
 Alpha  occ. eigenvalues --   -0.82651  -0.81821  -0.81143  -0.80766  -0.80369
 Alpha  occ. eigenvalues --   -0.79358  -0.78423  -0.78325  -0.77859  -0.76539
 Alpha  occ. eigenvalues --   -0.76062  -0.75638  -0.75367  -0.74653  -0.73967
 Alpha  occ. eigenvalues --   -0.73568  -0.73130  -0.71613  -0.71102  -0.69324
 Alpha  occ. eigenvalues --   -0.68679  -0.68092  -0.67604  -0.66307  -0.65740
 Alpha  occ. eigenvalues --   -0.65266  -0.64798  -0.64669  -0.64065  -0.63680
 Alpha  occ. eigenvalues --   -0.63511  -0.63215  -0.62799  -0.62488  -0.60770
 Alpha  occ. eigenvalues --   -0.60275  -0.59695  -0.59488  -0.58939  -0.58638
 Alpha  occ. eigenvalues --   -0.57952  -0.57416  -0.56547  -0.56019  -0.55880
 Alpha  occ. eigenvalues --   -0.55470  -0.55298  -0.54820  -0.54794  -0.54478
 Alpha  occ. eigenvalues --   -0.54341  -0.54136  -0.53748  -0.53525  -0.53244
 Alpha  occ. eigenvalues --   -0.52942  -0.52724  -0.52616  -0.52138  -0.51893
 Alpha  occ. eigenvalues --   -0.51617  -0.51380  -0.51231  -0.50757  -0.50729
 Alpha  occ. eigenvalues --   -0.50622  -0.50470  -0.50088  -0.50010  -0.49763
 Alpha  occ. eigenvalues --   -0.49612  -0.49474  -0.49277  -0.49070  -0.48898
 Alpha  occ. eigenvalues --   -0.48683  -0.48289  -0.48025  -0.47919  -0.47570
 Alpha  occ. eigenvalues --   -0.47479  -0.47261  -0.47129  -0.46756  -0.46623
 Alpha  occ. eigenvalues --   -0.46379  -0.46133  -0.46019  -0.45930  -0.45690
 Alpha  occ. eigenvalues --   -0.45652  -0.45488  -0.45264  -0.45151  -0.44813
 Alpha  occ. eigenvalues --   -0.44605  -0.44530  -0.44270  -0.44052  -0.43829
 Alpha  occ. eigenvalues --   -0.43745  -0.43572  -0.43481  -0.43415  -0.43202
 Alpha  occ. eigenvalues --   -0.43116  -0.42887  -0.42775  -0.42498  -0.41957
 Alpha  occ. eigenvalues --   -0.41816  -0.41669  -0.41538  -0.41221  -0.41071
 Alpha  occ. eigenvalues --   -0.40903  -0.40852  -0.40751  -0.40446  -0.40271
 Alpha  occ. eigenvalues --   -0.40117  -0.39735  -0.39167  -0.38974  -0.38802
 Alpha  occ. eigenvalues --   -0.38610  -0.38308  -0.37984  -0.37967  -0.37760
 Alpha  occ. eigenvalues --   -0.37698  -0.36899  -0.36858  -0.36792  -0.36718
 Alpha  occ. eigenvalues --   -0.36319  -0.36164  -0.35049  -0.34828  -0.34571
 Alpha  occ. eigenvalues --   -0.33901  -0.33173  -0.32595  -0.31748  -0.31316
 Alpha  occ. eigenvalues --   -0.30737  -0.30142  -0.29919  -0.29698  -0.24021
 Alpha  occ. eigenvalues --   -0.21151
 Alpha virt. eigenvalues --   -0.08627  -0.01598   0.00678   0.02607   0.02918
 Alpha virt. eigenvalues --    0.03904   0.04499   0.05189   0.05471   0.06979
 Alpha virt. eigenvalues --    0.07561   0.08096   0.08589   0.08972   0.09100

 Mulliken charges:
               1
     1  Mg   0.803208
     2  C   -0.047999
     3  C   -0.075292
     4  C   -0.046638
     5  C   -0.084074
     6  N   -0.309604
     7  C   -0.032089
     8  C   -0.031678
     9  C   -0.072371
    10  C   -0.021805
    11  C    0.103203
    12  C    0.072046
    13  C    0.102521
    14  C    0.151373
    15  O   -0.220087
    16  O   -0.350683
    17  N   -0.339246
    18  C    0.190659
    19  C   -0.137470
    20  C   -0.017785
    21  C    0.129916
    22  C    0.103683
    23  C   -0.023438
    24  O   -0.190033
    25  C    0.049998
    26  N   -0.330027
    27  C    0.023141
    28  C   -0.076565
    29  C    0.019568
    30  C    0.061296
    31  C    0.083629
    32  C    0.048311
    33  C   -0.000551
    34  N   -0.306190
    35  C    0.073317
    36  C   -0.219744
    37  C    0.031275
    38  C    0.121174
    39  C    0.144840
    40  C   -0.014997
    41  O   -0.148445
    42  C    0.047507
    43  C    0.205479
    44  O   -0.217059
    45  O   -0.348631
    46  C    0.168202
    47  C    0.304194
    48  C   -0.118244
    49  C   -0.211612
    50  C    0.063273
    51  C    0.085807
    52  C   -0.036673
    53  C    0.055708
    54  C   -0.147655
    55  C    0.009262
    56  C    0.100621
    57  C   -0.052238
    58  C    0.052605
    59  C   -0.134432
    60  C    0.053856
    61  C    0.026960
    62  C   -0.008383
    63  C    0.060179
    64  C   -0.149556
    65  C    0.017560
    66  C    0.023048
    67  H   -0.039317
    68  H   -0.005823
    69  H   -0.024379
    70  H    0.011835
    71  H    0.002066
    72  H    0.036093
    73  H    0.017581
    74  H    0.011752
    75  H    0.006711
    76  H   -0.005212
    77  H    0.054776
    78  H    0.029489
    79  H    0.042565
    80  H    0.030907
    81  H    0.011214
    82  H    0.026476
    83  H    0.033201
    84  H    0.035367
    85  H    0.024132
    86  H   -0.006475
    87  H    0.016498
    88  H    0.014359
    89  H    0.021776
    90  H    0.011509
    91  H    0.007586
    92  H    0.006570
    93  H    0.012284
    94  H    0.013302
    95  H    0.023759
    96  H    0.030266
    97  H    0.024516
    98  H    0.054483
    99  H    0.032379
   100  H    0.040735
   101  H    0.046613
   102  H    0.014224
   103  H    0.038192
   104  H   -0.010088
   105  H    0.029524
   106  H    0.030068
   107  H    0.020261
   108  H    0.031398
   109  H    0.011887
   110  H    0.012301
   111  H    0.014412
   112  H    0.005397
   113  H   -0.002217
   114  H    0.000048
   115  H    0.003183
   116  H    0.010030
   117  H    0.003764
   118  H   -0.000504
   119  H    0.003927
   120  H    0.005903
   121  H   -0.001668
   122  H   -0.012258
   123  H    0.002097
   124  H   -0.007645
   125  H    0.011297
   126  H    0.011398
   127  H    0.002718
   128  H    0.003028
   129  H   -0.008833
   130  H   -0.000432
   131  H    0.004086
   132  H    0.003646
   133  H   -0.003677
   134  H    0.000822
   135  H    0.005034
   136  H    0.019567
   137  H   -0.001630
   138  H    0.023808
   139  H    0.004414
   140  H    0.006799
 Sum of Mulliken charges =  -0.00000

 Dipole moment (field-independent basis, Debye):
    X=              4.5259    Y=              2.3466    Z=             -2.3361  Tot=              5.6079
 Quadrupole moment (field-independent basis, Debye-Ang):
   XX=           -373.0705   YY=           -419.5390   ZZ=           -421.3459
   XY=             -9.7047   XZ=              8.4491   YZ=              2.6063

 Normal termination of Gaussian 16 at Fri Apr 29 11:51:27 2022.
