 Gaussian 16, Revision A.03,
 Gaussian 16:  ES64L-G16RevA.03 25-Dec-2016

 ---------------------------------
 #p PBE1PBE/Def2SVP td=(nstates=5)
 ---------------------------------

 -----------------------------------------------------
 step_301_chromophore_12 TDDFT with PBE1PBE functional
 -----------------------------------------------------
 Symbolic Z-matrix:
 Charge =  0 Multiplicity = 1

                         Standard orientation:
 ---------------------------------------------------------------------
 Center     Atomic      Atomic             Coordinates (Angstroms)
 Number     Number       Type             X           Y           Z
 ---------------------------------------------------------------------
      1         12           0       -4.111902    0.155459   -0.246319
      2          6           0       -3.006695   -2.766193    0.879217
      3          6           0       -0.921825    1.222051   -1.019803
      4          6           0       -5.330469    3.221300   -1.360321
      5          6           0       -7.448170   -0.803550    0.693392
      6          7           0       -2.140814   -0.592908    0.087586
      7          6           0       -1.926377   -1.942255    0.439915
      8          6           0       -0.458447   -2.303213    0.189077
      9          6           0        0.197316   -0.928191   -0.030955
     10          6           0       -1.041194   -0.042881   -0.435152
     11          6           0        0.804533   -0.215413    1.127315
     12          6           0       -0.089646   -3.469915   -0.832717
     13          6           0        1.280879   -4.086785   -0.656153
     14          6           0        2.166519   -4.149761   -1.864441
     15          8           0        1.902383   -4.555585   -2.984313
     16          8           0        3.462390   -3.731456   -1.627178
     17          7           0       -3.227667    2.004482   -1.031248
     18          6           0       -1.857360    2.194325   -1.285156
     19          6           0       -1.647303    3.486375   -1.827555
     20          6           0       -2.875977    4.147390   -1.853246
     21          6           0       -3.909370    3.092083   -1.465236
     22          6           0       -0.252944    4.085065   -2.243436
     23          6           0       -3.216521    5.531550   -2.337370
     24          8           0       -4.368148    5.803670   -2.545111
     25          6           0       -2.224090    6.619696   -2.679720
     26          7           0       -6.065317    1.123612   -0.233517
     27          6           0       -6.293698    2.389884   -0.821943
     28          6           0       -7.799538    2.702866   -0.911680
     29          6           0       -8.424443    1.316753   -0.421120
     30          6           0       -7.291088    0.532417    0.157627
     31          6           0       -8.147835    3.893538   -0.027715
     32          6           0       -9.153599    0.525304   -1.494662
     33          6           0      -10.034471    1.263209   -2.501560
     34          7           0       -5.071981   -1.355997    0.735855
     35          6           0       -6.337971   -1.692737    0.977297
     36          6           0       -6.411769   -2.925272    1.594270
     37          6           0       -5.123517   -3.404610    1.557814
     38          6           0       -4.344670   -2.423499    0.977728
     39          6           0       -7.616936   -3.674772    2.009472
     40          6           0       -4.293676   -4.546658    1.792806
     41          8           0       -4.577598   -5.595811    2.305354
     42          6           0       -2.914611   -4.204089    1.328613
     43          6           0       -1.853738   -4.440514    2.318151
     44          8           0       -1.613040   -3.745322    3.305159
     45          8           0       -1.077613   -5.505355    1.898938
     46          6           0       -0.011229   -6.040189    2.716004
     47          6           0        4.549841   -4.175117   -2.466306
     48          6           0        5.872694   -4.132277   -1.801838
     49          6           0        7.052124   -3.667336   -2.271286
     50          6           0        7.356268   -3.517800   -3.833267
     51          6           0        8.202478   -3.430566   -1.284831
     52          6           0        9.120770   -2.274424   -1.820059
     53          6           0        9.890902   -1.508834   -0.622564
     54          6           0       10.046992    0.051330   -0.868684
     55          6           0       11.242136    0.383467   -1.861510
     56          6           0       10.154985    0.927734    0.422631
     57          6           0        9.123278    2.087478    0.338804
     58          6           0        8.547123    2.317260    1.758818
     59          6           0        7.595785    3.543456    1.712725
     60          6           0        8.292171    4.860877    2.112881
     61          6           0        6.290903    3.303821    2.554111
     62          6           0        5.242250    4.375519    2.086666
     63          6           0        4.333912    4.826116    3.292225
     64          6           0        2.890304    5.031265    2.809737
     65          6           0        2.559334    6.502941    3.275191
     66          6           0        1.799072    3.945378    3.296456
     67          1           0        0.112884    1.405480   -1.314971
     68          1           0       -5.813230    4.148356   -1.676679
     69          1           0       -8.442361   -1.216983    0.875259
     70          1           0       -0.089636   -2.664842    1.148799
     71          1           0        0.803146   -0.863170   -0.934325
     72          1           0        0.089782    0.424930    1.642757
     73          1           0        1.662489    0.405586    0.864884
     74          1           0        1.139523   -0.976554    1.832478
     75          1           0       -0.162541   -3.094040   -1.853536
     76          1           0       -0.999484   -4.069917   -0.797527
     77          1           0        1.060173   -5.108033   -0.345818
     78          1           0        1.621018   -3.499984    0.196855
     79          1           0        0.008320    4.956157   -1.643399
     80          1           0       -0.339306    4.255308   -3.316095
     81          1           0        0.624530    3.439966   -2.194976
     82          1           0       -1.485864    6.854912   -1.913839
     83          1           0       -2.877002    7.481577   -2.816342
     84          1           0       -1.681484    6.364241   -3.590840
     85          1           0       -7.973616    2.888198   -1.972040
     86          1           0       -9.077132    1.581591    0.410755
     87          1           0       -8.518399    3.608365    0.956675
     88          1           0       -8.908579    4.499207   -0.519561
     89          1           0       -7.284362    4.544180    0.108009
     90          1           0       -9.731700   -0.259023   -1.005361
     91          1           0       -8.412098    0.080000   -2.157390
     92          1           0       -9.653433    1.205996   -3.520763
     93          1           0      -10.100359    2.342906   -2.361248
     94          1           0      -11.032433    0.830464   -2.559759
     95          1           0       -8.502656   -3.050573    2.132992
     96          1           0       -7.244605   -4.253516    2.854516
     97          1           0       -7.722251   -4.470080    1.271265
     98          1           0       -2.748297   -4.844005    0.461002
     99          1           0        0.984665   -5.784157    2.354713
    100          1           0       -0.118119   -7.125516    2.706566
    101          1           0       -0.131156   -5.711076    3.748145
    102          1           0        4.546350   -3.390844   -3.223855
    103          1           0        4.438885   -5.166821   -2.905008
    104          1           0        5.828885   -4.212186   -0.715611
    105          1           0        8.426074   -3.723686   -3.873964
    106          1           0        7.108095   -2.539184   -4.243364
    107          1           0        6.715649   -4.183284   -4.412802
    108          1           0        8.734395   -4.350315   -1.040801
    109          1           0        7.713145   -2.949911   -0.437860
    110          1           0        8.486441   -1.581243   -2.372387
    111          1           0        9.958054   -2.639265   -2.414278
    112          1           0       10.883562   -1.940394   -0.495831
    113          1           0        9.297263   -1.511655    0.292914
    114          1           0        9.262976    0.388780   -1.545297
    115          1           0       11.449536    1.448977   -1.961977
    116          1           0       11.004725    0.019184   -2.860278
    117          1           0       12.140618   -0.037422   -1.410662
    118          1           0       11.101051    1.467663    0.473394
    119          1           0        9.974004    0.290724    1.288150
    120          1           0        8.278023    1.895459   -0.321853
    121          1           0        9.582325    3.032406    0.047897
    122          1           0        9.456723    2.621578    2.277643
    123          1           0        8.126614    1.406943    2.185777
    124          1           0        7.275982    3.663174    0.677782
    125          1           0        7.867893    5.244629    3.040467
    126          1           0        8.213296    5.672597    1.390174
    127          1           0        9.353152    4.636204    2.226467
    128          1           0        6.444417    3.391917    3.629971
    129          1           0        5.770088    2.366161    2.357502
    130          1           0        4.640533    3.817805    1.368924
    131          1           0        5.819760    5.156208    1.590057
    132          1           0        4.760882    5.733434    3.718541
    133          1           0        4.233860    4.070494    4.071102
    134          1           0        2.834832    5.008451    1.721507
    135          1           0        1.518568    6.754899    3.072774
    136          1           0        3.301697    7.271195    3.058523
    137          1           0        2.627303    6.370292    4.355932
    138          1           0        0.905362    3.735486    2.709498
    139          1           0        1.455654    4.261743    4.281161
    140          1           0        2.342867    3.011321    3.438828
 ---------------------------------------------------------------------

 SCF Done:  E(RPBE1PBE) =  -3005.34930469     A.U. after   15 cycles

 Excitation energies and oscillator strengths:

 Excited State   1:      Singlet-A      1.8623 eV  665.76 nm  f=0.3582  <S**2>=0.000
     245 -> 248        0.17535
     246 -> 247        0.69321
     246 <- 247       -0.10667
 This state for optimization and/or second-order correction.
 Total Energy, E(TD-HF/TD-DFT) =  -3005.28086660
 Copying the excited state density for this state as the 1-particle RhoCI density.

 Excited State   2:      Singlet-A      2.2425 eV  552.87 nm  f=0.1187  <S**2>=0.000
     245 -> 247        0.65077
     246 -> 248       -0.26760

 Excited State   3:      Singlet-A      3.0677 eV  404.17 nm  f=0.0046  <S**2>=0.000
     240 -> 247        0.18221
     242 -> 247       -0.23449
     243 -> 247        0.61813

 Excited State   4:      Singlet-A      3.1064 eV  399.13 nm  f=0.0010  <S**2>=0.000
     241 -> 247        0.62536
     242 -> 247       -0.24411

 Excited State   5:      Singlet-A      3.1637 eV  391.90 nm  f=0.0014  <S**2>=0.000
     240 -> 247       -0.33627
     241 -> 247        0.14616
     242 -> 247        0.49322
     243 -> 247        0.32256

 The electronic state is 1-A.
 Alpha  occ. eigenvalues --  -46.92043 -19.26079 -19.24981 -19.20523 -19.20353
 Alpha  occ. eigenvalues --  -19.18901 -19.18622 -14.42047 -14.41090 -14.39302
 Alpha  occ. eigenvalues --  -14.38156 -10.37194 -10.37040 -10.31926 -10.31125
 Alpha  occ. eigenvalues --  -10.29514 -10.29345 -10.29326 -10.28741 -10.28652
 Alpha  occ. eigenvalues --  -10.28639 -10.28229 -10.27465 -10.26451 -10.26433
 Alpha  occ. eigenvalues --  -10.26271 -10.26119 -10.26114 -10.25658 -10.25445
 Alpha  occ. eigenvalues --  -10.25415 -10.25405 -10.25294 -10.25249 -10.25232
 Alpha  occ. eigenvalues --  -10.25085 -10.24932 -10.24930 -10.24628 -10.24063
 Alpha  occ. eigenvalues --  -10.24000 -10.23996 -10.23876 -10.23843 -10.23757
 Alpha  occ. eigenvalues --  -10.23700 -10.23586 -10.23465 -10.23390 -10.23372
 Alpha  occ. eigenvalues --  -10.23281 -10.22979 -10.22955 -10.22934 -10.22808
 Alpha  occ. eigenvalues --  -10.22638 -10.22599 -10.22591 -10.22504 -10.22500
 Alpha  occ. eigenvalues --  -10.22287 -10.22227 -10.22137 -10.22051 -10.21869
 Alpha  occ. eigenvalues --  -10.21271  -3.14079  -1.86933  -1.86439  -1.86311
 Alpha  occ. eigenvalues --   -1.11367  -1.10993  -1.06271  -1.05620  -1.02797
 Alpha  occ. eigenvalues --   -1.02466  -1.00955  -0.98307  -0.97015  -0.95086
 Alpha  occ. eigenvalues --   -0.88540  -0.84762  -0.84141  -0.83795  -0.83148
 Alpha  occ. eigenvalues --   -0.82438  -0.82400  -0.82030  -0.81518  -0.81196
 Alpha  occ. eigenvalues --   -0.80870  -0.80583  -0.78719  -0.78572  -0.77485
 Alpha  occ. eigenvalues --   -0.76841  -0.76092  -0.75326  -0.75014  -0.74562
 Alpha  occ. eigenvalues --   -0.73551  -0.72741  -0.72455  -0.72159  -0.70941
 Alpha  occ. eigenvalues --   -0.70224  -0.69708  -0.69667  -0.68759  -0.68167
 Alpha  occ. eigenvalues --   -0.67902  -0.67541  -0.66011  -0.65391  -0.63712
 Alpha  occ. eigenvalues --   -0.63203  -0.62349  -0.61989  -0.60596  -0.60224
 Alpha  occ. eigenvalues --   -0.59658  -0.59264  -0.58943  -0.58217  -0.58181
 Alpha  occ. eigenvalues --   -0.57959  -0.57449  -0.57380  -0.56675  -0.55213
 Alpha  occ. eigenvalues --   -0.54824  -0.54213  -0.53915  -0.53497  -0.53203
 Alpha  occ. eigenvalues --   -0.52409  -0.52038  -0.50979  -0.50610  -0.50411
 Alpha  occ. eigenvalues --   -0.49966  -0.49621  -0.49333  -0.49157  -0.49057
 Alpha  occ. eigenvalues --   -0.48800  -0.48534  -0.48261  -0.48113  -0.47855
 Alpha  occ. eigenvalues --   -0.47482  -0.47241  -0.46883  -0.46587  -0.46530
 Alpha  occ. eigenvalues --   -0.46169  -0.46096  -0.45685  -0.45296  -0.45230
 Alpha  occ. eigenvalues --   -0.45171  -0.44953  -0.44607  -0.44547  -0.44425
 Alpha  occ. eigenvalues --   -0.44209  -0.44008  -0.43852  -0.43686  -0.43532
 Alpha  occ. eigenvalues --   -0.43331  -0.42988  -0.42647  -0.42544  -0.42230
 Alpha  occ. eigenvalues --   -0.41965  -0.41829  -0.41793  -0.41474  -0.41225
 Alpha  occ. eigenvalues --   -0.41114  -0.40793  -0.40689  -0.40613  -0.40512
 Alpha  occ. eigenvalues --   -0.40427  -0.40279  -0.39916  -0.39878  -0.39485
 Alpha  occ. eigenvalues --   -0.39410  -0.39286  -0.38991  -0.38662  -0.38560
 Alpha  occ. eigenvalues --   -0.38542  -0.38377  -0.38272  -0.38158  -0.37992
 Alpha  occ. eigenvalues --   -0.37819  -0.37590  -0.37470  -0.37326  -0.36783
 Alpha  occ. eigenvalues --   -0.36618  -0.36465  -0.36354  -0.36157  -0.35891
 Alpha  occ. eigenvalues --   -0.35726  -0.35701  -0.35551  -0.35421  -0.35071
 Alpha  occ. eigenvalues --   -0.34933  -0.34558  -0.34077  -0.33736  -0.33643
 Alpha  occ. eigenvalues --   -0.33584  -0.33059  -0.33003  -0.32785  -0.32766
 Alpha  occ. eigenvalues --   -0.32430  -0.31952  -0.31856  -0.31704  -0.31511
 Alpha  occ. eigenvalues --   -0.31307  -0.31114  -0.29938  -0.29669  -0.29323
 Alpha  occ. eigenvalues --   -0.29125  -0.28760  -0.27619  -0.27210  -0.26127
 Alpha  occ. eigenvalues --   -0.25717  -0.25610  -0.25417  -0.25187  -0.20945
 Alpha  occ. eigenvalues --   -0.18768
 Alpha virt. eigenvalues --   -0.11113  -0.05139  -0.03558  -0.01609  -0.00694
 Alpha virt. eigenvalues --   -0.00321   0.00028   0.00756   0.01353   0.03225
 Alpha virt. eigenvalues --    0.03939   0.04476   0.05041   0.05412   0.05827

 Mulliken charges:
               1
     1  Mg   0.950679
     2  C   -0.057785
     3  C   -0.070628
     4  C   -0.041929
     5  C   -0.073128
     6  N   -0.411221
     7  C    0.053506
     8  C   -0.103195
     9  C   -0.153819
    10  C    0.017497
    11  C    0.051772
    12  C    0.028086
    13  C    0.015863
    14  C    0.221171
    15  O   -0.254751
    16  O   -0.383794
    17  N   -0.448086
    18  C    0.203469
    19  C   -0.163760
    20  C   -0.070737
    21  C    0.167232
    22  C    0.049757
    23  C    0.024570
    24  O   -0.226775
    25  C   -0.020119
    26  N   -0.422711
    27  C    0.054210
    28  C   -0.156616
    29  C   -0.060885
    30  C    0.105238
    31  C    0.029679
    32  C   -0.016110
    33  C   -0.070275
    34  N   -0.444586
    35  C    0.094700
    36  C   -0.231475
    37  C   -0.026276
    38  C    0.164070
    39  C    0.087868
    40  C    0.096364
    41  O   -0.198318
    42  C   -0.071326
    43  C    0.297751
    44  O   -0.253418
    45  O   -0.382844
    46  C    0.116155
    47  C    0.262307
    48  C   -0.133674
    49  C   -0.240960
    50  C   -0.004311
    51  C    0.017956
    52  C   -0.101712
    53  C    0.000642
    54  C   -0.226803
    55  C   -0.049972
    56  C    0.040746
    57  C   -0.113004
    58  C   -0.004947
    59  C   -0.223265
    60  C   -0.004353
    61  C   -0.023576
    62  C   -0.073825
    63  C    0.004312
    64  C   -0.235022
    65  C   -0.050496
    66  C   -0.038121
    67  H   -0.006896
    68  H    0.026358
    69  H    0.008194
    70  H    0.053517
    71  H    0.039079
    72  H    0.063814
    73  H    0.044614
    74  H    0.038779
    75  H    0.040099
    76  H    0.030134
    77  H    0.088478
    78  H    0.062002
    79  H    0.067414
    80  H    0.057637
    81  H    0.036438
    82  H    0.052196
    83  H    0.059092
    84  H    0.061517
    85  H    0.060302
    86  H    0.031769
    87  H    0.042949
    88  H    0.042048
    89  H    0.049728
    90  H    0.044165
    91  H    0.042027
    92  H    0.034853
    93  H    0.040553
    94  H    0.041750
    95  H    0.050369
    96  H    0.060041
    97  H    0.055377
    98  H    0.091680
    99  H    0.053811
   100  H    0.062512
   101  H    0.066904
   102  H    0.042786
   103  H    0.063971
   104  H    0.020237
   105  H    0.057833
   106  H    0.056661
   107  H    0.048131
   108  H    0.062840
   109  H    0.046161
   110  H    0.044912
   111  H    0.047070
   112  H    0.037459
   113  H    0.030710
   114  H    0.037946
   115  H    0.031660
   116  H    0.037824
   117  H    0.031875
   118  H    0.032418
   119  H    0.034998
   120  H    0.038461
   121  H    0.031937
   122  H    0.022842
   123  H    0.033197
   124  H    0.031197
   125  H    0.039500
   126  H    0.038131
   127  H    0.029948
   128  H    0.035143
   129  H    0.024295
   130  H    0.033298
   131  H    0.037398
   132  H    0.035649
   133  H    0.028614
   134  H    0.038538
   135  H    0.034136
   136  H    0.047757
   137  H    0.027753
   138  H    0.050815
   139  H    0.031520
   140  H    0.034075
 Sum of Mulliken charges =  -0.00000

 Dipole moment (field-independent basis, Debye):
    X=              4.1080    Y=              1.9511    Z=             -2.1566  Tot=              5.0333
 Quadrupole moment (field-independent basis, Debye-Ang):
   XX=           -364.1323   YY=           -417.6167   ZZ=           -418.8826
   XY=             -8.0968   XZ=              7.9007   YZ=              2.7764

 Normal termination of Gaussian 16 at Fri Apr 29 12:09:25 2022.
