 Gaussian 16, Revision A.03,
 Gaussian 16:  ES64L-G16RevA.03 25-Dec-2016

 --------------------------------
 #p wB97XD/Def2SVP td=(nstates=5)
 --------------------------------

 ----------------------------------------------------
 step_301_chromophore_12 TDDFT with wB97XD functional
 ----------------------------------------------------
 Symbolic Z-matrix:
 Charge =  0 Multiplicity = 1

                         Standard orientation:
 ---------------------------------------------------------------------
 Center     Atomic      Atomic             Coordinates (Angstroms)
 Number     Number       Type             X           Y           Z
 ---------------------------------------------------------------------
      1         12           0       -4.111902    0.155459   -0.246319
      2          6           0       -3.006695   -2.766193    0.879217
      3          6           0       -0.921825    1.222051   -1.019803
      4          6           0       -5.330469    3.221300   -1.360321
      5          6           0       -7.448170   -0.803550    0.693392
      6          7           0       -2.140814   -0.592908    0.087586
      7          6           0       -1.926377   -1.942255    0.439915
      8          6           0       -0.458447   -2.303213    0.189077
      9          6           0        0.197316   -0.928191   -0.030955
     10          6           0       -1.041194   -0.042881   -0.435152
     11          6           0        0.804533   -0.215413    1.127315
     12          6           0       -0.089646   -3.469915   -0.832717
     13          6           0        1.280879   -4.086785   -0.656153
     14          6           0        2.166519   -4.149761   -1.864441
     15          8           0        1.902383   -4.555585   -2.984313
     16          8           0        3.462390   -3.731456   -1.627178
     17          7           0       -3.227667    2.004482   -1.031248
     18          6           0       -1.857360    2.194325   -1.285156
     19          6           0       -1.647303    3.486375   -1.827555
     20          6           0       -2.875977    4.147390   -1.853246
     21          6           0       -3.909370    3.092083   -1.465236
     22          6           0       -0.252944    4.085065   -2.243436
     23          6           0       -3.216521    5.531550   -2.337370
     24          8           0       -4.368148    5.803670   -2.545111
     25          6           0       -2.224090    6.619696   -2.679720
     26          7           0       -6.065317    1.123612   -0.233517
     27          6           0       -6.293698    2.389884   -0.821943
     28          6           0       -7.799538    2.702866   -0.911680
     29          6           0       -8.424443    1.316753   -0.421120
     30          6           0       -7.291088    0.532417    0.157627
     31          6           0       -8.147835    3.893538   -0.027715
     32          6           0       -9.153599    0.525304   -1.494662
     33          6           0      -10.034471    1.263209   -2.501560
     34          7           0       -5.071981   -1.355997    0.735855
     35          6           0       -6.337971   -1.692737    0.977297
     36          6           0       -6.411769   -2.925272    1.594270
     37          6           0       -5.123517   -3.404610    1.557814
     38          6           0       -4.344670   -2.423499    0.977728
     39          6           0       -7.616936   -3.674772    2.009472
     40          6           0       -4.293676   -4.546658    1.792806
     41          8           0       -4.577598   -5.595811    2.305354
     42          6           0       -2.914611   -4.204089    1.328613
     43          6           0       -1.853738   -4.440514    2.318151
     44          8           0       -1.613040   -3.745322    3.305159
     45          8           0       -1.077613   -5.505355    1.898938
     46          6           0       -0.011229   -6.040189    2.716004
     47          6           0        4.549841   -4.175117   -2.466306
     48          6           0        5.872694   -4.132277   -1.801838
     49          6           0        7.052124   -3.667336   -2.271286
     50          6           0        7.356268   -3.517800   -3.833267
     51          6           0        8.202478   -3.430566   -1.284831
     52          6           0        9.120770   -2.274424   -1.820059
     53          6           0        9.890902   -1.508834   -0.622564
     54          6           0       10.046992    0.051330   -0.868684
     55          6           0       11.242136    0.383467   -1.861510
     56          6           0       10.154985    0.927734    0.422631
     57          6           0        9.123278    2.087478    0.338804
     58          6           0        8.547123    2.317260    1.758818
     59          6           0        7.595785    3.543456    1.712725
     60          6           0        8.292171    4.860877    2.112881
     61          6           0        6.290903    3.303821    2.554111
     62          6           0        5.242250    4.375519    2.086666
     63          6           0        4.333912    4.826116    3.292225
     64          6           0        2.890304    5.031265    2.809737
     65          6           0        2.559334    6.502941    3.275191
     66          6           0        1.799072    3.945378    3.296456
     67          1           0        0.112884    1.405480   -1.314971
     68          1           0       -5.813230    4.148356   -1.676679
     69          1           0       -8.442361   -1.216983    0.875259
     70          1           0       -0.089636   -2.664842    1.148799
     71          1           0        0.803146   -0.863170   -0.934325
     72          1           0        0.089782    0.424930    1.642757
     73          1           0        1.662489    0.405586    0.864884
     74          1           0        1.139523   -0.976554    1.832478
     75          1           0       -0.162541   -3.094040   -1.853536
     76          1           0       -0.999484   -4.069917   -0.797527
     77          1           0        1.060173   -5.108033   -0.345818
     78          1           0        1.621018   -3.499984    0.196855
     79          1           0        0.008320    4.956157   -1.643399
     80          1           0       -0.339306    4.255308   -3.316095
     81          1           0        0.624530    3.439966   -2.194976
     82          1           0       -1.485864    6.854912   -1.913839
     83          1           0       -2.877002    7.481577   -2.816342
     84          1           0       -1.681484    6.364241   -3.590840
     85          1           0       -7.973616    2.888198   -1.972040
     86          1           0       -9.077132    1.581591    0.410755
     87          1           0       -8.518399    3.608365    0.956675
     88          1           0       -8.908579    4.499207   -0.519561
     89          1           0       -7.284362    4.544180    0.108009
     90          1           0       -9.731700   -0.259023   -1.005361
     91          1           0       -8.412098    0.080000   -2.157390
     92          1           0       -9.653433    1.205996   -3.520763
     93          1           0      -10.100359    2.342906   -2.361248
     94          1           0      -11.032433    0.830464   -2.559759
     95          1           0       -8.502656   -3.050573    2.132992
     96          1           0       -7.244605   -4.253516    2.854516
     97          1           0       -7.722251   -4.470080    1.271265
     98          1           0       -2.748297   -4.844005    0.461002
     99          1           0        0.984665   -5.784157    2.354713
    100          1           0       -0.118119   -7.125516    2.706566
    101          1           0       -0.131156   -5.711076    3.748145
    102          1           0        4.546350   -3.390844   -3.223855
    103          1           0        4.438885   -5.166821   -2.905008
    104          1           0        5.828885   -4.212186   -0.715611
    105          1           0        8.426074   -3.723686   -3.873964
    106          1           0        7.108095   -2.539184   -4.243364
    107          1           0        6.715649   -4.183284   -4.412802
    108          1           0        8.734395   -4.350315   -1.040801
    109          1           0        7.713145   -2.949911   -0.437860
    110          1           0        8.486441   -1.581243   -2.372387
    111          1           0        9.958054   -2.639265   -2.414278
    112          1           0       10.883562   -1.940394   -0.495831
    113          1           0        9.297263   -1.511655    0.292914
    114          1           0        9.262976    0.388780   -1.545297
    115          1           0       11.449536    1.448977   -1.961977
    116          1           0       11.004725    0.019184   -2.860278
    117          1           0       12.140618   -0.037422   -1.410662
    118          1           0       11.101051    1.467663    0.473394
    119          1           0        9.974004    0.290724    1.288150
    120          1           0        8.278023    1.895459   -0.321853
    121          1           0        9.582325    3.032406    0.047897
    122          1           0        9.456723    2.621578    2.277643
    123          1           0        8.126614    1.406943    2.185777
    124          1           0        7.275982    3.663174    0.677782
    125          1           0        7.867893    5.244629    3.040467
    126          1           0        8.213296    5.672597    1.390174
    127          1           0        9.353152    4.636204    2.226467
    128          1           0        6.444417    3.391917    3.629971
    129          1           0        5.770088    2.366161    2.357502
    130          1           0        4.640533    3.817805    1.368924
    131          1           0        5.819760    5.156208    1.590057
    132          1           0        4.760882    5.733434    3.718541
    133          1           0        4.233860    4.070494    4.071102
    134          1           0        2.834832    5.008451    1.721507
    135          1           0        1.518568    6.754899    3.072774
    136          1           0        3.301697    7.271195    3.058523
    137          1           0        2.627303    6.370292    4.355932
    138          1           0        0.905362    3.735486    2.709498
    139          1           0        1.455654    4.261743    4.281161
    140          1           0        2.342867    3.011321    3.438828
 ---------------------------------------------------------------------

 SCF Done:  E(RwB97XD) =  -3007.85840145     A.U. after   17 cycles

 Excitation energies and oscillator strengths:

 Excited State   1:      Singlet-A      1.6770 eV  739.32 nm  f=0.3730  <S**2>=0.000
     245 -> 248        0.18135
     246 -> 247        0.68441
     245 <- 248        0.11438
 This state for optimization and/or second-order correction.
 Total Energy, E(TD-HF/TD-DFT) =  -3007.79677309
 Copying the excited state density for this state as the 1-particle RhoCI density.

 Excited State   2:      Singlet-A      2.1799 eV  568.75 nm  f=0.1139  <S**2>=0.000
     245 -> 247        0.63751
     246 -> 248       -0.29014

 Excited State   3:      Singlet-A      3.4540 eV  358.96 nm  f=0.0517  <S**2>=0.000
     239 -> 247        0.13369
     241 -> 247        0.19001
     242 -> 247        0.48358
     244 -> 247       -0.34212
     246 -> 248        0.25356

 Excited State   4:      Singlet-A      3.5757 eV  346.74 nm  f=0.4742  <S**2>=0.000
     244 -> 247        0.38828
     245 -> 247        0.23277
     246 -> 248        0.52320

 Excited State   5:      Singlet-A      3.6754 eV  337.33 nm  f=0.1034  <S**2>=0.000
     240 -> 247        0.42999
     240 -> 249        0.24827
     240 -> 250        0.15540
     242 -> 247       -0.22855
     244 -> 247       -0.28949
     246 -> 248        0.14583

 The electronic state is 1-A.
 Alpha  occ. eigenvalues --  -46.94985 -19.30613 -19.29542 -19.25205 -19.25048
 Alpha  occ. eigenvalues --  -19.23960 -19.23257 -14.47271 -14.45945 -14.44393
 Alpha  occ. eigenvalues --  -14.42965 -10.43998 -10.43859 -10.38997 -10.37822
 Alpha  occ. eigenvalues --  -10.35833 -10.35831 -10.35580 -10.35355 -10.35182
 Alpha  occ. eigenvalues --  -10.34760 -10.34696 -10.34208 -10.33351 -10.32675
 Alpha  occ. eigenvalues --  -10.32548 -10.32503 -10.32226 -10.32027 -10.32021
 Alpha  occ. eigenvalues --  -10.31811 -10.31799 -10.31749 -10.31603 -10.31506
 Alpha  occ. eigenvalues --  -10.31423 -10.31333 -10.31027 -10.31007 -10.30464
 Alpha  occ. eigenvalues --  -10.30453 -10.30388 -10.30174 -10.30072 -10.30036
 Alpha  occ. eigenvalues --  -10.29954 -10.29902 -10.29871 -10.29853 -10.29787
 Alpha  occ. eigenvalues --  -10.29697 -10.29385 -10.29315 -10.29187 -10.29119
 Alpha  occ. eigenvalues --  -10.29117 -10.29000 -10.28910 -10.28910 -10.28892
 Alpha  occ. eigenvalues --  -10.28689 -10.28680 -10.28518 -10.28504 -10.28354
 Alpha  occ. eigenvalues --  -10.27317  -3.20881  -1.94482  -1.93988  -1.93860
 Alpha  occ. eigenvalues --   -1.18743  -1.18366  -1.13974  -1.12915  -1.10140
 Alpha  occ. eigenvalues --   -1.09817  -1.08013  -1.05823  -1.04636  -1.02428
 Alpha  occ. eigenvalues --   -0.96040  -0.92426  -0.91837  -0.91495  -0.90833
 Alpha  occ. eigenvalues --   -0.90127  -0.89944  -0.89583  -0.89036  -0.88883
 Alpha  occ. eigenvalues --   -0.88669  -0.88291  -0.86408  -0.86111  -0.85147
 Alpha  occ. eigenvalues --   -0.84509  -0.83735  -0.83077  -0.82731  -0.82241
 Alpha  occ. eigenvalues --   -0.81218  -0.80362  -0.80275  -0.79783  -0.78465
 Alpha  occ. eigenvalues --   -0.77923  -0.77434  -0.77311  -0.76480  -0.75838
 Alpha  occ. eigenvalues --   -0.75499  -0.75087  -0.73574  -0.73033  -0.71295
 Alpha  occ. eigenvalues --   -0.70612  -0.69995  -0.69620  -0.68225  -0.67698
 Alpha  occ. eigenvalues --   -0.67253  -0.66675  -0.66636  -0.65898  -0.65623
 Alpha  occ. eigenvalues --   -0.65480  -0.65068  -0.64775  -0.64340  -0.62700
 Alpha  occ. eigenvalues --   -0.62256  -0.61703  -0.61447  -0.60899  -0.60622
 Alpha  occ. eigenvalues --   -0.59870  -0.59411  -0.58476  -0.57987  -0.57786
 Alpha  occ. eigenvalues --   -0.57477  -0.57151  -0.56710  -0.56663  -0.56371
 Alpha  occ. eigenvalues --   -0.56238  -0.56026  -0.55674  -0.55495  -0.55220
 Alpha  occ. eigenvalues --   -0.54904  -0.54680  -0.54555  -0.54020  -0.53822
 Alpha  occ. eigenvalues --   -0.53524  -0.53302  -0.53108  -0.52690  -0.52624
 Alpha  occ. eigenvalues --   -0.52553  -0.52369  -0.52011  -0.51916  -0.51677
 Alpha  occ. eigenvalues --   -0.51573  -0.51367  -0.51188  -0.50987  -0.50831
 Alpha  occ. eigenvalues --   -0.50609  -0.50221  -0.49934  -0.49831  -0.49510
 Alpha  occ. eigenvalues --   -0.49451  -0.49182  -0.49029  -0.48677  -0.48496
 Alpha  occ. eigenvalues --   -0.48290  -0.48064  -0.47902  -0.47863  -0.47618
 Alpha  occ. eigenvalues --   -0.47579  -0.47390  -0.47121  -0.47067  -0.46693
 Alpha  occ. eigenvalues --   -0.46533  -0.46443  -0.46167  -0.45910  -0.45763
 Alpha  occ. eigenvalues --   -0.45657  -0.45466  -0.45397  -0.45319  -0.45120
 Alpha  occ. eigenvalues --   -0.45013  -0.44863  -0.44790  -0.44436  -0.43866
 Alpha  occ. eigenvalues --   -0.43759  -0.43546  -0.43428  -0.43177  -0.42958
 Alpha  occ. eigenvalues --   -0.42775  -0.42756  -0.42668  -0.42373  -0.42145
 Alpha  occ. eigenvalues --   -0.41986  -0.41625  -0.41070  -0.40839  -0.40682
 Alpha  occ. eigenvalues --   -0.40488  -0.40167  -0.39868  -0.39839  -0.39713
 Alpha  occ. eigenvalues --   -0.39541  -0.38983  -0.38890  -0.38640  -0.38615
 Alpha  occ. eigenvalues --   -0.38283  -0.38152  -0.36914  -0.36767  -0.36498
 Alpha  occ. eigenvalues --   -0.35882  -0.35414  -0.34433  -0.33943  -0.33339
 Alpha  occ. eigenvalues --   -0.32688  -0.32339  -0.31979  -0.31834  -0.25952
 Alpha  occ. eigenvalues --   -0.22968
 Alpha virt. eigenvalues --   -0.06966   0.00311   0.02728   0.04914   0.05758
 Alpha virt. eigenvalues --    0.06172   0.06665   0.07470   0.07916   0.09833
 Alpha virt. eigenvalues --    0.10438   0.11099   0.11760   0.12155   0.12619

 Mulliken charges:
               1
     1  Mg   0.941458
     2  C   -0.055475
     3  C   -0.087195
     4  C   -0.064311
     5  C   -0.091743
     6  N   -0.379633
     7  C    0.011009
     8  C   -0.068718
     9  C   -0.126249
    10  C    0.005469
    11  C    0.057609
    12  C    0.036135
    13  C    0.036349
    14  C    0.210854
    15  O   -0.251188
    16  O   -0.382060
    17  N   -0.417955
    18  C    0.203818
    19  C   -0.153925
    20  C   -0.062507
    21  C    0.159492
    22  C    0.060595
    23  C    0.022373
    24  O   -0.220593
    25  C   -0.010782
    26  N   -0.398667
    27  C    0.052331
    28  C   -0.131981
    29  C   -0.032681
    30  C    0.088294
    31  C    0.038103
    32  C    0.001140
    33  C   -0.056180
    34  N   -0.401429
    35  C    0.086921
    36  C   -0.230589
    37  C   -0.018880
    38  C    0.147107
    39  C    0.099159
    40  C    0.072070
    41  O   -0.188312
    42  C   -0.030436
    43  C    0.270839
    44  O   -0.246344
    45  O   -0.379667
    46  C    0.131634
    47  C    0.275020
    48  C   -0.139627
    49  C   -0.232999
    50  C    0.009852
    51  C    0.036424
    52  C   -0.082334
    53  C    0.016914
    54  C   -0.198195
    55  C   -0.037002
    56  C    0.055231
    57  C   -0.093730
    58  C    0.013008
    59  C   -0.188432
    60  C    0.004123
    61  C   -0.011747
    62  C   -0.053410
    63  C    0.018170
    64  C   -0.209765
    65  C   -0.031713
    66  C   -0.024294
    67  H   -0.013648
    68  H    0.020709
    69  H    0.001012
    70  H    0.033237
    71  H    0.028965
    72  H    0.057297
    73  H    0.040128
    74  H    0.034045
    75  H    0.032006
    76  H    0.018986
    77  H    0.082881
    78  H    0.054034
    79  H    0.063773
    80  H    0.052859
    81  H    0.034543
    82  H    0.048493
    83  H    0.058776
    84  H    0.057359
    85  H    0.049912
    86  H    0.020966
    87  H    0.038184
    88  H    0.036857
    89  H    0.042779
    90  H    0.036253
    91  H    0.032004
    92  H    0.028720
    93  H    0.031938
    94  H    0.036789
    95  H    0.045047
    96  H    0.053894
    97  H    0.048363
    98  H    0.084692
    99  H    0.048885
   100  H    0.058678
   101  H    0.063318
   102  H    0.037015
   103  H    0.060105
   104  H    0.017343
   105  H    0.050633
   106  H    0.051507
   107  H    0.043432
   108  H    0.057682
   109  H    0.035143
   110  H    0.033237
   111  H    0.038164
   112  H    0.029912
   113  H    0.019509
   114  H    0.022167
   115  H    0.025137
   116  H    0.032088
   117  H    0.024212
   118  H    0.024753
   119  H    0.025678
   120  H    0.027439
   121  H    0.022100
   122  H    0.009962
   123  H    0.025811
   124  H    0.015642
   125  H    0.032521
   126  H    0.033347
   127  H    0.023674
   128  H    0.025637
   129  H    0.016300
   130  H    0.022814
   131  H    0.026737
   132  H    0.027116
   133  H    0.018717
   134  H    0.025860
   135  H    0.028799
   136  H    0.041681
   137  H    0.017076
   138  H    0.046190
   139  H    0.024603
   140  H    0.026775
 Sum of Mulliken charges =  -0.00000

 Dipole moment (field-independent basis, Debye):
    X=              4.6670    Y=              2.5296    Z=             -2.4341  Tot=              5.8400
 Quadrupole moment (field-independent basis, Debye-Ang):
   XX=           -368.6976   YY=           -415.3777   ZZ=           -418.4678
   XY=             -9.9772   XZ=              8.7362   YZ=              2.0599

 Normal termination of Gaussian 16 at Fri Apr 29 12:39:46 2022.
