 Gaussian 16, Revision A.03,
 Gaussian 16:  ES64L-G16RevA.03 25-Dec-2016

 --------------------
 #p ZINDO=(nstates=5)
 --------------------

 -----------------------------
 step_301_chromophore_12 ZINDO
 -----------------------------
 Symbolic Z-matrix:
 Charge =  0 Multiplicity = 1

                         Standard orientation:
 ---------------------------------------------------------------------
 Center     Atomic      Atomic             Coordinates (Angstroms)
 Number     Number       Type             X           Y           Z
 ---------------------------------------------------------------------
      1         12           0       -4.111902    0.155459   -0.246319
      2          6           0       -3.006695   -2.766193    0.879217
      3          6           0       -0.921825    1.222051   -1.019803
      4          6           0       -5.330469    3.221300   -1.360321
      5          6           0       -7.448170   -0.803550    0.693392
      6          7           0       -2.140814   -0.592908    0.087586
      7          6           0       -1.926377   -1.942255    0.439915
      8          6           0       -0.458447   -2.303213    0.189077
      9          6           0        0.197316   -0.928191   -0.030955
     10          6           0       -1.041194   -0.042881   -0.435152
     11          6           0        0.804533   -0.215413    1.127315
     12          6           0       -0.089646   -3.469915   -0.832717
     13          6           0        1.280879   -4.086785   -0.656153
     14          6           0        2.166519   -4.149761   -1.864441
     15          8           0        1.902383   -4.555585   -2.984313
     16          8           0        3.462390   -3.731456   -1.627178
     17          7           0       -3.227667    2.004482   -1.031248
     18          6           0       -1.857360    2.194325   -1.285156
     19          6           0       -1.647303    3.486375   -1.827555
     20          6           0       -2.875977    4.147390   -1.853246
     21          6           0       -3.909370    3.092083   -1.465236
     22          6           0       -0.252944    4.085065   -2.243436
     23          6           0       -3.216521    5.531550   -2.337370
     24          8           0       -4.368148    5.803670   -2.545111
     25          6           0       -2.224090    6.619696   -2.679720
     26          7           0       -6.065317    1.123612   -0.233517
     27          6           0       -6.293698    2.389884   -0.821943
     28          6           0       -7.799538    2.702866   -0.911680
     29          6           0       -8.424443    1.316753   -0.421120
     30          6           0       -7.291088    0.532417    0.157627
     31          6           0       -8.147835    3.893538   -0.027715
     32          6           0       -9.153599    0.525304   -1.494662
     33          6           0      -10.034471    1.263209   -2.501560
     34          7           0       -5.071981   -1.355997    0.735855
     35          6           0       -6.337971   -1.692737    0.977297
     36          6           0       -6.411769   -2.925272    1.594270
     37          6           0       -5.123517   -3.404610    1.557814
     38          6           0       -4.344670   -2.423499    0.977728
     39          6           0       -7.616936   -3.674772    2.009472
     40          6           0       -4.293676   -4.546658    1.792806
     41          8           0       -4.577598   -5.595811    2.305354
     42          6           0       -2.914611   -4.204089    1.328613
     43          6           0       -1.853738   -4.440514    2.318151
     44          8           0       -1.613040   -3.745322    3.305159
     45          8           0       -1.077613   -5.505355    1.898938
     46          6           0       -0.011229   -6.040189    2.716004
     47          6           0        4.549841   -4.175117   -2.466306
     48          6           0        5.872694   -4.132277   -1.801838
     49          6           0        7.052124   -3.667336   -2.271286
     50          6           0        7.356268   -3.517800   -3.833267
     51          6           0        8.202478   -3.430566   -1.284831
     52          6           0        9.120770   -2.274424   -1.820059
     53          6           0        9.890902   -1.508834   -0.622564
     54          6           0       10.046992    0.051330   -0.868684
     55          6           0       11.242136    0.383467   -1.861510
     56          6           0       10.154985    0.927734    0.422631
     57          6           0        9.123278    2.087478    0.338804
     58          6           0        8.547123    2.317260    1.758818
     59          6           0        7.595785    3.543456    1.712725
     60          6           0        8.292171    4.860877    2.112881
     61          6           0        6.290903    3.303821    2.554111
     62          6           0        5.242250    4.375519    2.086666
     63          6           0        4.333912    4.826116    3.292225
     64          6           0        2.890304    5.031265    2.809737
     65          6           0        2.559334    6.502941    3.275191
     66          6           0        1.799072    3.945378    3.296456
     67          1           0        0.112884    1.405480   -1.314971
     68          1           0       -5.813230    4.148356   -1.676679
     69          1           0       -8.442361   -1.216983    0.875259
     70          1           0       -0.089636   -2.664842    1.148799
     71          1           0        0.803146   -0.863170   -0.934325
     72          1           0        0.089782    0.424930    1.642757
     73          1           0        1.662489    0.405586    0.864884
     74          1           0        1.139523   -0.976554    1.832478
     75          1           0       -0.162541   -3.094040   -1.853536
     76          1           0       -0.999484   -4.069917   -0.797527
     77          1           0        1.060173   -5.108033   -0.345818
     78          1           0        1.621018   -3.499984    0.196855
     79          1           0        0.008320    4.956157   -1.643399
     80          1           0       -0.339306    4.255308   -3.316095
     81          1           0        0.624530    3.439966   -2.194976
     82          1           0       -1.485864    6.854912   -1.913839
     83          1           0       -2.877002    7.481577   -2.816342
     84          1           0       -1.681484    6.364241   -3.590840
     85          1           0       -7.973616    2.888198   -1.972040
     86          1           0       -9.077132    1.581591    0.410755
     87          1           0       -8.518399    3.608365    0.956675
     88          1           0       -8.908579    4.499207   -0.519561
     89          1           0       -7.284362    4.544180    0.108009
     90          1           0       -9.731700   -0.259023   -1.005361
     91          1           0       -8.412098    0.080000   -2.157390
     92          1           0       -9.653433    1.205996   -3.520763
     93          1           0      -10.100359    2.342906   -2.361248
     94          1           0      -11.032433    0.830464   -2.559759
     95          1           0       -8.502656   -3.050573    2.132992
     96          1           0       -7.244605   -4.253516    2.854516
     97          1           0       -7.722251   -4.470080    1.271265
     98          1           0       -2.748297   -4.844005    0.461002
     99          1           0        0.984665   -5.784157    2.354713
    100          1           0       -0.118119   -7.125516    2.706566
    101          1           0       -0.131156   -5.711076    3.748145
    102          1           0        4.546350   -3.390844   -3.223855
    103          1           0        4.438885   -5.166821   -2.905008
    104          1           0        5.828885   -4.212186   -0.715611
    105          1           0        8.426074   -3.723686   -3.873964
    106          1           0        7.108095   -2.539184   -4.243364
    107          1           0        6.715649   -4.183284   -4.412802
    108          1           0        8.734395   -4.350315   -1.040801
    109          1           0        7.713145   -2.949911   -0.437860
    110          1           0        8.486441   -1.581243   -2.372387
    111          1           0        9.958054   -2.639265   -2.414278
    112          1           0       10.883562   -1.940394   -0.495831
    113          1           0        9.297263   -1.511655    0.292914
    114          1           0        9.262976    0.388780   -1.545297
    115          1           0       11.449536    1.448977   -1.961977
    116          1           0       11.004725    0.019184   -2.860278
    117          1           0       12.140618   -0.037422   -1.410662
    118          1           0       11.101051    1.467663    0.473394
    119          1           0        9.974004    0.290724    1.288150
    120          1           0        8.278023    1.895459   -0.321853
    121          1           0        9.582325    3.032406    0.047897
    122          1           0        9.456723    2.621578    2.277643
    123          1           0        8.126614    1.406943    2.185777
    124          1           0        7.275982    3.663174    0.677782
    125          1           0        7.867893    5.244629    3.040467
    126          1           0        8.213296    5.672597    1.390174
    127          1           0        9.353152    4.636204    2.226467
    128          1           0        6.444417    3.391917    3.629971
    129          1           0        5.770088    2.366161    2.357502
    130          1           0        4.640533    3.817805    1.368924
    131          1           0        5.819760    5.156208    1.590057
    132          1           0        4.760882    5.733434    3.718541
    133          1           0        4.233860    4.070494    4.071102
    134          1           0        2.834832    5.008451    1.721507
    135          1           0        1.518568    6.754899    3.072774
    136          1           0        3.301697    7.271195    3.058523
    137          1           0        2.627303    6.370292    4.355932
    138          1           0        0.905362    3.735486    2.709498
    139          1           0        1.455654    4.261743    4.281161
    140          1           0        2.342867    3.011321    3.438828
 ---------------------------------------------------------------------

 SCF Done:  E(RZINDO/S) =  -474.395775095     A.U. after   19 cycles

 Excitation energies and oscillator strengths:

 Excited State   1:      Singlet-A      1.2749 eV  972.48 nm  f=0.5607  <S**2>=0.000
     175 ->178        -0.16431
     176 ->177         0.67039
 This state for optimization and/or second-order correction.
 Total Energy, E(CIS/TDA) =  -474.348922341
 Copying the excited state density for this state as the 1-particle RhoCI density.

 Excited State   2:      Singlet-A      1.9336 eV  641.19 nm  f=0.0402  <S**2>=0.000
     175 ->177         0.54432
     176 ->178         0.41897

 Excited State   3:      Singlet-A      2.8914 eV  428.81 nm  f=0.0002  <S**2>=0.000
     167 ->177         0.11922
     167 ->179        -0.17191
     168 ->177         0.28241
     168 ->179        -0.38614
     168 ->181         0.20369
     168 ->186        -0.20375
     168 ->188        -0.10292
     170 ->177        -0.12760
     170 ->179         0.12524

 Excited State   4:      Singlet-A      2.9822 eV  415.74 nm  f=0.9067  <S**2>=0.000
     175 ->177        -0.36010
     176 ->178         0.48935
     176 ->179         0.19149
     176 ->181         0.14707
     176 ->182        -0.11775

 Excited State   5:      Singlet-A      3.0247 eV  409.90 nm  f=0.0472  <S**2>=0.000
     170 ->179        -0.10586
     170 ->181        -0.12543
     171 ->177        -0.27168
     171 ->178        -0.17717
     171 ->179        -0.23290
     171 ->181        -0.27319
     171 ->183        -0.15189
     171 ->186        -0.17898
     171 ->187        -0.17576
     176 ->178        -0.11121

 The electronic state is 1-A.
 Alpha  occ. eigenvalues --   -1.89549  -1.81450  -1.78104  -1.73556  -1.72488
 Alpha  occ. eigenvalues --   -1.71186  -1.64766  -1.62262  -1.61232  -1.59398
 Alpha  occ. eigenvalues --   -1.55234  -1.51801  -1.49609  -1.48943  -1.45486
 Alpha  occ. eigenvalues --   -1.44375  -1.43845  -1.39598  -1.39244  -1.38461
 Alpha  occ. eigenvalues --   -1.36594  -1.34890  -1.33219  -1.31503  -1.27632
 Alpha  occ. eigenvalues --   -1.25571  -1.24682  -1.21493  -1.20657  -1.18737
 Alpha  occ. eigenvalues --   -1.17384  -1.16102  -1.15878  -1.14433  -1.13524
 Alpha  occ. eigenvalues --   -1.12200  -1.11100  -1.10053  -1.05581  -1.04016
 Alpha  occ. eigenvalues --   -1.03940  -1.01520  -0.99356  -0.98826  -0.96742
 Alpha  occ. eigenvalues --   -0.95385  -0.94123  -0.92777  -0.92227  -0.91532
 Alpha  occ. eigenvalues --   -0.90905  -0.88993  -0.87462  -0.87409  -0.86126
 Alpha  occ. eigenvalues --   -0.85788  -0.84222  -0.83590  -0.82667  -0.80658
 Alpha  occ. eigenvalues --   -0.80285  -0.79370  -0.78646  -0.76962  -0.76265
 Alpha  occ. eigenvalues --   -0.76029  -0.75897  -0.74778  -0.74493  -0.73650
 Alpha  occ. eigenvalues --   -0.73415  -0.73171  -0.72959  -0.71962  -0.70434
 Alpha  occ. eigenvalues --   -0.70130  -0.69419  -0.69060  -0.68844  -0.68246
 Alpha  occ. eigenvalues --   -0.67600  -0.67570  -0.67109  -0.66990  -0.65969
 Alpha  occ. eigenvalues --   -0.65342  -0.64994  -0.64697  -0.63822  -0.63406
 Alpha  occ. eigenvalues --   -0.62919  -0.62561  -0.62235  -0.62079  -0.61637
 Alpha  occ. eigenvalues --   -0.61281  -0.61072  -0.60426  -0.60146  -0.59871
 Alpha  occ. eigenvalues --   -0.59181  -0.59133  -0.58870  -0.57995  -0.57849
 Alpha  occ. eigenvalues --   -0.57463  -0.57336  -0.57025  -0.56788  -0.56398
 Alpha  occ. eigenvalues --   -0.55526  -0.55457  -0.55219  -0.55031  -0.54851
 Alpha  occ. eigenvalues --   -0.54210  -0.54020  -0.53604  -0.53508  -0.53255
 Alpha  occ. eigenvalues --   -0.52677  -0.52363  -0.51966  -0.51836  -0.51651
 Alpha  occ. eigenvalues --   -0.51556  -0.51214  -0.51070  -0.50617  -0.50473
 Alpha  occ. eigenvalues --   -0.50328  -0.49931  -0.49723  -0.49333  -0.49129
 Alpha  occ. eigenvalues --   -0.48822  -0.48650  -0.48375  -0.47917  -0.47572
 Alpha  occ. eigenvalues --   -0.47434  -0.47111  -0.46758  -0.46691  -0.46518
 Alpha  occ. eigenvalues --   -0.46413  -0.46318  -0.46197  -0.46101  -0.45703
 Alpha  occ. eigenvalues --   -0.45512  -0.45248  -0.44967  -0.44454  -0.44376
 Alpha  occ. eigenvalues --   -0.43906  -0.43556  -0.43066  -0.42249  -0.42034
 Alpha  occ. eigenvalues --   -0.41523  -0.41035  -0.40286  -0.39451  -0.38758
 Alpha  occ. eigenvalues --   -0.38376  -0.36313  -0.35871  -0.34771  -0.34097
 Alpha  occ. eigenvalues --   -0.33523  -0.32547  -0.32102  -0.31611  -0.26612
 Alpha  occ. eigenvalues --   -0.21635
 Alpha virt. eigenvalues --   -0.08307  -0.01831  -0.00276   0.01388   0.01671
 Alpha virt. eigenvalues --    0.02487   0.02679   0.03200   0.04074   0.05059
 Alpha virt. eigenvalues --    0.06155   0.06778   0.07127   0.07533   0.08537

 Mulliken charges:
               1
     1  Mg   0.426104
     2  C   -0.017367
     3  C   -0.064729
     4  C   -0.082584
     5  C   -0.092403
     6  N   -0.267770
     7  C    0.062811
     8  C    0.004260
     9  C    0.011666
    10  C    0.159618
    11  C   -0.036060
    12  C   -0.026329
    13  C    0.015336
    14  C    0.478357
    15  O   -0.516070
    16  O   -0.288720
    17  N   -0.341951
    18  C    0.131489
    19  C    0.031106
    20  C   -0.034866
    21  C    0.171111
    22  C   -0.049350
    23  C    0.329368
    24  O   -0.507681
    25  C   -0.030581
    26  N   -0.315101
    27  C    0.167309
    28  C    0.003344
    29  C    0.014334
    30  C    0.093553
    31  C   -0.044382
    32  C   -0.019283
    33  C   -0.061285
    34  N   -0.298226
    35  C    0.087486
    36  C    0.011125
    37  C   -0.064233
    38  C    0.094702
    39  C   -0.050030
    40  C    0.339603
    41  O   -0.533054
    42  C    0.064991
    43  C    0.497849
    44  O   -0.527124
    45  O   -0.281801
    46  C    0.077241
    47  C    0.119174
    48  C   -0.085145
    49  C   -0.025397
    50  C   -0.051509
    51  C   -0.023314
    52  C   -0.042469
    53  C   -0.046568
    54  C   -0.031319
    55  C   -0.065867
    56  C   -0.034105
    57  C   -0.041456
    58  C   -0.045570
    59  C   -0.012867
    60  C   -0.055576
    61  C   -0.046654
    62  C   -0.051639
    63  C   -0.030176
    64  C   -0.016424
    65  C   -0.066345
    66  C   -0.062283
    67  H    0.019222
    68  H    0.039557
    69  H    0.033646
    70  H    0.028440
    71  H    0.024890
    72  H    0.031506
    73  H    0.019430
    74  H    0.019414
    75  H    0.021737
    76  H    0.030367
    77  H    0.052912
    78  H    0.044407
    79  H    0.035954
    80  H    0.030966
    81  H    0.023561
    82  H    0.030839
    83  H    0.040856
    84  H    0.040564
    85  H    0.040754
    86  H    0.023948
    87  H    0.025777
    88  H    0.016387
    89  H    0.024809
    90  H    0.022587
    91  H    0.022475
    92  H    0.013357
    93  H    0.018493
    94  H    0.017018
    95  H    0.032736
    96  H    0.037320
    97  H    0.031220
    98  H    0.053140
    99  H    0.035314
   100  H    0.035176
   101  H    0.049579
   102  H    0.040214
   103  H    0.058069
   104  H    0.021638
   105  H    0.031360
   106  H    0.031482
   107  H    0.025871
   108  H    0.041464
   109  H    0.026591
   110  H    0.030945
   111  H    0.022794
   112  H    0.027382
   113  H    0.020408
   114  H    0.020626
   115  H    0.014267
   116  H    0.018500
   117  H    0.016424
   118  H    0.025598
   119  H    0.026932
   120  H    0.019634
   121  H    0.021127
   122  H    0.016553
   123  H    0.027931
   124  H    0.017807
   125  H    0.020052
   126  H    0.017929
   127  H    0.018329
   128  H    0.022797
   129  H    0.015912
   130  H    0.017181
   131  H    0.031048
   132  H    0.025362
   133  H    0.024393
   134  H    0.013134
   135  H    0.015856
   136  H    0.029709
   137  H    0.009371
   138  H    0.028410
   139  H    0.017113
   140  H    0.015148
 Sum of Mulliken charges =  -0.00000

 Dipole moment (field-independent basis, Debye):
    X=              8.0266    Y=              5.0641    Z=             -4.5496  Tot=             10.5247
 N-N= 4.480599918784D+03 E-N= 0.000000000000D+00  KE=-9.635454018824D+03
 Leave Link  601 at Fri Apr 29 12:52:44 2022, MaxMem=  6710886400 cpu:               0.8 elap:               0.1
 (Enter /sw/apps/gaussian-16.0/g16/l9999.exe)
 1\1\GINC-BP1-COMPUTE102\SP\RZINDO CIS\STO-3G\C55H74Mg1N4O6\OF15641\29-
 Apr-2022\0\\#p ZINDO=(nstates=5)\\step_301_chromophore_12 ZINDO\\0,1\M
 g,0,47.533,15.28,27.618\C,0,45.362,15.175,30.128\C,0,49.816,17.074,29.
 484\C,0,49.742,15.402,24.929\C,0,45.142,13.569,25.547\N,0,47.519,16.22
 1,29.534\C,0,46.538,15.897,30.495\C,0,47.009,16.365,31.876\C,0,48.205,
 17.273,31.538\C,0,48.601,16.761,30.102\C,0,47.985,18.736,31.366\C,0,47
 .194,15.307,33.054\C,0,47.168,15.876,34.456\C,0,48.317,15.535,35.357\O

 Normal termination of Gaussian 16 at Fri Apr 29 12:52:44 2022.
