 Gaussian 16, Revision A.03,
 Gaussian 16:  ES64L-G16RevA.03 25-Dec-2016

 ------------------------------
 #p blyp/Def2SVP td=(nstates=5)
 ------------------------------

 --------------------------------------------------
 step_151_chromophore_24 TDDFT with blyp functional
 --------------------------------------------------
 Symbolic Z-matrix:
 Charge =  0 Multiplicity = 1

                         Standard orientation:
 ---------------------------------------------------------------------
 Center     Atomic      Atomic             Coordinates (Angstroms)
 Number     Number       Type             X           Y           Z
 ---------------------------------------------------------------------
      1         12           0        5.265058    1.201351    0.316228
      2          6           0        4.621259   -2.209128    0.502455
      3          6           0        1.825524    1.619262   -0.642931
      4          6           0        5.859991    4.350046   -0.487007
      5          6           0        8.664678    0.541250    0.584508
      6          7           0        3.416839   -0.162383    0.111446
      7          6           0        3.389940   -1.497890    0.256768
      8          6           0        1.951879   -2.033718    0.179672
      9          6           0        1.109792   -0.830983   -0.223650
     10          6           0        2.171535    0.282350   -0.236285
     11          6           0        0.319330   -1.074139   -1.534363
     12          6           0        1.518952   -2.639775    1.582955
     13          6           0        0.574237   -3.854031    1.564350
     14          6           0       -0.132268   -4.258442    0.369949
     15          8           0        0.286252   -5.086349   -0.444973
     16          8           0       -1.309373   -3.604798    0.300934
     17          7           0        3.973644    2.866390   -0.177935
     18          6           0        2.671704    2.753551   -0.614079
     19          6           0        2.224106    4.073438   -1.028673
     20          6           0        3.379713    4.917391   -0.962804
     21          6           0        4.502147    4.068212   -0.492926
     22          6           0        0.767986    4.419165   -1.285954
     23          6           0        3.486155    6.413734   -1.243355
     24          8           0        4.416303    7.139350   -0.909563
     25          6           0        2.304816    7.149312   -1.786582
     26          7           0        6.987986    2.303486    0.125272
     27          6           0        7.004171    3.590159   -0.225664
     28          6           0        8.486983    4.074972   -0.248795
     29          6           0        9.266702    2.928545    0.450854
     30          6           0        8.298393    1.844852    0.360516
     31          6           0        8.832875    4.415350   -1.700040
     32          6           0        9.801241    3.225593    1.990921
     33          6           0        8.830155    4.059841    2.881814
     34          7           0        6.476669   -0.460467    0.589839
     35          6           0        7.848068   -0.571958    0.644511
     36          6           0        8.188579   -1.956983    0.743892
     37          6           0        7.000969   -2.630447    0.734826
     38          6           0        5.923601   -1.697574    0.639253
     39          6           0        9.481563   -2.581546    0.775683
     40          6           0        6.382263   -3.940992    0.842279
     41          8           0        6.902096   -5.053706    1.006708
     42          6           0        4.873562   -3.788819    0.672052
     43          6           0        4.592794   -4.467653   -0.565538
     44          8           0        4.714082   -3.996308   -1.695164
     45          8           0        4.191415   -5.789638   -0.357292
     46          6           0        4.054068   -6.726766   -1.521185
     47          6           0       -2.121506   -4.223492   -0.765789
     48          6           0       -3.456093   -3.508285   -0.774045
     49          6           0       -4.761998   -3.973395   -0.720835
     50          6           0       -5.253672   -5.361980   -0.336842
     51          6           0       -5.940799   -3.029778   -0.900400
     52          6           0       -6.551635   -2.535557    0.458320
     53          6           0       -6.909365   -1.012546    0.478845
     54          6           0       -8.447703   -0.744140    0.419055
     55          6           0       -9.067811   -0.194000    1.716489
     56          6           0       -8.870728    0.007961   -0.860496
     57          6           0      -10.289289   -0.408620   -1.426416
     58          6           0      -11.217942    0.857281   -1.496622
     59          6           0      -12.751230    0.495919   -1.571256
     60          6           0      -13.423875    0.204439   -3.013441
     61          6           0      -13.434658    1.560234   -0.824474
     62          6           0      -13.630899    1.144946    0.639050
     63          6           0      -13.294040    2.207194    1.645775
     64          6           0      -14.533772    3.029148    2.214862
     65          6           0      -14.553662    4.477474    1.602680
     66          6           0      -14.475018    3.044165    3.728181
     67          1           0        0.856436    1.659351   -1.146524
     68          1           0        6.118227    5.316274   -0.925713
     69          1           0        9.707220    0.277447    0.771903
     70          1           0        1.930089   -2.784796   -0.610108
     71          1           0        0.378466   -0.546264    0.532644
     72          1           0        0.644740   -0.410379   -2.335095
     73          1           0       -0.743297   -1.013463   -1.299912
     74          1           0        0.474723   -2.078003   -1.931685
     75          1           0        1.120576   -1.889452    2.265594
     76          1           0        2.480376   -2.904986    2.022562
     77          1           0       -0.082272   -3.736259    2.426324
     78          1           0        1.258700   -4.597065    1.973848
     79          1           0        0.230254    3.619570   -0.776508
     80          1           0        0.728932    4.482302   -2.373480
     81          1           0        0.606125    5.420130   -0.886692
     82          1           0        1.596879    7.549930   -1.062136
     83          1           0        1.785435    6.487564   -2.480731
     84          1           0        2.533373    7.879541   -2.563999
     85          1           0        8.582319    4.998419    0.322061
     86          1           0       10.107846    2.579527   -0.147214
     87          1           0        7.948038    4.216040   -2.304667
     88          1           0        9.763292    3.941227   -2.012624
     89          1           0        8.943033    5.499410   -1.679025
     90          1           0       10.656402    3.896810    1.905234
     91          1           0       10.101262    2.306952    2.493422
     92          1           0        9.181815    5.090745    2.921371
     93          1           0        8.814376    3.577752    3.859514
     94          1           0        7.866883    4.115427    2.373859
     95          1           0       10.120024   -1.948925    0.159282
     96          1           0        9.540655   -3.608133    0.414066
     97          1           0        9.769268   -2.487042    1.823113
     98          1           0        4.316838   -4.309834    1.450934
     99          1           0        4.920343   -6.625240   -2.175188
    100          1           0        3.216501   -6.524093   -2.187193
    101          1           0        4.040143   -7.759720   -1.172800
    102          1           0       -2.260436   -5.298038   -0.643760
    103          1           0       -1.695700   -3.990679   -1.741680
    104          1           0       -3.488596   -2.478855   -1.129913
    105          1           0       -4.480852   -5.905199    0.207043
    106          1           0       -5.241529   -5.802364   -1.333827
    107          1           0       -6.186048   -5.427696    0.223983
    108          1           0       -6.743309   -3.525156   -1.446616
    109          1           0       -5.738046   -2.211311   -1.589732
    110          1           0       -5.945614   -2.704426    1.348751
    111          1           0       -7.419136   -3.161037    0.671211
    112          1           0       -6.457219   -0.493489   -0.367095
    113          1           0       -6.350457   -0.516833    1.272690
    114          1           0       -8.925835   -1.723400    0.411292
    115          1           0       -9.590468    0.741393    1.519453
    116          1           0       -8.249512    0.160430    2.344450
    117          1           0       -9.778307   -0.863685    2.201253
    118          1           0       -8.146505   -0.060975   -1.671677
    119          1           0       -8.864849    1.067176   -0.604658
    120          1           0      -10.712040   -1.265426   -0.901572
    121          1           0      -10.119675   -0.593873   -2.486784
    122          1           0      -10.970263    1.375863   -2.422919
    123          1           0      -10.968234    1.608760   -0.747908
    124          1           0      -12.845999   -0.476258   -1.086118
    125          1           0      -13.061589   -0.726951   -3.446198
    126          1           0      -13.159058    0.918377   -3.793276
    127          1           0      -14.506524    0.248682   -2.894533
    128          1           0      -14.356047    1.945176   -1.261502
    129          1           0      -12.841554    2.454291   -1.017414
    130          1           0      -13.084499    0.277763    1.008929
    131          1           0      -14.668644    0.812099    0.618976
    132          1           0      -12.527635    2.818403    1.168805
    133          1           0      -12.684163    1.836370    2.469473
    134          1           0      -15.473230    2.505426    2.037269
    135          1           0      -13.633134    4.704808    1.066515
    136          1           0      -14.622396    5.298134    2.316773
    137          1           0      -15.475690    4.559715    1.026180
    138          1           0      -13.610520    3.567073    4.137135
    139          1           0      -14.559343    2.020921    4.093988
    140          1           0      -15.394818    3.481364    4.117907
 ---------------------------------------------------------------------

 SCF Done:  E(RB-LYP) =  -3007.33580387     A.U. after   22 cycles

 Excitation energies and oscillator strengths:

 Excited State   1:      Singlet-A      1.8254 eV  679.22 nm  f=0.2892  <S**2>=0.000
     244 -> 247       -0.14993
     245 -> 248        0.19243
     246 -> 247        0.66487
     246 <- 247       -0.13667
 This state for optimization and/or second-order correction.
 Total Energy, E(TD-HF/TD-DFT) =  -3007.26872208
 Copying the excited state density for this state as the 1-particle RhoCI density.

 Excited State   2:      Singlet-A      1.8850 eV  657.73 nm  f=0.0263  <S**2>=0.000
     244 -> 247        0.64969
     245 -> 247        0.21534
     246 -> 247        0.16430

 Excited State   3:      Singlet-A      1.9944 eV  621.65 nm  f=0.0058  <S**2>=0.000
     243 -> 247        0.69324
     245 -> 247       -0.10262

 Excited State   4:      Singlet-A      2.0789 eV  596.40 nm  f=0.0467  <S**2>=0.000
     243 -> 247        0.11902
     244 -> 247       -0.21850
     245 -> 247        0.58489
     246 -> 248       -0.29077

 Excited State   5:      Singlet-A      2.4676 eV  502.44 nm  f=0.0001  <S**2>=0.000
     241 -> 247        0.70191

 The electronic state is 1-A.
 Alpha  occ. eigenvalues --  -46.27181 -18.83270 -18.80324 -18.77050 -18.75382
 Alpha  occ. eigenvalues --  -18.75100 -18.74962 -14.03654 -14.02771 -14.01007
 Alpha  occ. eigenvalues --  -14.00376 -10.04154 -10.02747  -9.99382  -9.99273
 Alpha  occ. eigenvalues --   -9.98583  -9.96913  -9.96622  -9.96620  -9.96294
 Alpha  occ. eigenvalues --   -9.95731  -9.95681  -9.95631  -9.94715  -9.94399
 Alpha  occ. eigenvalues --   -9.94303  -9.94123  -9.93993  -9.93933  -9.93867
 Alpha  occ. eigenvalues --   -9.93737  -9.93721  -9.93643  -9.93600  -9.93328
 Alpha  occ. eigenvalues --   -9.93294  -9.93093  -9.92924  -9.92761  -9.92541
 Alpha  occ. eigenvalues --   -9.92514  -9.92470  -9.92319  -9.92313  -9.92156
 Alpha  occ. eigenvalues --   -9.92150  -9.92053  -9.92047  -9.92007  -9.91845
 Alpha  occ. eigenvalues --   -9.91809  -9.91757  -9.91753  -9.91652  -9.91643
 Alpha  occ. eigenvalues --   -9.91392  -9.91342  -9.91271  -9.91183  -9.91078
 Alpha  occ. eigenvalues --   -9.90886  -9.90775  -9.90648  -9.90529  -9.90322
 Alpha  occ. eigenvalues --   -9.90298  -2.91738  -1.72179  -1.71623  -1.71436
 Alpha  occ. eigenvalues --   -0.99288  -0.95137  -0.90888  -0.90119  -0.90077
 Alpha  occ. eigenvalues --   -0.87518  -0.86653  -0.86144  -0.85504  -0.84884
 Alpha  occ. eigenvalues --   -0.74885  -0.73681  -0.73342  -0.73078  -0.72391
 Alpha  occ. eigenvalues --   -0.71930  -0.71349  -0.71094  -0.70882  -0.70599
 Alpha  occ. eigenvalues --   -0.70220  -0.69489  -0.68076  -0.67619  -0.67229
 Alpha  occ. eigenvalues --   -0.66592  -0.65728  -0.65217  -0.65025  -0.64199
 Alpha  occ. eigenvalues --   -0.64085  -0.62699  -0.62507  -0.61932  -0.60736
 Alpha  occ. eigenvalues --   -0.60547  -0.60053  -0.59773  -0.59707  -0.59138
 Alpha  occ. eigenvalues --   -0.58516  -0.57536  -0.56962  -0.56022  -0.54569
 Alpha  occ. eigenvalues --   -0.54127  -0.53855  -0.52672  -0.52447  -0.51609
 Alpha  occ. eigenvalues --   -0.51139  -0.50714  -0.50494  -0.50430  -0.50216
 Alpha  occ. eigenvalues --   -0.50102  -0.49510  -0.49381  -0.47374  -0.46940
 Alpha  occ. eigenvalues --   -0.46487  -0.45909  -0.45598  -0.45137  -0.44245
 Alpha  occ. eigenvalues --   -0.44061  -0.43830  -0.43611  -0.42760  -0.42454
 Alpha  occ. eigenvalues --   -0.41948  -0.41768  -0.41625  -0.41303  -0.41141
 Alpha  occ. eigenvalues --   -0.40633  -0.40381  -0.40108  -0.39857  -0.39772
 Alpha  occ. eigenvalues --   -0.39662  -0.39426  -0.39406  -0.39250  -0.39101
 Alpha  occ. eigenvalues --   -0.38980  -0.38815  -0.38595  -0.38439  -0.38392
 Alpha  occ. eigenvalues --   -0.38038  -0.38003  -0.37662  -0.37482  -0.37108
 Alpha  occ. eigenvalues --   -0.37072  -0.36824  -0.36608  -0.36495  -0.36287
 Alpha  occ. eigenvalues --   -0.36104  -0.36045  -0.35673  -0.35608  -0.35520
 Alpha  occ. eigenvalues --   -0.35323  -0.35056  -0.35036  -0.34780  -0.34634
 Alpha  occ. eigenvalues --   -0.34515  -0.34429  -0.34144  -0.34000  -0.33922
 Alpha  occ. eigenvalues --   -0.33729  -0.33551  -0.33467  -0.33269  -0.33172
 Alpha  occ. eigenvalues --   -0.32959  -0.32862  -0.32630  -0.32411  -0.32349
 Alpha  occ. eigenvalues --   -0.32068  -0.31778  -0.31363  -0.31199  -0.31103
 Alpha  occ. eigenvalues --   -0.31073  -0.30817  -0.30738  -0.30570  -0.30446
 Alpha  occ. eigenvalues --   -0.30303  -0.30240  -0.30118  -0.29914  -0.29738
 Alpha  occ. eigenvalues --   -0.29362  -0.29343  -0.28991  -0.28952  -0.28937
 Alpha  occ. eigenvalues --   -0.28624  -0.28472  -0.28211  -0.28164  -0.27798
 Alpha  occ. eigenvalues --   -0.27382  -0.27211  -0.27090  -0.26921  -0.26333
 Alpha  occ. eigenvalues --   -0.26159  -0.25992  -0.25911  -0.25668  -0.25332
 Alpha  occ. eigenvalues --   -0.25302  -0.24181  -0.23917  -0.23531  -0.23327
 Alpha  occ. eigenvalues --   -0.23157  -0.22311  -0.21687  -0.20536  -0.20390
 Alpha  occ. eigenvalues --   -0.20168  -0.20108  -0.18326  -0.17963  -0.17202
 Alpha  occ. eigenvalues --   -0.15520
 Alpha virt. eigenvalues --   -0.11100  -0.06826  -0.06168  -0.04810  -0.03879
 Alpha virt. eigenvalues --   -0.02809  -0.02245  -0.01441  -0.01096   0.00448
 Alpha virt. eigenvalues --    0.01410   0.01555   0.02116   0.02503   0.02744

 Mulliken charges:
               1
     1  Mg   0.686641
     2  C    0.038722
     3  C   -0.101466
     4  C   -0.029617
     5  C   -0.110700
     6  N   -0.173719
     7  C   -0.097168
     8  C    0.033647
     9  C    0.005519
    10  C   -0.005132
    11  C    0.110254
    12  C    0.087019
    13  C    0.197085
    14  C    0.091887
    15  O   -0.211330
    16  O   -0.256685
    17  N   -0.262862
    18  C    0.159065
    19  C   -0.188992
    20  C    0.034021
    21  C    0.105995
    22  C    0.194365
    23  C   -0.063346
    24  O   -0.174269
    25  C    0.117092
    26  N   -0.257568
    27  C    0.010937
    28  C   -0.027201
    29  C    0.071457
    30  C    0.070340
    31  C    0.153671
    32  C    0.066637
    33  C    0.052747
    34  N   -0.272097
    35  C    0.102896
    36  C   -0.186709
    37  C    0.134020
    38  C    0.060086
    39  C    0.187976
    40  C   -0.075463
    41  O   -0.148042
    42  C    0.082034
    43  C    0.109554
    44  O   -0.198696
    45  O   -0.291462
    46  C    0.232608
    47  C    0.324970
    48  C   -0.074764
    49  C   -0.188897
    50  C    0.138012
    51  C    0.126144
    52  C    0.066994
    53  C    0.106493
    54  C   -0.082859
    55  C    0.117306
    56  C    0.098848
    57  C    0.088034
    58  C    0.046663
    59  C   -0.055030
    60  C    0.080128
    61  C    0.121696
    62  C    0.081403
    63  C    0.103588
    64  C   -0.064608
    65  C    0.108024
    66  C    0.092385
    67  H   -0.043457
    68  H   -0.052281
    69  H   -0.069862
    70  H    0.003754
    71  H   -0.017387
    72  H   -0.003781
    73  H   -0.003174
    74  H   -0.000877
    75  H   -0.024241
    76  H   -0.026515
    77  H   -0.020403
    78  H   -0.013826
    79  H    0.006313
    80  H    0.017722
    81  H    0.000233
    82  H    0.033926
    83  H   -0.044362
    84  H   -0.010342
    85  H   -0.024786
    86  H   -0.042716
    87  H    0.004077
    88  H   -0.002209
    89  H   -0.007121
    90  H   -0.017295
    91  H   -0.012428
    92  H   -0.005444
    93  H    0.002744
    94  H    0.011715
    95  H   -0.011513
    96  H    0.014464
    97  H    0.003049
    98  H   -0.003627
    99  H    0.004278
   100  H    0.017476
   101  H    0.017297
   102  H    0.000415
   103  H    0.007195
   104  H   -0.041369
   105  H   -0.013212
   106  H    0.006594
   107  H    0.012561
   108  H   -0.035864
   109  H   -0.030308
   110  H   -0.022437
   111  H   -0.022640
   112  H   -0.044483
   113  H   -0.037525
   114  H   -0.036492
   115  H   -0.030445
   116  H   -0.025494
   117  H   -0.002544
   118  H   -0.039476
   119  H   -0.038117
   120  H   -0.013433
   121  H   -0.030070
   122  H   -0.037640
   123  H   -0.016069
   124  H   -0.034009
   125  H   -0.018351
   126  H   -0.025359
   127  H   -0.005908
   128  H   -0.057103
   129  H   -0.046374
   130  H   -0.027995
   131  H   -0.028405
   132  H   -0.043032
   133  H   -0.048856
   134  H   -0.034343
   135  H   -0.013480
   136  H   -0.029575
   137  H   -0.012010
   138  H   -0.009191
   139  H   -0.023856
   140  H   -0.028987
 Sum of Mulliken charges =  -0.00000

 Dipole moment (field-independent basis, Debye):
    X=             -4.6635    Y=              1.0862    Z=              0.7775  Tot=              4.8510
 Quadrupole moment (field-independent basis, Debye-Ang):
   XX=           -380.1663   YY=           -437.9050   ZZ=           -401.9329
   XY=             28.5624   XZ=              8.6805   YZ=             -0.6361

 Normal termination of Gaussian 16 at Thu Apr 28 10:44:05 2022.
