 Gaussian 16, Revision A.03,
 Gaussian 16:  ES64L-G16RevA.03 25-Dec-2016

 -----------------------------------
 #p cam-b3lyp/Def2SVP td=(nstates=5)
 -----------------------------------

 -------------------------------------------------------
 step_151_chromophore_24 TDDFT with cam-b3lyp functional
 -------------------------------------------------------
 Symbolic Z-matrix:
 Charge =  0 Multiplicity = 1

                         Standard orientation:
 ---------------------------------------------------------------------
 Center     Atomic      Atomic             Coordinates (Angstroms)
 Number     Number       Type             X           Y           Z
 ---------------------------------------------------------------------
      1         12           0        5.265058    1.201351    0.316228
      2          6           0        4.621259   -2.209128    0.502455
      3          6           0        1.825524    1.619262   -0.642931
      4          6           0        5.859991    4.350046   -0.487007
      5          6           0        8.664678    0.541250    0.584508
      6          7           0        3.416839   -0.162383    0.111446
      7          6           0        3.389940   -1.497890    0.256768
      8          6           0        1.951879   -2.033718    0.179672
      9          6           0        1.109792   -0.830983   -0.223650
     10          6           0        2.171535    0.282350   -0.236285
     11          6           0        0.319330   -1.074139   -1.534363
     12          6           0        1.518952   -2.639775    1.582955
     13          6           0        0.574237   -3.854031    1.564350
     14          6           0       -0.132268   -4.258442    0.369949
     15          8           0        0.286252   -5.086349   -0.444973
     16          8           0       -1.309373   -3.604798    0.300934
     17          7           0        3.973644    2.866390   -0.177935
     18          6           0        2.671704    2.753551   -0.614079
     19          6           0        2.224106    4.073438   -1.028673
     20          6           0        3.379713    4.917391   -0.962804
     21          6           0        4.502147    4.068212   -0.492926
     22          6           0        0.767986    4.419165   -1.285954
     23          6           0        3.486155    6.413734   -1.243355
     24          8           0        4.416303    7.139350   -0.909563
     25          6           0        2.304816    7.149312   -1.786582
     26          7           0        6.987986    2.303486    0.125272
     27          6           0        7.004171    3.590159   -0.225664
     28          6           0        8.486983    4.074972   -0.248795
     29          6           0        9.266702    2.928545    0.450854
     30          6           0        8.298393    1.844852    0.360516
     31          6           0        8.832875    4.415350   -1.700040
     32          6           0        9.801241    3.225593    1.990921
     33          6           0        8.830155    4.059841    2.881814
     34          7           0        6.476669   -0.460467    0.589839
     35          6           0        7.848068   -0.571958    0.644511
     36          6           0        8.188579   -1.956983    0.743892
     37          6           0        7.000969   -2.630447    0.734826
     38          6           0        5.923601   -1.697574    0.639253
     39          6           0        9.481563   -2.581546    0.775683
     40          6           0        6.382263   -3.940992    0.842279
     41          8           0        6.902096   -5.053706    1.006708
     42          6           0        4.873562   -3.788819    0.672052
     43          6           0        4.592794   -4.467653   -0.565538
     44          8           0        4.714082   -3.996308   -1.695164
     45          8           0        4.191415   -5.789638   -0.357292
     46          6           0        4.054068   -6.726766   -1.521185
     47          6           0       -2.121506   -4.223492   -0.765789
     48          6           0       -3.456093   -3.508285   -0.774045
     49          6           0       -4.761998   -3.973395   -0.720835
     50          6           0       -5.253672   -5.361980   -0.336842
     51          6           0       -5.940799   -3.029778   -0.900400
     52          6           0       -6.551635   -2.535557    0.458320
     53          6           0       -6.909365   -1.012546    0.478845
     54          6           0       -8.447703   -0.744140    0.419055
     55          6           0       -9.067811   -0.194000    1.716489
     56          6           0       -8.870728    0.007961   -0.860496
     57          6           0      -10.289289   -0.408620   -1.426416
     58          6           0      -11.217942    0.857281   -1.496622
     59          6           0      -12.751230    0.495919   -1.571256
     60          6           0      -13.423875    0.204439   -3.013441
     61          6           0      -13.434658    1.560234   -0.824474
     62          6           0      -13.630899    1.144946    0.639050
     63          6           0      -13.294040    2.207194    1.645775
     64          6           0      -14.533772    3.029148    2.214862
     65          6           0      -14.553662    4.477474    1.602680
     66          6           0      -14.475018    3.044165    3.728181
     67          1           0        0.856436    1.659351   -1.146524
     68          1           0        6.118227    5.316274   -0.925713
     69          1           0        9.707220    0.277447    0.771903
     70          1           0        1.930089   -2.784796   -0.610108
     71          1           0        0.378466   -0.546264    0.532644
     72          1           0        0.644740   -0.410379   -2.335095
     73          1           0       -0.743297   -1.013463   -1.299912
     74          1           0        0.474723   -2.078003   -1.931685
     75          1           0        1.120576   -1.889452    2.265594
     76          1           0        2.480376   -2.904986    2.022562
     77          1           0       -0.082272   -3.736259    2.426324
     78          1           0        1.258700   -4.597065    1.973848
     79          1           0        0.230254    3.619570   -0.776508
     80          1           0        0.728932    4.482302   -2.373480
     81          1           0        0.606125    5.420130   -0.886692
     82          1           0        1.596879    7.549930   -1.062136
     83          1           0        1.785435    6.487564   -2.480731
     84          1           0        2.533373    7.879541   -2.563999
     85          1           0        8.582319    4.998419    0.322061
     86          1           0       10.107846    2.579527   -0.147214
     87          1           0        7.948038    4.216040   -2.304667
     88          1           0        9.763292    3.941227   -2.012624
     89          1           0        8.943033    5.499410   -1.679025
     90          1           0       10.656402    3.896810    1.905234
     91          1           0       10.101262    2.306952    2.493422
     92          1           0        9.181815    5.090745    2.921371
     93          1           0        8.814376    3.577752    3.859514
     94          1           0        7.866883    4.115427    2.373859
     95          1           0       10.120024   -1.948925    0.159282
     96          1           0        9.540655   -3.608133    0.414066
     97          1           0        9.769268   -2.487042    1.823113
     98          1           0        4.316838   -4.309834    1.450934
     99          1           0        4.920343   -6.625240   -2.175188
    100          1           0        3.216501   -6.524093   -2.187193
    101          1           0        4.040143   -7.759720   -1.172800
    102          1           0       -2.260436   -5.298038   -0.643760
    103          1           0       -1.695700   -3.990679   -1.741680
    104          1           0       -3.488596   -2.478855   -1.129913
    105          1           0       -4.480852   -5.905199    0.207043
    106          1           0       -5.241529   -5.802364   -1.333827
    107          1           0       -6.186048   -5.427696    0.223983
    108          1           0       -6.743309   -3.525156   -1.446616
    109          1           0       -5.738046   -2.211311   -1.589732
    110          1           0       -5.945614   -2.704426    1.348751
    111          1           0       -7.419136   -3.161037    0.671211
    112          1           0       -6.457219   -0.493489   -0.367095
    113          1           0       -6.350457   -0.516833    1.272690
    114          1           0       -8.925835   -1.723400    0.411292
    115          1           0       -9.590468    0.741393    1.519453
    116          1           0       -8.249512    0.160430    2.344450
    117          1           0       -9.778307   -0.863685    2.201253
    118          1           0       -8.146505   -0.060975   -1.671677
    119          1           0       -8.864849    1.067176   -0.604658
    120          1           0      -10.712040   -1.265426   -0.901572
    121          1           0      -10.119675   -0.593873   -2.486784
    122          1           0      -10.970263    1.375863   -2.422919
    123          1           0      -10.968234    1.608760   -0.747908
    124          1           0      -12.845999   -0.476258   -1.086118
    125          1           0      -13.061589   -0.726951   -3.446198
    126          1           0      -13.159058    0.918377   -3.793276
    127          1           0      -14.506524    0.248682   -2.894533
    128          1           0      -14.356047    1.945176   -1.261502
    129          1           0      -12.841554    2.454291   -1.017414
    130          1           0      -13.084499    0.277763    1.008929
    131          1           0      -14.668644    0.812099    0.618976
    132          1           0      -12.527635    2.818403    1.168805
    133          1           0      -12.684163    1.836370    2.469473
    134          1           0      -15.473230    2.505426    2.037269
    135          1           0      -13.633134    4.704808    1.066515
    136          1           0      -14.622396    5.298134    2.316773
    137          1           0      -15.475690    4.559715    1.026180
    138          1           0      -13.610520    3.567073    4.137135
    139          1           0      -14.559343    2.020921    4.093988
    140          1           0      -15.394818    3.481364    4.117907
 ---------------------------------------------------------------------

 SCF Done:  E(RCAM-B3LYP) =  -3007.12883926     A.U. after   17 cycles

 Excitation energies and oscillator strengths:

 Excited State   1:      Singlet-A      1.7398 eV  712.63 nm  f=0.3787  <S**2>=0.000
     245 -> 248       -0.19100
     246 -> 247        0.68304
     245 <- 248       -0.11005
 This state for optimization and/or second-order correction.
 Total Energy, E(TD-HF/TD-DFT) =  -3007.06490235
 Copying the excited state density for this state as the 1-particle RhoCI density.

 Excited State   2:      Singlet-A      2.2927 eV  540.78 nm  f=0.0603  <S**2>=0.000
     245 -> 247        0.61276
     246 -> 248        0.34308

 Excited State   3:      Singlet-A      3.4228 eV  362.23 nm  f=0.2354  <S**2>=0.000
     243 -> 247        0.40763
     244 -> 247       -0.32547
     245 -> 247        0.17990
     246 -> 248       -0.39287

 Excited State   4:      Singlet-A      3.5161 eV  352.62 nm  f=0.3516  <S**2>=0.000
     240 -> 247       -0.20818
     240 -> 249        0.14197
     240 -> 250       -0.11444
     241 -> 247       -0.12577
     241 -> 249       -0.10271
     244 -> 247        0.41368
     245 -> 247        0.21712
     246 -> 248       -0.38957

 Excited State   5:      Singlet-A      3.5439 eV  349.86 nm  f=0.0038  <S**2>=0.000
     239 -> 247        0.11660
     240 -> 247        0.45131
     240 -> 249       -0.26268
     240 -> 250        0.18067
     241 -> 247       -0.19038
     244 -> 247        0.27539

 The electronic state is 1-A.
 Alpha  occ. eigenvalues --  -46.88733 -19.26233 -19.23152 -19.19997 -19.18432
 Alpha  occ. eigenvalues --  -19.18421 -19.18186 -14.42642 -14.41525 -14.39517
 Alpha  occ. eigenvalues --  -14.38681 -10.39379 -10.38179 -10.34800 -10.34488
 Alpha  occ. eigenvalues --  -10.32753 -10.31288 -10.31278 -10.30903 -10.30560
 Alpha  occ. eigenvalues --  -10.30384 -10.30227 -10.29834 -10.28787 -10.28700
 Alpha  occ. eigenvalues --  -10.28613 -10.28430 -10.28360 -10.28212 -10.28008
 Alpha  occ. eigenvalues --  -10.27790 -10.27723 -10.27628 -10.27512 -10.27436
 Alpha  occ. eigenvalues --  -10.27246 -10.27182 -10.27019 -10.26735 -10.26522
 Alpha  occ. eigenvalues --  -10.26439 -10.26289 -10.26178 -10.26079 -10.26026
 Alpha  occ. eigenvalues --  -10.25902 -10.25896 -10.25776 -10.25750 -10.25627
 Alpha  occ. eigenvalues --  -10.25522 -10.25515 -10.25374 -10.25356 -10.25352
 Alpha  occ. eigenvalues --  -10.25207 -10.25111 -10.25079 -10.24866 -10.24680
 Alpha  occ. eigenvalues --  -10.24482 -10.24385 -10.24324 -10.24173 -10.24113
 Alpha  occ. eigenvalues --  -10.23912  -3.17192  -1.92110  -1.91651  -1.91475
 Alpha  occ. eigenvalues --   -1.17777  -1.13603  -1.09522  -1.08376  -1.07944
 Alpha  occ. eigenvalues --   -1.05301  -1.04404  -1.03792  -1.03054  -1.02452
 Alpha  occ. eigenvalues --   -0.91931  -0.90552  -0.90161  -0.89882  -0.89119
 Alpha  occ. eigenvalues --   -0.88626  -0.87979  -0.87596  -0.87380  -0.87172
 Alpha  occ. eigenvalues --   -0.86843  -0.86084  -0.84334  -0.83773  -0.83345
 Alpha  occ. eigenvalues --   -0.82628  -0.81860  -0.81252  -0.80946  -0.80096
 Alpha  occ. eigenvalues --   -0.79929  -0.78309  -0.78136  -0.77681  -0.76109
 Alpha  occ. eigenvalues --   -0.75864  -0.75416  -0.75098  -0.74940  -0.74382
 Alpha  occ. eigenvalues --   -0.73613  -0.72485  -0.71869  -0.70866  -0.69127
 Alpha  occ. eigenvalues --   -0.68729  -0.68402  -0.67178  -0.66871  -0.65853
 Alpha  occ. eigenvalues --   -0.65359  -0.64792  -0.64525  -0.64410  -0.64090
 Alpha  occ. eigenvalues --   -0.63995  -0.63497  -0.63338  -0.60982  -0.60586
 Alpha  occ. eigenvalues --   -0.60164  -0.59396  -0.59011  -0.58554  -0.57714
 Alpha  occ. eigenvalues --   -0.57393  -0.57235  -0.56907  -0.55902  -0.55539
 Alpha  occ. eigenvalues --   -0.55231  -0.54895  -0.54562  -0.54066  -0.53892
 Alpha  occ. eigenvalues --   -0.53334  -0.53102  -0.52877  -0.52700  -0.52579
 Alpha  occ. eigenvalues --   -0.52206  -0.52151  -0.52046  -0.51891  -0.51688
 Alpha  occ. eigenvalues --   -0.51515  -0.51248  -0.51085  -0.50871  -0.50721
 Alpha  occ. eigenvalues --   -0.50443  -0.50252  -0.50172  -0.49872  -0.49513
 Alpha  occ. eigenvalues --   -0.49387  -0.49212  -0.48940  -0.48859  -0.48610
 Alpha  occ. eigenvalues --   -0.48367  -0.48148  -0.48112  -0.47815  -0.47735
 Alpha  occ. eigenvalues --   -0.47667  -0.47497  -0.47331  -0.46676  -0.46555
 Alpha  occ. eigenvalues --   -0.46402  -0.46263  -0.45851  -0.45799  -0.45648
 Alpha  occ. eigenvalues --   -0.45505  -0.45265  -0.45215  -0.44857  -0.44763
 Alpha  occ. eigenvalues --   -0.44631  -0.44470  -0.44363  -0.44211  -0.43991
 Alpha  occ. eigenvalues --   -0.43728  -0.43312  -0.43018  -0.42905  -0.42544
 Alpha  occ. eigenvalues --   -0.42505  -0.42417  -0.42123  -0.42015  -0.41874
 Alpha  occ. eigenvalues --   -0.41782  -0.41752  -0.41519  -0.41273  -0.41018
 Alpha  occ. eigenvalues --   -0.40670  -0.40458  -0.40431  -0.40100  -0.40000
 Alpha  occ. eigenvalues --   -0.39971  -0.39535  -0.39464  -0.39070  -0.38751
 Alpha  occ. eigenvalues --   -0.38323  -0.38306  -0.37932  -0.37791  -0.37692
 Alpha  occ. eigenvalues --   -0.37240  -0.36596  -0.36555  -0.36512  -0.36356
 Alpha  occ. eigenvalues --   -0.36012  -0.35053  -0.34645  -0.34487  -0.34327
 Alpha  occ. eigenvalues --   -0.33537  -0.33373  -0.32867  -0.30863  -0.30557
 Alpha  occ. eigenvalues --   -0.30348  -0.29869  -0.29759  -0.29386  -0.24022
 Alpha  occ. eigenvalues --   -0.20728
 Alpha virt. eigenvalues --   -0.08054  -0.01828   0.00335   0.02109   0.03152
 Alpha virt. eigenvalues --    0.03822   0.04620   0.05469   0.06284   0.06692
 Alpha virt. eigenvalues --    0.08068   0.08149   0.08700   0.09016   0.09186

 Mulliken charges:
               1
     1  Mg   0.819496
     2  C    0.014532
     3  C   -0.111271
     4  C   -0.054046
     5  C   -0.112624
     6  N   -0.240322
     7  C   -0.057294
     8  C   -0.020206
     9  C   -0.045569
    10  C    0.015903
    11  C    0.052079
    12  C    0.043680
    13  C    0.121566
    14  C    0.162190
    15  O   -0.251651
    16  O   -0.316789
    17  N   -0.351475
    18  C    0.164839
    19  C   -0.184622
    20  C   -0.039795
    21  C    0.138270
    22  C    0.132456
    23  C    0.017701
    24  O   -0.209519
    25  C    0.033553
    26  N   -0.332284
    27  C    0.027897
    28  C   -0.077185
    29  C    0.009890
    30  C    0.084627
    31  C    0.094067
    32  C    0.020920
    33  C   -0.008352
    34  N   -0.361931
    35  C    0.105977
    36  C   -0.184120
    37  C    0.053781
    38  C    0.094151
    39  C    0.129023
    40  C    0.020905
    41  O   -0.186700
    42  C    0.004305
    43  C    0.203363
    44  O   -0.234407
    45  O   -0.357701
    46  C    0.195738
    47  C    0.289364
    48  C   -0.091497
    49  C   -0.205731
    50  C    0.071753
    51  C    0.066088
    52  C    0.013725
    53  C    0.051664
    54  C   -0.138855
    55  C    0.061933
    56  C    0.050250
    57  C    0.029728
    58  C    0.002915
    59  C   -0.112976
    60  C    0.030952
    61  C    0.062171
    62  C    0.026109
    63  C    0.047753
    64  C   -0.123234
    65  C    0.047004
    66  C    0.033413
    67  H   -0.008134
    68  H   -0.015009
    69  H   -0.033552
    70  H    0.036493
    71  H    0.018468
    72  H    0.021759
    73  H    0.019731
    74  H    0.022546
    75  H    0.006525
    76  H    0.003911
    77  H    0.016180
    78  H    0.020269
    79  H    0.034184
    80  H    0.044669
    81  H    0.028230
    82  H    0.061921
    83  H   -0.013730
    84  H    0.024133
    85  H    0.011068
    86  H   -0.005464
    87  H    0.029985
    88  H    0.022798
    89  H    0.017003
    90  H    0.009908
    91  H    0.014643
    92  H    0.017081
    93  H    0.026813
    94  H    0.029766
    95  H    0.011889
    96  H    0.042685
    97  H    0.029147
    98  H    0.039575
    99  H    0.027977
   100  H    0.039410
   101  H    0.040131
   102  H    0.029483
   103  H    0.035558
   104  H   -0.012340
   105  H    0.011827
   106  H    0.032007
   107  H    0.036718
   108  H   -0.004537
   109  H   -0.001433
   110  H    0.007775
   111  H    0.003202
   112  H   -0.015606
   113  H   -0.007280
   114  H   -0.006116
   115  H   -0.009046
   116  H   -0.000671
   117  H    0.020321
   118  H   -0.010551
   119  H   -0.010630
   120  H    0.011938
   121  H   -0.000980
   122  H   -0.009710
   123  H    0.007012
   124  H   -0.003090
   125  H    0.005080
   126  H   -0.002644
   127  H    0.016805
   128  H   -0.024584
   129  H   -0.017917
   130  H   -0.000207
   131  H    0.000210
   132  H   -0.016520
   133  H   -0.017731
   134  H   -0.003123
   135  H    0.009459
   136  H   -0.003697
   137  H    0.011467
   138  H    0.013389
   139  H    0.000993
   140  H   -0.003415
 Sum of Mulliken charges =  -0.00000

 Dipole moment (field-independent basis, Debye):
    X=             -5.3906    Y=              1.7386    Z=              0.4945  Tot=              5.6855
 Quadrupole moment (field-independent basis, Debye-Ang):
   XX=           -383.6770   YY=           -433.9873   ZZ=           -401.0927
   XY=             29.8800   XZ=              8.2801   YZ=             -2.4799

 Normal termination of Gaussian 16 at Thu Apr 28 09:43:25 2022.
