 Gaussian 16, Revision A.03,
 Gaussian 16:  ES64L-G16RevA.03 25-Dec-2016

 ---------------------------------
 #p PBE1PBE/Def2SVP td=(nstates=5)
 ---------------------------------

 -----------------------------------------------------
 step_151_chromophore_24 TDDFT with PBE1PBE functional
 -----------------------------------------------------
 Symbolic Z-matrix:
 Charge =  0 Multiplicity = 1

                         Standard orientation:
 ---------------------------------------------------------------------
 Center     Atomic      Atomic             Coordinates (Angstroms)
 Number     Number       Type             X           Y           Z
 ---------------------------------------------------------------------
      1         12           0        5.265058    1.201351    0.316228
      2          6           0        4.621259   -2.209128    0.502455
      3          6           0        1.825524    1.619262   -0.642931
      4          6           0        5.859991    4.350046   -0.487007
      5          6           0        8.664678    0.541250    0.584508
      6          7           0        3.416839   -0.162383    0.111446
      7          6           0        3.389940   -1.497890    0.256768
      8          6           0        1.951879   -2.033718    0.179672
      9          6           0        1.109792   -0.830983   -0.223650
     10          6           0        2.171535    0.282350   -0.236285
     11          6           0        0.319330   -1.074139   -1.534363
     12          6           0        1.518952   -2.639775    1.582955
     13          6           0        0.574237   -3.854031    1.564350
     14          6           0       -0.132268   -4.258442    0.369949
     15          8           0        0.286252   -5.086349   -0.444973
     16          8           0       -1.309373   -3.604798    0.300934
     17          7           0        3.973644    2.866390   -0.177935
     18          6           0        2.671704    2.753551   -0.614079
     19          6           0        2.224106    4.073438   -1.028673
     20          6           0        3.379713    4.917391   -0.962804
     21          6           0        4.502147    4.068212   -0.492926
     22          6           0        0.767986    4.419165   -1.285954
     23          6           0        3.486155    6.413734   -1.243355
     24          8           0        4.416303    7.139350   -0.909563
     25          6           0        2.304816    7.149312   -1.786582
     26          7           0        6.987986    2.303486    0.125272
     27          6           0        7.004171    3.590159   -0.225664
     28          6           0        8.486983    4.074972   -0.248795
     29          6           0        9.266702    2.928545    0.450854
     30          6           0        8.298393    1.844852    0.360516
     31          6           0        8.832875    4.415350   -1.700040
     32          6           0        9.801241    3.225593    1.990921
     33          6           0        8.830155    4.059841    2.881814
     34          7           0        6.476669   -0.460467    0.589839
     35          6           0        7.848068   -0.571958    0.644511
     36          6           0        8.188579   -1.956983    0.743892
     37          6           0        7.000969   -2.630447    0.734826
     38          6           0        5.923601   -1.697574    0.639253
     39          6           0        9.481563   -2.581546    0.775683
     40          6           0        6.382263   -3.940992    0.842279
     41          8           0        6.902096   -5.053706    1.006708
     42          6           0        4.873562   -3.788819    0.672052
     43          6           0        4.592794   -4.467653   -0.565538
     44          8           0        4.714082   -3.996308   -1.695164
     45          8           0        4.191415   -5.789638   -0.357292
     46          6           0        4.054068   -6.726766   -1.521185
     47          6           0       -2.121506   -4.223492   -0.765789
     48          6           0       -3.456093   -3.508285   -0.774045
     49          6           0       -4.761998   -3.973395   -0.720835
     50          6           0       -5.253672   -5.361980   -0.336842
     51          6           0       -5.940799   -3.029778   -0.900400
     52          6           0       -6.551635   -2.535557    0.458320
     53          6           0       -6.909365   -1.012546    0.478845
     54          6           0       -8.447703   -0.744140    0.419055
     55          6           0       -9.067811   -0.194000    1.716489
     56          6           0       -8.870728    0.007961   -0.860496
     57          6           0      -10.289289   -0.408620   -1.426416
     58          6           0      -11.217942    0.857281   -1.496622
     59          6           0      -12.751230    0.495919   -1.571256
     60          6           0      -13.423875    0.204439   -3.013441
     61          6           0      -13.434658    1.560234   -0.824474
     62          6           0      -13.630899    1.144946    0.639050
     63          6           0      -13.294040    2.207194    1.645775
     64          6           0      -14.533772    3.029148    2.214862
     65          6           0      -14.553662    4.477474    1.602680
     66          6           0      -14.475018    3.044165    3.728181
     67          1           0        0.856436    1.659351   -1.146524
     68          1           0        6.118227    5.316274   -0.925713
     69          1           0        9.707220    0.277447    0.771903
     70          1           0        1.930089   -2.784796   -0.610108
     71          1           0        0.378466   -0.546264    0.532644
     72          1           0        0.644740   -0.410379   -2.335095
     73          1           0       -0.743297   -1.013463   -1.299912
     74          1           0        0.474723   -2.078003   -1.931685
     75          1           0        1.120576   -1.889452    2.265594
     76          1           0        2.480376   -2.904986    2.022562
     77          1           0       -0.082272   -3.736259    2.426324
     78          1           0        1.258700   -4.597065    1.973848
     79          1           0        0.230254    3.619570   -0.776508
     80          1           0        0.728932    4.482302   -2.373480
     81          1           0        0.606125    5.420130   -0.886692
     82          1           0        1.596879    7.549930   -1.062136
     83          1           0        1.785435    6.487564   -2.480731
     84          1           0        2.533373    7.879541   -2.563999
     85          1           0        8.582319    4.998419    0.322061
     86          1           0       10.107846    2.579527   -0.147214
     87          1           0        7.948038    4.216040   -2.304667
     88          1           0        9.763292    3.941227   -2.012624
     89          1           0        8.943033    5.499410   -1.679025
     90          1           0       10.656402    3.896810    1.905234
     91          1           0       10.101262    2.306952    2.493422
     92          1           0        9.181815    5.090745    2.921371
     93          1           0        8.814376    3.577752    3.859514
     94          1           0        7.866883    4.115427    2.373859
     95          1           0       10.120024   -1.948925    0.159282
     96          1           0        9.540655   -3.608133    0.414066
     97          1           0        9.769268   -2.487042    1.823113
     98          1           0        4.316838   -4.309834    1.450934
     99          1           0        4.920343   -6.625240   -2.175188
    100          1           0        3.216501   -6.524093   -2.187193
    101          1           0        4.040143   -7.759720   -1.172800
    102          1           0       -2.260436   -5.298038   -0.643760
    103          1           0       -1.695700   -3.990679   -1.741680
    104          1           0       -3.488596   -2.478855   -1.129913
    105          1           0       -4.480852   -5.905199    0.207043
    106          1           0       -5.241529   -5.802364   -1.333827
    107          1           0       -6.186048   -5.427696    0.223983
    108          1           0       -6.743309   -3.525156   -1.446616
    109          1           0       -5.738046   -2.211311   -1.589732
    110          1           0       -5.945614   -2.704426    1.348751
    111          1           0       -7.419136   -3.161037    0.671211
    112          1           0       -6.457219   -0.493489   -0.367095
    113          1           0       -6.350457   -0.516833    1.272690
    114          1           0       -8.925835   -1.723400    0.411292
    115          1           0       -9.590468    0.741393    1.519453
    116          1           0       -8.249512    0.160430    2.344450
    117          1           0       -9.778307   -0.863685    2.201253
    118          1           0       -8.146505   -0.060975   -1.671677
    119          1           0       -8.864849    1.067176   -0.604658
    120          1           0      -10.712040   -1.265426   -0.901572
    121          1           0      -10.119675   -0.593873   -2.486784
    122          1           0      -10.970263    1.375863   -2.422919
    123          1           0      -10.968234    1.608760   -0.747908
    124          1           0      -12.845999   -0.476258   -1.086118
    125          1           0      -13.061589   -0.726951   -3.446198
    126          1           0      -13.159058    0.918377   -3.793276
    127          1           0      -14.506524    0.248682   -2.894533
    128          1           0      -14.356047    1.945176   -1.261502
    129          1           0      -12.841554    2.454291   -1.017414
    130          1           0      -13.084499    0.277763    1.008929
    131          1           0      -14.668644    0.812099    0.618976
    132          1           0      -12.527635    2.818403    1.168805
    133          1           0      -12.684163    1.836370    2.469473
    134          1           0      -15.473230    2.505426    2.037269
    135          1           0      -13.633134    4.704808    1.066515
    136          1           0      -14.622396    5.298134    2.316773
    137          1           0      -15.475690    4.559715    1.026180
    138          1           0      -13.610520    3.567073    4.137135
    139          1           0      -14.559343    2.020921    4.093988
    140          1           0      -15.394818    3.481364    4.117907
 ---------------------------------------------------------------------

 SCF Done:  E(RPBE1PBE) =  -3005.31885791     A.U. after   15 cycles

 Excitation energies and oscillator strengths:

 Excited State   1:      Singlet-A      1.8845 eV  657.91 nm  f=0.3725  <S**2>=0.000
     245 -> 248       -0.18392
     246 -> 247        0.69000
 This state for optimization and/or second-order correction.
 Total Energy, E(TD-HF/TD-DFT) =  -3005.24960337
 Copying the excited state density for this state as the 1-particle RhoCI density.

 Excited State   2:      Singlet-A      2.2963 eV  539.94 nm  f=0.0647  <S**2>=0.000
     245 -> 247        0.62856
     246 -> 248        0.31448

 Excited State   3:      Singlet-A      3.0116 eV  411.69 nm  f=0.0005  <S**2>=0.000
     240 -> 247       -0.16719
     242 -> 247       -0.21497
     244 -> 247        0.59983
     244 -> 249       -0.12353

 Excited State   4:      Singlet-A      3.0718 eV  403.62 nm  f=0.0003  <S**2>=0.000
     241 -> 247        0.57015
     241 -> 249        0.17596
     242 -> 247        0.33212

 Excited State   5:      Singlet-A      3.1630 eV  391.98 nm  f=0.0019  <S**2>=0.000
     240 -> 247        0.33410
     241 -> 247       -0.27169
     242 -> 247        0.42489
     243 -> 247        0.12211
     244 -> 247        0.31643

 The electronic state is 1-A.
 Alpha  occ. eigenvalues --  -46.92122 -19.26875 -19.23840 -19.20312 -19.18664
 Alpha  occ. eigenvalues --  -19.18520 -19.18494 -14.42080 -14.41111 -14.39111
 Alpha  occ. eigenvalues --  -14.38410 -10.36393 -10.35186 -10.31793 -10.31735
 Alpha  occ. eigenvalues --  -10.30126 -10.29157 -10.28919 -10.28514 -10.27858
 Alpha  occ. eigenvalues --  -10.27799 -10.27739 -10.27696 -10.26655 -10.26507
 Alpha  occ. eigenvalues --  -10.26230 -10.26147 -10.26086 -10.25894 -10.25841
 Alpha  occ. eigenvalues --  -10.25474 -10.25458 -10.25348 -10.25320 -10.25187
 Alpha  occ. eigenvalues --  -10.24759 -10.24758 -10.24525 -10.24347 -10.24234
 Alpha  occ. eigenvalues --  -10.23849 -10.23813 -10.23747 -10.23616 -10.23614
 Alpha  occ. eigenvalues --  -10.23554 -10.23522 -10.23497 -10.23428 -10.23215
 Alpha  occ. eigenvalues --  -10.23108 -10.22962 -10.22930 -10.22817 -10.22749
 Alpha  occ. eigenvalues --  -10.22692 -10.22679 -10.22656 -10.22258 -10.22063
 Alpha  occ. eigenvalues --  -10.22046 -10.22004 -10.21876 -10.21759 -10.21468
 Alpha  occ. eigenvalues --  -10.21446  -3.14165  -1.87024  -1.86544  -1.86369
 Alpha  occ. eigenvalues --   -1.12586  -1.08339  -1.04121  -1.03195  -1.02804
 Alpha  occ. eigenvalues --   -1.00129  -0.99018  -0.98420  -0.97758  -0.97101
 Alpha  occ. eigenvalues --   -0.86341  -0.84694  -0.84292  -0.84029  -0.83441
 Alpha  occ. eigenvalues --   -0.82745  -0.82270  -0.81997  -0.81718  -0.81278
 Alpha  occ. eigenvalues --   -0.81047  -0.80302  -0.78549  -0.78075  -0.77580
 Alpha  occ. eigenvalues --   -0.76835  -0.76050  -0.75392  -0.75239  -0.74365
 Alpha  occ. eigenvalues --   -0.74098  -0.72655  -0.72404  -0.71928  -0.70299
 Alpha  occ. eigenvalues --   -0.70171  -0.69478  -0.69317  -0.69207  -0.68554
 Alpha  occ. eigenvalues --   -0.67907  -0.66982  -0.66301  -0.65183  -0.63443
 Alpha  occ. eigenvalues --   -0.63011  -0.62844  -0.61549  -0.61103  -0.60351
 Alpha  occ. eigenvalues --   -0.59575  -0.59312  -0.58969  -0.58634  -0.58617
 Alpha  occ. eigenvalues --   -0.58524  -0.57662  -0.57524  -0.55581  -0.54970
 Alpha  occ. eigenvalues --   -0.54648  -0.53995  -0.53550  -0.53189  -0.52165
 Alpha  occ. eigenvalues --   -0.52027  -0.51644  -0.51373  -0.50498  -0.50122
 Alpha  occ. eigenvalues --   -0.49840  -0.49465  -0.49070  -0.48538  -0.48354
 Alpha  occ. eigenvalues --   -0.47870  -0.47568  -0.47329  -0.47088  -0.46957
 Alpha  occ. eigenvalues --   -0.46835  -0.46653  -0.46613  -0.46381  -0.46234
 Alpha  occ. eigenvalues --   -0.46001  -0.45838  -0.45708  -0.45416  -0.45276
 Alpha  occ. eigenvalues --   -0.45033  -0.44741  -0.44643  -0.44545  -0.44150
 Alpha  occ. eigenvalues --   -0.43961  -0.43787  -0.43552  -0.43456  -0.43202
 Alpha  occ. eigenvalues --   -0.42992  -0.42767  -0.42671  -0.42468  -0.42341
 Alpha  occ. eigenvalues --   -0.42250  -0.42085  -0.41949  -0.41385  -0.41201
 Alpha  occ. eigenvalues --   -0.41070  -0.40907  -0.40578  -0.40521  -0.40373
 Alpha  occ. eigenvalues --   -0.40297  -0.39955  -0.39823  -0.39687  -0.39443
 Alpha  occ. eigenvalues --   -0.39380  -0.39292  -0.39130  -0.38997  -0.38763
 Alpha  occ. eigenvalues --   -0.38535  -0.38161  -0.37768  -0.37704  -0.37358
 Alpha  occ. eigenvalues --   -0.37262  -0.37168  -0.36892  -0.36773  -0.36657
 Alpha  occ. eigenvalues --   -0.36556  -0.36508  -0.36298  -0.36100  -0.35975
 Alpha  occ. eigenvalues --   -0.35575  -0.35252  -0.35184  -0.35042  -0.34773
 Alpha  occ. eigenvalues --   -0.34749  -0.34486  -0.34222  -0.33816  -0.33638
 Alpha  occ. eigenvalues --   -0.33254  -0.33057  -0.32726  -0.32710  -0.32530
 Alpha  occ. eigenvalues --   -0.32225  -0.31658  -0.31557  -0.31454  -0.31177
 Alpha  occ. eigenvalues --   -0.30840  -0.29972  -0.29582  -0.29521  -0.29277
 Alpha  occ. eigenvalues --   -0.28982  -0.28455  -0.27588  -0.26544  -0.25451
 Alpha  occ. eigenvalues --   -0.25274  -0.25228  -0.25196  -0.24895  -0.20930
 Alpha  occ. eigenvalues --   -0.18403
 Alpha virt. eigenvalues --   -0.10609  -0.05259  -0.03887  -0.02278  -0.00736
 Alpha virt. eigenvalues --    0.00105   0.00260   0.01372   0.01771   0.03202
 Alpha virt. eigenvalues --    0.04204   0.04654   0.04990   0.05466   0.05699

 Mulliken charges:
               1
     1  Mg   0.965400
     2  C   -0.001853
     3  C   -0.095067
     4  C   -0.046260
     5  C   -0.097252
     6  N   -0.344339
     7  C    0.017096
     8  C   -0.096820
     9  C   -0.114521
    10  C    0.057000
    11  C   -0.006668
    12  C   -0.004645
    13  C    0.052109
    14  C    0.219392
    15  O   -0.283633
    16  O   -0.344913
    17  N   -0.466210
    18  C    0.180543
    19  C   -0.204216
    20  C   -0.090713
    21  C    0.171113
    22  C    0.061930
    23  C    0.068554
    24  O   -0.245724
    25  C   -0.039055
    26  N   -0.435241
    27  C    0.052618
    28  C   -0.152738
    29  C   -0.061645
    30  C    0.116155
    31  C    0.038602
    32  C   -0.037580
    33  C   -0.084498
    34  N   -0.493080
    35  C    0.134258
    36  C   -0.215390
    37  C    0.005229
    38  C    0.156978
    39  C    0.075671
    40  C    0.113857
    41  O   -0.230988
    42  C   -0.105852
    43  C    0.302064
    44  O   -0.268120
    45  O   -0.390603
    46  C    0.140940
    47  C    0.242872
    48  C   -0.103634
    49  C   -0.249222
    50  C    0.007773
    51  C    0.003256
    52  C   -0.045865
    53  C    0.001432
    54  C   -0.224157
    55  C    0.004683
    56  C   -0.002720
    57  C   -0.037319
    58  C   -0.046318
    59  C   -0.197654
    60  C   -0.029339
    61  C    0.005378
    62  C   -0.033197
    63  C   -0.005569
    64  C   -0.215851
    65  C   -0.010565
    66  C   -0.030878
    67  H    0.022329
    68  H    0.017716
    69  H   -0.001988
    70  H    0.075810
    71  H    0.054754
    72  H    0.048746
    73  H    0.047871
    74  H    0.049201
    75  H    0.037533
    76  H    0.039853
    77  H    0.048643
    78  H    0.053244
    79  H    0.060096
    80  H    0.072705
    81  H    0.058300
    82  H    0.086361
    83  H    0.014309
    84  H    0.050859
    85  H    0.047855
    86  H    0.031551
    87  H    0.058742
    88  H    0.049782
    89  H    0.044738
    90  H    0.043771
    91  H    0.046119
    92  H    0.044683
    93  H    0.054790
    94  H    0.062659
    95  H    0.039910
    96  H    0.069753
    97  H    0.059120
    98  H    0.074580
    99  H    0.049657
   100  H    0.060766
   101  H    0.061692
   102  H    0.056220
   103  H    0.063258
   104  H    0.017569
   105  H    0.040213
   106  H    0.061516
   107  H    0.062254
   108  H    0.029056
   109  H    0.028730
   110  H    0.039947
   111  H    0.033941
   112  H    0.016403
   113  H    0.023968
   114  H    0.033181
   115  H    0.019701
   116  H    0.026889
   117  H    0.046005
   118  H    0.021314
   119  H    0.021823
   120  H    0.041239
   121  H    0.034077
   122  H    0.023961
   123  H    0.037859
   124  H    0.035465
   125  H    0.032510
   126  H    0.024814
   127  H    0.043928
   128  H    0.007345
   129  H    0.014391
   130  H    0.030991
   131  H    0.033023
   132  H    0.015368
   133  H    0.014093
   134  H    0.033304
   135  H    0.035512
   136  H    0.023266
   137  H    0.038527
   138  H    0.040913
   139  H    0.030135
   140  H    0.025793
 Sum of Mulliken charges =  -0.00000

 Dipole moment (field-independent basis, Debye):
    X=             -5.0949    Y=              1.5130    Z=              0.6201  Tot=              5.3509
 Quadrupole moment (field-independent basis, Debye-Ang):
   XX=           -374.9014   YY=           -432.0050   ZZ=           -398.5785
   XY=             29.7802   XZ=              9.1793   YZ=             -2.2272

 Normal termination of Gaussian 16 at Thu Apr 28 10:02:35 2022.
