 Gaussian 16, Revision A.03,
 Gaussian 16:  ES64L-G16RevA.03 25-Dec-2016

 --------------------------------
 #p wB97XD/Def2SVP td=(nstates=5)
 --------------------------------

 ----------------------------------------------------
 step_151_chromophore_24 TDDFT with wB97XD functional
 ----------------------------------------------------
 Symbolic Z-matrix:
 Charge =  0 Multiplicity = 1

                         Standard orientation:
 ---------------------------------------------------------------------
 Center     Atomic      Atomic             Coordinates (Angstroms)
 Number     Number       Type             X           Y           Z
 ---------------------------------------------------------------------
      1         12           0        5.265058    1.201351    0.316228
      2          6           0        4.621259   -2.209128    0.502455
      3          6           0        1.825524    1.619262   -0.642931
      4          6           0        5.859991    4.350046   -0.487007
      5          6           0        8.664678    0.541250    0.584508
      6          7           0        3.416839   -0.162383    0.111446
      7          6           0        3.389940   -1.497890    0.256768
      8          6           0        1.951879   -2.033718    0.179672
      9          6           0        1.109792   -0.830983   -0.223650
     10          6           0        2.171535    0.282350   -0.236285
     11          6           0        0.319330   -1.074139   -1.534363
     12          6           0        1.518952   -2.639775    1.582955
     13          6           0        0.574237   -3.854031    1.564350
     14          6           0       -0.132268   -4.258442    0.369949
     15          8           0        0.286252   -5.086349   -0.444973
     16          8           0       -1.309373   -3.604798    0.300934
     17          7           0        3.973644    2.866390   -0.177935
     18          6           0        2.671704    2.753551   -0.614079
     19          6           0        2.224106    4.073438   -1.028673
     20          6           0        3.379713    4.917391   -0.962804
     21          6           0        4.502147    4.068212   -0.492926
     22          6           0        0.767986    4.419165   -1.285954
     23          6           0        3.486155    6.413734   -1.243355
     24          8           0        4.416303    7.139350   -0.909563
     25          6           0        2.304816    7.149312   -1.786582
     26          7           0        6.987986    2.303486    0.125272
     27          6           0        7.004171    3.590159   -0.225664
     28          6           0        8.486983    4.074972   -0.248795
     29          6           0        9.266702    2.928545    0.450854
     30          6           0        8.298393    1.844852    0.360516
     31          6           0        8.832875    4.415350   -1.700040
     32          6           0        9.801241    3.225593    1.990921
     33          6           0        8.830155    4.059841    2.881814
     34          7           0        6.476669   -0.460467    0.589839
     35          6           0        7.848068   -0.571958    0.644511
     36          6           0        8.188579   -1.956983    0.743892
     37          6           0        7.000969   -2.630447    0.734826
     38          6           0        5.923601   -1.697574    0.639253
     39          6           0        9.481563   -2.581546    0.775683
     40          6           0        6.382263   -3.940992    0.842279
     41          8           0        6.902096   -5.053706    1.006708
     42          6           0        4.873562   -3.788819    0.672052
     43          6           0        4.592794   -4.467653   -0.565538
     44          8           0        4.714082   -3.996308   -1.695164
     45          8           0        4.191415   -5.789638   -0.357292
     46          6           0        4.054068   -6.726766   -1.521185
     47          6           0       -2.121506   -4.223492   -0.765789
     48          6           0       -3.456093   -3.508285   -0.774045
     49          6           0       -4.761998   -3.973395   -0.720835
     50          6           0       -5.253672   -5.361980   -0.336842
     51          6           0       -5.940799   -3.029778   -0.900400
     52          6           0       -6.551635   -2.535557    0.458320
     53          6           0       -6.909365   -1.012546    0.478845
     54          6           0       -8.447703   -0.744140    0.419055
     55          6           0       -9.067811   -0.194000    1.716489
     56          6           0       -8.870728    0.007961   -0.860496
     57          6           0      -10.289289   -0.408620   -1.426416
     58          6           0      -11.217942    0.857281   -1.496622
     59          6           0      -12.751230    0.495919   -1.571256
     60          6           0      -13.423875    0.204439   -3.013441
     61          6           0      -13.434658    1.560234   -0.824474
     62          6           0      -13.630899    1.144946    0.639050
     63          6           0      -13.294040    2.207194    1.645775
     64          6           0      -14.533772    3.029148    2.214862
     65          6           0      -14.553662    4.477474    1.602680
     66          6           0      -14.475018    3.044165    3.728181
     67          1           0        0.856436    1.659351   -1.146524
     68          1           0        6.118227    5.316274   -0.925713
     69          1           0        9.707220    0.277447    0.771903
     70          1           0        1.930089   -2.784796   -0.610108
     71          1           0        0.378466   -0.546264    0.532644
     72          1           0        0.644740   -0.410379   -2.335095
     73          1           0       -0.743297   -1.013463   -1.299912
     74          1           0        0.474723   -2.078003   -1.931685
     75          1           0        1.120576   -1.889452    2.265594
     76          1           0        2.480376   -2.904986    2.022562
     77          1           0       -0.082272   -3.736259    2.426324
     78          1           0        1.258700   -4.597065    1.973848
     79          1           0        0.230254    3.619570   -0.776508
     80          1           0        0.728932    4.482302   -2.373480
     81          1           0        0.606125    5.420130   -0.886692
     82          1           0        1.596879    7.549930   -1.062136
     83          1           0        1.785435    6.487564   -2.480731
     84          1           0        2.533373    7.879541   -2.563999
     85          1           0        8.582319    4.998419    0.322061
     86          1           0       10.107846    2.579527   -0.147214
     87          1           0        7.948038    4.216040   -2.304667
     88          1           0        9.763292    3.941227   -2.012624
     89          1           0        8.943033    5.499410   -1.679025
     90          1           0       10.656402    3.896810    1.905234
     91          1           0       10.101262    2.306952    2.493422
     92          1           0        9.181815    5.090745    2.921371
     93          1           0        8.814376    3.577752    3.859514
     94          1           0        7.866883    4.115427    2.373859
     95          1           0       10.120024   -1.948925    0.159282
     96          1           0        9.540655   -3.608133    0.414066
     97          1           0        9.769268   -2.487042    1.823113
     98          1           0        4.316838   -4.309834    1.450934
     99          1           0        4.920343   -6.625240   -2.175188
    100          1           0        3.216501   -6.524093   -2.187193
    101          1           0        4.040143   -7.759720   -1.172800
    102          1           0       -2.260436   -5.298038   -0.643760
    103          1           0       -1.695700   -3.990679   -1.741680
    104          1           0       -3.488596   -2.478855   -1.129913
    105          1           0       -4.480852   -5.905199    0.207043
    106          1           0       -5.241529   -5.802364   -1.333827
    107          1           0       -6.186048   -5.427696    0.223983
    108          1           0       -6.743309   -3.525156   -1.446616
    109          1           0       -5.738046   -2.211311   -1.589732
    110          1           0       -5.945614   -2.704426    1.348751
    111          1           0       -7.419136   -3.161037    0.671211
    112          1           0       -6.457219   -0.493489   -0.367095
    113          1           0       -6.350457   -0.516833    1.272690
    114          1           0       -8.925835   -1.723400    0.411292
    115          1           0       -9.590468    0.741393    1.519453
    116          1           0       -8.249512    0.160430    2.344450
    117          1           0       -9.778307   -0.863685    2.201253
    118          1           0       -8.146505   -0.060975   -1.671677
    119          1           0       -8.864849    1.067176   -0.604658
    120          1           0      -10.712040   -1.265426   -0.901572
    121          1           0      -10.119675   -0.593873   -2.486784
    122          1           0      -10.970263    1.375863   -2.422919
    123          1           0      -10.968234    1.608760   -0.747908
    124          1           0      -12.845999   -0.476258   -1.086118
    125          1           0      -13.061589   -0.726951   -3.446198
    126          1           0      -13.159058    0.918377   -3.793276
    127          1           0      -14.506524    0.248682   -2.894533
    128          1           0      -14.356047    1.945176   -1.261502
    129          1           0      -12.841554    2.454291   -1.017414
    130          1           0      -13.084499    0.277763    1.008929
    131          1           0      -14.668644    0.812099    0.618976
    132          1           0      -12.527635    2.818403    1.168805
    133          1           0      -12.684163    1.836370    2.469473
    134          1           0      -15.473230    2.505426    2.037269
    135          1           0      -13.633134    4.704808    1.066515
    136          1           0      -14.622396    5.298134    2.316773
    137          1           0      -15.475690    4.559715    1.026180
    138          1           0      -13.610520    3.567073    4.137135
    139          1           0      -14.559343    2.020921    4.093988
    140          1           0      -15.394818    3.481364    4.117907
 ---------------------------------------------------------------------

 SCF Done:  E(RwB97XD) =  -3007.82811564     A.U. after   19 cycles

 Excitation energies and oscillator strengths:

 Excited State   1:      Singlet-A      1.6868 eV  735.04 nm  f=0.3764  <S**2>=0.000
     245 -> 248       -0.19605
     246 -> 247        0.68103
     245 <- 248       -0.11913
 This state for optimization and/or second-order correction.
 Total Energy, E(TD-HF/TD-DFT) =  -3007.76612814
 Copying the excited state density for this state as the 1-particle RhoCI density.

 Excited State   2:      Singlet-A      2.2388 eV  553.80 nm  f=0.0591  <S**2>=0.000
     245 -> 247        0.61181
     246 -> 248        0.34323

 Excited State   3:      Singlet-A      3.4302 eV  361.44 nm  f=0.2684  <S**2>=0.000
     242 -> 247        0.42751
     242 -> 249       -0.10152
     244 -> 247       -0.27043
     245 -> 247        0.18618
     246 -> 248       -0.41339

 Excited State   4:      Singlet-A      3.5320 eV  351.03 nm  f=0.2798  <S**2>=0.000
     240 -> 247        0.31494
     240 -> 249       -0.22666
     240 -> 250        0.17230
     242 -> 249       -0.10985
     244 -> 247       -0.33232
     245 -> 247       -0.18928
     246 -> 248        0.34151

 Excited State   5:      Singlet-A      3.5578 eV  348.49 nm  f=0.0693  <S**2>=0.000
     240 -> 247        0.39829
     240 -> 249       -0.23177
     240 -> 250        0.14036
     241 -> 247       -0.17329
     244 -> 247        0.37350
     245 -> 247        0.10357
     246 -> 248       -0.15969

 The electronic state is 1-A.
 Alpha  occ. eigenvalues --  -46.95059 -19.31448 -19.28367 -19.24941 -19.23493
 Alpha  occ. eigenvalues --  -19.23339 -19.23210 -14.47232 -14.46112 -14.44130
 Alpha  occ. eigenvalues --  -14.43256 -10.43176 -10.41986 -10.38806 -10.38480
 Alpha  occ. eigenvalues --  -10.36656 -10.35342 -10.35285 -10.34955 -10.34468
 Alpha  occ. eigenvalues --  -10.34326 -10.34280 -10.33803 -10.32961 -10.32903
 Alpha  occ. eigenvalues --  -10.32557 -10.32458 -10.32324 -10.32240 -10.32057
 Alpha  occ. eigenvalues --  -10.31762 -10.31754 -10.31731 -10.31544 -10.31470
 Alpha  occ. eigenvalues --  -10.31338 -10.31227 -10.30958 -10.30606 -10.30537
 Alpha  occ. eigenvalues --  -10.30271 -10.30233 -10.30144 -10.29975 -10.29950
 Alpha  occ. eigenvalues --  -10.29869 -10.29844 -10.29797 -10.29769 -10.29511
 Alpha  occ. eigenvalues --  -10.29478 -10.29407 -10.29308 -10.29307 -10.29166
 Alpha  occ. eigenvalues --  -10.29056 -10.29027 -10.29024 -10.28708 -10.28495
 Alpha  occ. eigenvalues --  -10.28380 -10.28238 -10.28193 -10.28169 -10.27922
 Alpha  occ. eigenvalues --  -10.27816  -3.20969  -1.94575  -1.94095  -1.93919
 Alpha  occ. eigenvalues --   -1.19954  -1.15724  -1.11778  -1.10577  -1.10131
 Alpha  occ. eigenvalues --   -1.07471  -1.06400  -1.05782  -1.05094  -1.04494
 Alpha  occ. eigenvalues --   -0.93890  -0.92364  -0.91941  -0.91685  -0.91050
 Alpha  occ. eigenvalues --   -0.90414  -0.89894  -0.89498  -0.89275  -0.88949
 Alpha  occ. eigenvalues --   -0.88761  -0.88011  -0.86203  -0.85669  -0.85204
 Alpha  occ. eigenvalues --   -0.84485  -0.83773  -0.83134  -0.82858  -0.82037
 Alpha  occ. eigenvalues --   -0.81772  -0.80230  -0.80076  -0.79621  -0.77960
 Alpha  occ. eigenvalues --   -0.77775  -0.77192  -0.76919  -0.76871  -0.76220
 Alpha  occ. eigenvalues --   -0.75520  -0.74470  -0.73829  -0.72787  -0.71017
 Alpha  occ. eigenvalues --   -0.70606  -0.70366  -0.69178  -0.68746  -0.67829
 Alpha  occ. eigenvalues --   -0.67216  -0.66808  -0.66369  -0.66326  -0.66054
 Alpha  occ. eigenvalues --   -0.65967  -0.65316  -0.65166  -0.62960  -0.62487
 Alpha  occ. eigenvalues --   -0.62164  -0.61378  -0.60978  -0.60543  -0.59634
 Alpha  occ. eigenvalues --   -0.59382  -0.59116  -0.58824  -0.57887  -0.57468
 Alpha  occ. eigenvalues --   -0.57199  -0.56899  -0.56474  -0.55941  -0.55792
 Alpha  occ. eigenvalues --   -0.55251  -0.54978  -0.54805  -0.54616  -0.54520
 Alpha  occ. eigenvalues --   -0.54125  -0.54027  -0.53926  -0.53780  -0.53585
 Alpha  occ. eigenvalues --   -0.53384  -0.53136  -0.52990  -0.52768  -0.52611
 Alpha  occ. eigenvalues --   -0.52354  -0.52150  -0.52101  -0.51781  -0.51426
 Alpha  occ. eigenvalues --   -0.51362  -0.51099  -0.50832  -0.50752  -0.50515
 Alpha  occ. eigenvalues --   -0.50293  -0.50090  -0.49976  -0.49745  -0.49654
 Alpha  occ. eigenvalues --   -0.49607  -0.49406  -0.49248  -0.48567  -0.48439
 Alpha  occ. eigenvalues --   -0.48274  -0.48151  -0.47773  -0.47686  -0.47550
 Alpha  occ. eigenvalues --   -0.47396  -0.47148  -0.47075  -0.46790  -0.46599
 Alpha  occ. eigenvalues --   -0.46516  -0.46385  -0.46271  -0.46162  -0.45918
 Alpha  occ. eigenvalues --   -0.45635  -0.45233  -0.44919  -0.44834  -0.44460
 Alpha  occ. eigenvalues --   -0.44357  -0.44327  -0.44127  -0.43972  -0.43802
 Alpha  occ. eigenvalues --   -0.43685  -0.43641  -0.43401  -0.43247  -0.42940
 Alpha  occ. eigenvalues --   -0.42560  -0.42371  -0.42303  -0.42008  -0.41851
 Alpha  occ. eigenvalues --   -0.41825  -0.41404  -0.41316  -0.40904  -0.40617
 Alpha  occ. eigenvalues --   -0.40223  -0.40146  -0.39784  -0.39750  -0.39590
 Alpha  occ. eigenvalues --   -0.39166  -0.38677  -0.38469  -0.38447  -0.38201
 Alpha  occ. eigenvalues --   -0.37849  -0.37029  -0.36504  -0.36372  -0.36317
 Alpha  occ. eigenvalues --   -0.35642  -0.35365  -0.34743  -0.33081  -0.32563
 Alpha  occ. eigenvalues --   -0.32282  -0.31933  -0.31908  -0.31535  -0.25953
 Alpha  occ. eigenvalues --   -0.22530
 Alpha virt. eigenvalues --   -0.06394   0.00076   0.02390   0.04219   0.06073
 Alpha virt. eigenvalues --    0.06268   0.06823   0.07934   0.08559   0.09453
 Alpha virt. eigenvalues --    0.10827   0.11554   0.11726   0.12269   0.12393

 Mulliken charges:
               1
     1  Mg   0.956392
     2  C   -0.000392
     3  C   -0.115608
     4  C   -0.067812
     5  C   -0.117589
     6  N   -0.308566
     7  C   -0.014018
     8  C   -0.068237
     9  C   -0.094037
    10  C    0.041532
    11  C    0.004102
    12  C    0.008546
    13  C    0.063182
    14  C    0.208933
    15  O   -0.280331
    16  O   -0.343466
    17  N   -0.433879
    18  C    0.177481
    19  C   -0.195104
    20  C   -0.084468
    21  C    0.166130
    22  C    0.079707
    23  C    0.063906
    24  O   -0.238347
    25  C   -0.027406
    26  N   -0.405259
    27  C    0.047488
    28  C   -0.128610
    29  C   -0.035545
    30  C    0.102715
    31  C    0.047084
    32  C   -0.025807
    33  C   -0.064408
    34  N   -0.452694
    35  C    0.121596
    36  C   -0.202478
    37  C    0.008334
    38  C    0.132144
    39  C    0.082839
    40  C    0.093872
    41  O   -0.222022
    42  C   -0.067405
    43  C    0.276794
    44  O   -0.262746
    45  O   -0.390184
    46  C    0.155932
    47  C    0.257543
    48  C   -0.112004
    49  C   -0.231805
    50  C    0.018600
    51  C    0.022325
    52  C   -0.031612
    53  C    0.014850
    54  C   -0.193285
    55  C    0.016427
    56  C    0.014250
    57  C   -0.020593
    58  C   -0.029375
    59  C   -0.169081
    60  C   -0.014764
    61  C    0.023498
    62  C   -0.019715
    63  C    0.011263
    64  C   -0.187482
    65  C   -0.000507
    66  C   -0.018032
    67  H    0.015758
    68  H    0.011779
    69  H   -0.007394
    70  H    0.060868
    71  H    0.045273
    72  H    0.043152
    73  H    0.042810
    74  H    0.042973
    75  H    0.031466
    76  H    0.026512
    77  H    0.044093
    78  H    0.048251
    79  H    0.056113
    80  H    0.068281
    81  H    0.051793
    82  H    0.084534
    83  H    0.006254
    84  H    0.049711
    85  H    0.037389
    86  H    0.022229
    87  H    0.051281
    88  H    0.045438
    89  H    0.039383
    90  H    0.035350
    91  H    0.038934
    92  H    0.038975
    93  H    0.050357
    94  H    0.048601
    95  H    0.032778
    96  H    0.067050
    97  H    0.053136
    98  H    0.069665
    99  H    0.045093
   100  H    0.057624
   101  H    0.058604
   102  H    0.050740
   103  H    0.058276
   104  H    0.012560
   105  H    0.034097
   106  H    0.054907
   107  H    0.058623
   108  H    0.021246
   109  H    0.020099
   110  H    0.032411
   111  H    0.024692
   112  H    0.005262
   113  H    0.017451
   114  H    0.016008
   115  H    0.010874
   116  H    0.020354
   117  H    0.041964
   118  H    0.013228
   119  H    0.011009
   120  H    0.032913
   121  H    0.025476
   122  H    0.014579
   123  H    0.023155
   124  H    0.020346
   125  H    0.026916
   126  H    0.018157
   127  H    0.037752
   128  H    0.000567
   129  H    0.001821
   130  H    0.022645
   131  H    0.024444
   132  H    0.002492
   133  H    0.006582
   134  H    0.023119
   135  H    0.029223
   136  H    0.017966
   137  H    0.033189
   138  H    0.034983
   139  H    0.023296
   140  H    0.019671
 Sum of Mulliken charges =  -0.00000

 Dipole moment (field-independent basis, Debye):
    X=             -5.5294    Y=              1.8745    Z=              0.4782  Tot=              5.8580
 Quadrupole moment (field-independent basis, Debye-Ang):
   XX=           -379.0652   YY=           -429.6832   ZZ=           -397.9624
   XY=             30.2792   XZ=              8.5512   YZ=             -2.8372

 Normal termination of Gaussian 16 at Thu Apr 28 10:31:14 2022.
