 Gaussian 16, Revision A.03,
 Gaussian 16:  ES64L-G16RevA.03 25-Dec-2016

 --------------------
 #p ZINDO=(nstates=5)
 --------------------

 -----------------------------
 step_151_chromophore_24 ZINDO
 -----------------------------
 Symbolic Z-matrix:
 Charge =  0 Multiplicity = 1

                         Standard orientation:
 ---------------------------------------------------------------------
 Center     Atomic      Atomic             Coordinates (Angstroms)
 Number     Number       Type             X           Y           Z
 ---------------------------------------------------------------------
      1         12           0        5.265058    1.201351    0.316228
      2          6           0        4.621259   -2.209128    0.502455
      3          6           0        1.825524    1.619262   -0.642931
      4          6           0        5.859991    4.350046   -0.487007
      5          6           0        8.664678    0.541250    0.584508
      6          7           0        3.416839   -0.162383    0.111446
      7          6           0        3.389940   -1.497890    0.256768
      8          6           0        1.951879   -2.033718    0.179672
      9          6           0        1.109792   -0.830983   -0.223650
     10          6           0        2.171535    0.282350   -0.236285
     11          6           0        0.319330   -1.074139   -1.534363
     12          6           0        1.518952   -2.639775    1.582955
     13          6           0        0.574237   -3.854031    1.564350
     14          6           0       -0.132268   -4.258442    0.369949
     15          8           0        0.286252   -5.086349   -0.444973
     16          8           0       -1.309373   -3.604798    0.300934
     17          7           0        3.973644    2.866390   -0.177935
     18          6           0        2.671704    2.753551   -0.614079
     19          6           0        2.224106    4.073438   -1.028673
     20          6           0        3.379713    4.917391   -0.962804
     21          6           0        4.502147    4.068212   -0.492926
     22          6           0        0.767986    4.419165   -1.285954
     23          6           0        3.486155    6.413734   -1.243355
     24          8           0        4.416303    7.139350   -0.909563
     25          6           0        2.304816    7.149312   -1.786582
     26          7           0        6.987986    2.303486    0.125272
     27          6           0        7.004171    3.590159   -0.225664
     28          6           0        8.486983    4.074972   -0.248795
     29          6           0        9.266702    2.928545    0.450854
     30          6           0        8.298393    1.844852    0.360516
     31          6           0        8.832875    4.415350   -1.700040
     32          6           0        9.801241    3.225593    1.990921
     33          6           0        8.830155    4.059841    2.881814
     34          7           0        6.476669   -0.460467    0.589839
     35          6           0        7.848068   -0.571958    0.644511
     36          6           0        8.188579   -1.956983    0.743892
     37          6           0        7.000969   -2.630447    0.734826
     38          6           0        5.923601   -1.697574    0.639253
     39          6           0        9.481563   -2.581546    0.775683
     40          6           0        6.382263   -3.940992    0.842279
     41          8           0        6.902096   -5.053706    1.006708
     42          6           0        4.873562   -3.788819    0.672052
     43          6           0        4.592794   -4.467653   -0.565538
     44          8           0        4.714082   -3.996308   -1.695164
     45          8           0        4.191415   -5.789638   -0.357292
     46          6           0        4.054068   -6.726766   -1.521185
     47          6           0       -2.121506   -4.223492   -0.765789
     48          6           0       -3.456093   -3.508285   -0.774045
     49          6           0       -4.761998   -3.973395   -0.720835
     50          6           0       -5.253672   -5.361980   -0.336842
     51          6           0       -5.940799   -3.029778   -0.900400
     52          6           0       -6.551635   -2.535557    0.458320
     53          6           0       -6.909365   -1.012546    0.478845
     54          6           0       -8.447703   -0.744140    0.419055
     55          6           0       -9.067811   -0.194000    1.716489
     56          6           0       -8.870728    0.007961   -0.860496
     57          6           0      -10.289289   -0.408620   -1.426416
     58          6           0      -11.217942    0.857281   -1.496622
     59          6           0      -12.751230    0.495919   -1.571256
     60          6           0      -13.423875    0.204439   -3.013441
     61          6           0      -13.434658    1.560234   -0.824474
     62          6           0      -13.630899    1.144946    0.639050
     63          6           0      -13.294040    2.207194    1.645775
     64          6           0      -14.533772    3.029148    2.214862
     65          6           0      -14.553662    4.477474    1.602680
     66          6           0      -14.475018    3.044165    3.728181
     67          1           0        0.856436    1.659351   -1.146524
     68          1           0        6.118227    5.316274   -0.925713
     69          1           0        9.707220    0.277447    0.771903
     70          1           0        1.930089   -2.784796   -0.610108
     71          1           0        0.378466   -0.546264    0.532644
     72          1           0        0.644740   -0.410379   -2.335095
     73          1           0       -0.743297   -1.013463   -1.299912
     74          1           0        0.474723   -2.078003   -1.931685
     75          1           0        1.120576   -1.889452    2.265594
     76          1           0        2.480376   -2.904986    2.022562
     77          1           0       -0.082272   -3.736259    2.426324
     78          1           0        1.258700   -4.597065    1.973848
     79          1           0        0.230254    3.619570   -0.776508
     80          1           0        0.728932    4.482302   -2.373480
     81          1           0        0.606125    5.420130   -0.886692
     82          1           0        1.596879    7.549930   -1.062136
     83          1           0        1.785435    6.487564   -2.480731
     84          1           0        2.533373    7.879541   -2.563999
     85          1           0        8.582319    4.998419    0.322061
     86          1           0       10.107846    2.579527   -0.147214
     87          1           0        7.948038    4.216040   -2.304667
     88          1           0        9.763292    3.941227   -2.012624
     89          1           0        8.943033    5.499410   -1.679025
     90          1           0       10.656402    3.896810    1.905234
     91          1           0       10.101262    2.306952    2.493422
     92          1           0        9.181815    5.090745    2.921371
     93          1           0        8.814376    3.577752    3.859514
     94          1           0        7.866883    4.115427    2.373859
     95          1           0       10.120024   -1.948925    0.159282
     96          1           0        9.540655   -3.608133    0.414066
     97          1           0        9.769268   -2.487042    1.823113
     98          1           0        4.316838   -4.309834    1.450934
     99          1           0        4.920343   -6.625240   -2.175188
    100          1           0        3.216501   -6.524093   -2.187193
    101          1           0        4.040143   -7.759720   -1.172800
    102          1           0       -2.260436   -5.298038   -0.643760
    103          1           0       -1.695700   -3.990679   -1.741680
    104          1           0       -3.488596   -2.478855   -1.129913
    105          1           0       -4.480852   -5.905199    0.207043
    106          1           0       -5.241529   -5.802364   -1.333827
    107          1           0       -6.186048   -5.427696    0.223983
    108          1           0       -6.743309   -3.525156   -1.446616
    109          1           0       -5.738046   -2.211311   -1.589732
    110          1           0       -5.945614   -2.704426    1.348751
    111          1           0       -7.419136   -3.161037    0.671211
    112          1           0       -6.457219   -0.493489   -0.367095
    113          1           0       -6.350457   -0.516833    1.272690
    114          1           0       -8.925835   -1.723400    0.411292
    115          1           0       -9.590468    0.741393    1.519453
    116          1           0       -8.249512    0.160430    2.344450
    117          1           0       -9.778307   -0.863685    2.201253
    118          1           0       -8.146505   -0.060975   -1.671677
    119          1           0       -8.864849    1.067176   -0.604658
    120          1           0      -10.712040   -1.265426   -0.901572
    121          1           0      -10.119675   -0.593873   -2.486784
    122          1           0      -10.970263    1.375863   -2.422919
    123          1           0      -10.968234    1.608760   -0.747908
    124          1           0      -12.845999   -0.476258   -1.086118
    125          1           0      -13.061589   -0.726951   -3.446198
    126          1           0      -13.159058    0.918377   -3.793276
    127          1           0      -14.506524    0.248682   -2.894533
    128          1           0      -14.356047    1.945176   -1.261502
    129          1           0      -12.841554    2.454291   -1.017414
    130          1           0      -13.084499    0.277763    1.008929
    131          1           0      -14.668644    0.812099    0.618976
    132          1           0      -12.527635    2.818403    1.168805
    133          1           0      -12.684163    1.836370    2.469473
    134          1           0      -15.473230    2.505426    2.037269
    135          1           0      -13.633134    4.704808    1.066515
    136          1           0      -14.622396    5.298134    2.316773
    137          1           0      -15.475690    4.559715    1.026180
    138          1           0      -13.610520    3.567073    4.137135
    139          1           0      -14.559343    2.020921    4.093988
    140          1           0      -15.394818    3.481364    4.117907
 ---------------------------------------------------------------------

 SCF Done:  E(RZINDO/S) =  -474.328554463     A.U. after   20 cycles

 Excitation energies and oscillator strengths:

 Excited State   1:      Singlet-A      1.2607 eV  983.44 nm  f=0.5830  <S**2>=0.000
     175 ->178        -0.19136
     176 ->177         0.66374
 This state for optimization and/or second-order correction.
 Total Energy, E(CIS/TDA) =  -474.282223889
 Copying the excited state density for this state as the 1-particle RhoCI density.

 Excited State   2:      Singlet-A      1.9266 eV  643.53 nm  f=0.0079  <S**2>=0.000
     175 ->177         0.50594
     176 ->178         0.46880

 Excited State   3:      Singlet-A      2.9023 eV  427.19 nm  f=0.2749  <S**2>=0.000
     168 ->177         0.12790
     168 ->179        -0.16591
     168 ->180         0.13174
     169 ->180         0.10781
     175 ->177        -0.22439
     176 ->178         0.30035
     176 ->179         0.42719
     176 ->180         0.13416

 Excited State   4:      Singlet-A      2.9143 eV  425.44 nm  f=0.1181  <S**2>=0.000
     168 ->177        -0.24692
     168 ->179         0.32762
     168 ->180        -0.26983
     168 ->185        -0.14121
     168 ->186        -0.16826
     169 ->179         0.13849
     175 ->177        -0.14735
     176 ->178         0.18633
     176 ->179         0.15529
     176 ->180         0.10252

 Excited State   5:      Singlet-A      2.9755 eV  416.68 nm  f=0.0606  <S**2>=0.000
     170 ->177         0.29698
     170 ->178         0.17172
     170 ->179         0.34495
     170 ->180         0.31897
     170 ->181        -0.10362
     170 ->186        -0.12979
     170 ->187        -0.12952
     170 ->188         0.11523
     170 ->203        -0.11393
     176 ->178        -0.11825

 The electronic state is 1-A.
 Alpha  occ. eigenvalues --   -1.84664  -1.81801  -1.80241  -1.76046  -1.71918
 Alpha  occ. eigenvalues --   -1.70044  -1.65372  -1.60433  -1.58828  -1.56136
 Alpha  occ. eigenvalues --   -1.54023  -1.51200  -1.48631  -1.47522  -1.45092
 Alpha  occ. eigenvalues --   -1.44122  -1.41661  -1.40560  -1.39724  -1.38299
 Alpha  occ. eigenvalues --   -1.36726  -1.34630  -1.32606  -1.31614  -1.30649
 Alpha  occ. eigenvalues --   -1.27240  -1.25545  -1.22575  -1.21097  -1.18463
 Alpha  occ. eigenvalues --   -1.17231  -1.16001  -1.15164  -1.14119  -1.13411
 Alpha  occ. eigenvalues --   -1.13052  -1.11070  -1.10471  -1.04064  -1.03496
 Alpha  occ. eigenvalues --   -1.03236  -1.00349  -0.99909  -0.98338  -0.97405
 Alpha  occ. eigenvalues --   -0.96338  -0.94891  -0.93985  -0.92957  -0.92524
 Alpha  occ. eigenvalues --   -0.90566  -0.90365  -0.89378  -0.88285  -0.87822
 Alpha  occ. eigenvalues --   -0.85620  -0.84441  -0.82990  -0.81843  -0.80588
 Alpha  occ. eigenvalues --   -0.79489  -0.78443  -0.76490  -0.76293  -0.75866
 Alpha  occ. eigenvalues --   -0.75411  -0.74989  -0.74390  -0.74015  -0.73528
 Alpha  occ. eigenvalues --   -0.73226  -0.72425  -0.72154  -0.71770  -0.70922
 Alpha  occ. eigenvalues --   -0.69956  -0.69034  -0.68917  -0.68604  -0.68493
 Alpha  occ. eigenvalues --   -0.67190  -0.67087  -0.66529  -0.66041  -0.65773
 Alpha  occ. eigenvalues --   -0.65482  -0.64276  -0.64152  -0.63973  -0.63797
 Alpha  occ. eigenvalues --   -0.63535  -0.63173  -0.62401  -0.62060  -0.61950
 Alpha  occ. eigenvalues --   -0.61613  -0.60596  -0.60580  -0.60410  -0.60252
 Alpha  occ. eigenvalues --   -0.59736  -0.59191  -0.58964  -0.58681  -0.58447
 Alpha  occ. eigenvalues --   -0.58176  -0.57496  -0.57050  -0.56999  -0.56945
 Alpha  occ. eigenvalues --   -0.56525  -0.56244  -0.55842  -0.55102  -0.54851
 Alpha  occ. eigenvalues --   -0.54140  -0.53997  -0.53549  -0.53274  -0.53168
 Alpha  occ. eigenvalues --   -0.52432  -0.52088  -0.52018  -0.51613  -0.51201
 Alpha  occ. eigenvalues --   -0.51155  -0.50775  -0.50396  -0.50195  -0.49659
 Alpha  occ. eigenvalues --   -0.49519  -0.49166  -0.49111  -0.48930  -0.48603
 Alpha  occ. eigenvalues --   -0.48296  -0.48163  -0.47980  -0.47697  -0.47281
 Alpha  occ. eigenvalues --   -0.47195  -0.47005  -0.46854  -0.46731  -0.46429
 Alpha  occ. eigenvalues --   -0.46072  -0.45978  -0.45682  -0.45043  -0.44915
 Alpha  occ. eigenvalues --   -0.44689  -0.44406  -0.44183  -0.44077  -0.43763
 Alpha  occ. eigenvalues --   -0.43260  -0.43010  -0.42770  -0.42608  -0.42288
 Alpha  occ. eigenvalues --   -0.41263  -0.40611  -0.40347  -0.39187  -0.38562
 Alpha  occ. eigenvalues --   -0.37283  -0.36750  -0.35286  -0.34859  -0.34246
 Alpha  occ. eigenvalues --   -0.32841  -0.32100  -0.32030  -0.31823  -0.26478
 Alpha  occ. eigenvalues --   -0.21183
 Alpha virt. eigenvalues --   -0.07836  -0.02061  -0.00304   0.01150   0.01308
 Alpha virt. eigenvalues --    0.02600   0.03185   0.03918   0.03994   0.05254
 Alpha virt. eigenvalues --    0.06563   0.06786   0.07521   0.07784   0.08363

 Mulliken charges:
               1
     1  Mg   0.424201
     2  C   -0.045321
     3  C   -0.089123
     4  C   -0.079309
     5  C   -0.063136
     6  N   -0.262353
     7  C    0.113878
     8  C    0.011147
     9  C    0.005942
    10  C    0.130250
    11  C   -0.052714
    12  C   -0.021290
    13  C    0.001963
    14  C    0.491296
    15  O   -0.526703
    16  O   -0.255601
    17  N   -0.329544
    18  C    0.117423
    19  C    0.017962
    20  C   -0.057810
    21  C    0.163139
    22  C   -0.047737
    23  C    0.329554
    24  O   -0.519034
    25  C   -0.034955
    26  N   -0.280863
    27  C    0.170440
    28  C    0.009644
    29  C    0.001486
    30  C    0.105860
    31  C   -0.051206
    32  C   -0.036289
    33  C   -0.059199
    34  N   -0.321401
    35  C    0.081821
    36  C    0.042889
    37  C   -0.056566
    38  C    0.094327
    39  C   -0.034834
    40  C    0.338822
    41  O   -0.539756
    42  C    0.059948
    43  C    0.499842
    44  O   -0.538315
    45  O   -0.282148
    46  C    0.075880
    47  C    0.114395
    48  C   -0.119208
    49  C    0.003375
    50  C   -0.046381
    51  C   -0.017557
    52  C   -0.029341
    53  C   -0.037160
    54  C   -0.010573
    55  C   -0.058993
    56  C   -0.035961
    57  C   -0.046387
    58  C   -0.038595
    59  C   -0.011535
    60  C   -0.065148
    61  C   -0.023682
    62  C   -0.028771
    63  C   -0.036932
    64  C   -0.009969
    65  C   -0.060611
    66  C   -0.053091
    67  H    0.034733
    68  H    0.030264
    69  H    0.021528
    70  H    0.049938
    71  H    0.030456
    72  H    0.026618
    73  H    0.020513
    74  H    0.026213
    75  H    0.025262
    76  H    0.021532
    77  H    0.028433
    78  H    0.033844
    79  H    0.040218
    80  H    0.042699
    81  H    0.034327
    82  H    0.052058
    83  H    0.007081
    84  H    0.037586
    85  H    0.028890
    86  H    0.025841
    87  H    0.033288
    88  H    0.029858
    89  H    0.019189
    90  H    0.014835
    91  H    0.030618
    92  H    0.020571
    93  H    0.026648
    94  H    0.027148
    95  H    0.018908
    96  H    0.041877
    97  H    0.034853
    98  H    0.059044
    99  H    0.039221
   100  H    0.046492
   101  H    0.037548
   102  H    0.055499
   103  H    0.052420
   104  H    0.021666
   105  H    0.017149
   106  H    0.035412
   107  H    0.037234
   108  H    0.015700
   109  H    0.020433
   110  H    0.019496
   111  H    0.018431
   112  H    0.012924
   113  H    0.019214
   114  H    0.013488
   115  H    0.011696
   116  H    0.018203
   117  H    0.027545
   118  H    0.016731
   119  H    0.016403
   120  H    0.034804
   121  H    0.018452
   122  H    0.012242
   123  H    0.027749
   124  H    0.014996
   125  H    0.017757
   126  H    0.015813
   127  H    0.024000
   128  H    0.011354
   129  H    0.012927
   130  H    0.019466
   131  H    0.015775
   132  H    0.015547
   133  H    0.012195
   134  H    0.025981
   135  H    0.024944
   136  H    0.015001
   137  H    0.019071
   138  H    0.024385
   139  H    0.011498
   140  H    0.007881
 Sum of Mulliken charges =  -0.00000

 Dipole moment (field-independent basis, Debye):
    X=             -7.7288    Y=              3.8741    Z=              0.2884  Tot=              8.6502
 N-N= 4.289326327468D+03 E-N= 0.000000000000D+00  KE=-9.253327461816D+03
 Leave Link  601 at Thu Apr 28 10:44:12 2022, MaxMem=  6710886400 cpu:               1.4 elap:               0.1
 (Enter /sw/apps/gaussian-16.0/g16/l9999.exe)
 1\1\GINC-BP1-COMPUTE159\SP\RZINDO CIS\STO-3G\C55H74Mg1N4O6\OF15641\28-
 Apr-2022\0\\#p ZINDO=(nstates=5)\\step_151_chromophore_24 ZINDO\\0,1\M
 g,0,-0.067,43.736,25.372\C,0,2.089,43.468,28.085\C,0,-2.665,42.525,27.
 542\C,0,-2.075,43.359,22.776\C,0,2.668,44.232,23.289\N,0,-0.256,43.209
 ,27.609\C,0,0.738,43.196,28.513\C,0,0.197,42.928,29.926\C,0,-1.274,42.
 592,29.722\C,0,-1.418,42.804,28.205\C,0,-1.646,41.196,30.283\C,0,0.41,
 44.207,30.844\C,0,0.706,43.963,32.334\C,0,0.514,42.671,32.953\O,0,1.39

 Normal termination of Gaussian 16 at Thu Apr 28 10:44:12 2022.
