 Gaussian 16, Revision A.03,
 Gaussian 16:  ES64L-G16RevA.03 25-Dec-2016

 ------------------------------
 #p blyp/Def2SVP td=(nstates=5)
 ------------------------------

 ---------------------------------------------------
 step_1701_chromophore_23 TDDFT with blyp functional
 ---------------------------------------------------
 Symbolic Z-matrix:
 Charge =  0 Multiplicity = 1

                         Standard orientation:
 ---------------------------------------------------------------------
 Center     Atomic      Atomic             Coordinates (Angstroms)
 Number     Number       Type             X           Y           Z
 ---------------------------------------------------------------------
      1         12           0       -4.644183    0.306550    0.283547
      2          6           0       -2.709646   -2.324888   -1.307603
      3          6           0       -2.609176   -0.349408    3.038751
      4          6           0       -5.902744    2.905369    1.691335
      5          6           0       -5.799666    1.183098   -2.879694
      6          7           0       -2.876682   -1.166847    0.767481
      7          6           0       -2.396274   -2.248740    0.035686
      8          6           0       -1.292254   -2.987330    0.775628
      9          6           0       -1.407323   -2.413001    2.231082
     10          6           0       -2.380851   -1.229911    1.998867
     11          6           0       -1.882346   -3.440974    3.341119
     12          6           0        0.185617   -3.055474    0.199103
     13          6           0        0.816830   -4.384657    0.114922
     14          6           0        1.983808   -4.745245    0.966329
     15          8           0        2.000008   -4.920278    2.180996
     16          8           0        3.102211   -4.968289    0.120122
     17          7           0       -4.396646    1.158128    2.216787
     18          6           0       -3.447711    0.746417    3.173403
     19          6           0       -3.724932    1.558519    4.313104
     20          6           0       -4.832770    2.419856    4.025242
     21          6           0       -5.055337    2.242963    2.629426
     22          6           0       -3.114511    1.288970    5.636111
     23          6           0       -5.555463    3.333969    5.022641
     24          8           0       -5.293962    3.269311    6.176227
     25          6           0       -6.579324    4.313230    4.580650
     26          7           0       -5.651632    1.800864   -0.492588
     27          6           0       -6.158655    2.709302    0.358246
     28          6           0       -7.069028    3.749537   -0.363689
     29          6           0       -7.120440    3.171750   -1.833037
     30          6           0       -6.098134    2.034150   -1.778170
     31          6           0       -8.439377    4.092947    0.351007
     32          6           0       -7.046660    4.083572   -3.046925
     33          6           0       -8.147110    3.988455   -4.133450
     34          7           0       -4.497096   -0.459574   -1.734541
     35          6           0       -5.013627    0.038142   -2.910441
     36          6           0       -4.633873   -0.811675   -4.022024
     37          6           0       -3.780917   -1.763611   -3.399228
     38          6           0       -3.652929   -1.486646   -2.037639
     39          6           0       -5.010154   -0.581814   -5.473266
     40          6           0       -2.967203   -2.932694   -3.709456
     41          8           0       -2.697467   -3.291990   -4.841438
     42          6           0       -2.223979   -3.305647   -2.372809
     43          6           0       -2.673933   -4.738157   -2.088512
     44          8           0       -3.823255   -5.136554   -2.046245
     45          8           0       -1.592677   -5.466222   -1.834370
     46          6           0       -1.807715   -6.825202   -1.255794
     47          6           0        4.382507   -5.351942    0.688843
     48          6           0        5.441512   -4.244699    0.399603
     49          6           0        5.510802   -2.996183    0.957322
     50          6           0        4.567918   -2.332286    1.996752
     51          6           0        6.762383   -2.250090    0.627889
     52          6           0        8.054436   -2.616097    1.331967
     53          6           0        9.313528   -2.165222    0.536462
     54          6           0        9.865812   -0.689839    0.938932
     55          6           0       11.373238   -0.845403    1.473053
     56          6           0        9.903148    0.263488   -0.243157
     57          6           0        9.180123    1.611160    0.158358
     58          6           0        7.795946    1.656659   -0.467092
     59          6           0        7.069028    3.037530   -0.305018
     60          6           0        6.001354    2.943942    0.828178
     61          6           0        6.391742    3.654211   -1.614552
     62          6           0        6.424041    5.214722   -1.576753
     63          6           0        7.408528    5.846289   -2.576688
     64          6           0        8.546563    6.618572   -1.835719
     65          6           0        8.913281    7.912390   -2.615928
     66          6           0        9.736908    5.704699   -1.396072
     67          1           0       -2.056264   -0.597248    3.947490
     68          1           0       -6.520820    3.715156    2.085955
     69          1           0       -6.077975    1.419384   -3.909437
     70          1           0       -1.717615   -3.990824    0.810756
     71          1           0       -0.444812   -2.056915    2.598992
     72          1           0       -2.814526   -3.041436    3.739768
     73          1           0       -1.153888   -3.623787    4.130725
     74          1           0       -2.082994   -4.422270    2.909815
     75          1           0        0.777871   -2.428863    0.865931
     76          1           0        0.196758   -2.476218   -0.724410
     77          1           0        1.107858   -4.620959   -0.909033
     78          1           0        0.018812   -5.090813    0.344674
     79          1           0       -2.923772    2.153434    6.271359
     80          1           0       -2.257897    0.619892    5.710079
     81          1           0       -3.849836    0.660067    6.138407
     82          1           0       -7.352044    3.713845    4.097200
     83          1           0       -6.171674    5.079126    3.921872
     84          1           0       -6.953920    4.838730    5.458881
     85          1           0       -6.496880    4.676088   -0.411488
     86          1           0       -8.126726    2.751924   -1.811328
     87          1           0       -8.416009    5.157083    0.585473
     88          1           0       -8.460514    3.433607    1.218312
     89          1           0       -9.247319    3.781606   -0.309654
     90          1           0       -6.078462    3.940684   -3.526037
     91          1           0       -7.061794    5.049498   -2.541436
     92          1           0       -7.791669    3.642789   -5.104237
     93          1           0       -8.448655    5.027643   -4.259127
     94          1           0       -9.008783    3.402694   -3.812494
     95          1           0       -6.085328   -0.402978   -5.501500
     96          1           0       -4.679771   -1.403194   -6.108236
     97          1           0       -4.519441    0.310896   -5.860401
     98          1           0       -1.162055   -3.248575   -2.610887
     99          1           0       -2.405532   -6.764691   -0.346610
    100          1           0       -0.859188   -7.303500   -1.011647
    101          1           0       -2.255474   -7.566631   -1.917286
    102          1           0        4.721469   -6.210245    0.108032
    103          1           0        4.256407   -5.698070    1.714796
    104          1           0        6.269991   -4.467921   -0.271807
    105          1           0        4.965967   -2.247779    3.008516
    106          1           0        3.839699   -3.141921    2.046043
    107          1           0        4.137338   -1.378451    1.693014
    108          1           0        6.600489   -1.182871    0.779306
    109          1           0        6.880152   -2.399976   -0.445253
    110          1           0        8.152774   -3.701798    1.312974
    111          1           0        7.957802   -2.178781    2.324961
    112          1           0        9.224790   -2.331925   -0.536556
    113          1           0       10.086566   -2.870984    0.838421
    114          1           0        9.308835   -0.341430    1.808558
    115          1           0       12.086625   -0.815750    0.648928
    116          1           0       11.495817   -1.730253    2.097434
    117          1           0       11.662647   -0.026445    2.131093
    118          1           0        9.284824   -0.142449   -1.043362
    119          1           0       10.912533    0.464874   -0.600882
    120          1           0        9.726493    2.485221   -0.196059
    121          1           0        9.148714    1.691583    1.245318
    122          1           0        7.193886    0.851123   -0.046372
    123          1           0        7.892439    1.335875   -1.503886
    124          1           0        7.915796    3.585756    0.108336
    125          1           0        5.228569    3.683423    0.617504
    126          1           0        6.385254    3.154524    1.826877
    127          1           0        5.437686    2.010663    0.826360
    128          1           0        5.356208    3.315971   -1.657537
    129          1           0        6.761522    3.243061   -2.553653
    130          1           0        6.574108    5.560592   -0.553808
    131          1           0        5.382481    5.408217   -1.832120
    132          1           0        6.846254    6.579972   -3.154878
    133          1           0        7.712888    5.054857   -3.262490
    134          1           0        8.158658    7.077491   -0.925178
    135          1           0        9.249684    8.629690   -1.868072
    136          1           0        8.140803    8.275266   -3.293067
    137          1           0        9.741487    7.649096   -3.273587
    138          1           0       10.410358    5.567890   -2.241756
    139          1           0        9.490079    4.651988   -1.259608
    140          1           0       10.338034    6.117810   -0.585630
 ---------------------------------------------------------------------

 SCF Done:  E(RB-LYP) =  -3007.36913683     A.U. after   21 cycles

 Excitation energies and oscillator strengths:

 Excited State   1:      Singlet-A      1.7816 eV  695.92 nm  f=0.0638  <S**2>=0.000
     244 -> 247        0.59703
     245 -> 247       -0.12504
     246 -> 247       -0.33913
 This state for optimization and/or second-order correction.
 Total Energy, E(TD-HF/TD-DFT) =  -3007.30366506
 Copying the excited state density for this state as the 1-particle RhoCI density.

 Excited State   2:      Singlet-A      1.8226 eV  680.24 nm  f=0.1950  <S**2>=0.000
     243 -> 247       -0.20357
     244 -> 247        0.35785
     245 -> 248       -0.14521
     246 -> 247        0.56304
     246 <- 247       -0.12711

 Excited State   3:      Singlet-A      1.8796 eV  659.63 nm  f=0.0423  <S**2>=0.000
     243 -> 247        0.63583
     245 -> 247       -0.19650
     246 -> 247        0.22364

 Excited State   4:      Singlet-A      2.0516 eV  604.34 nm  f=0.0721  <S**2>=0.000
     241 -> 247       -0.17651
     243 -> 247        0.19432
     244 -> 247        0.10156
     245 -> 247        0.59577
     246 -> 248        0.24603

 Excited State   5:      Singlet-A      2.2989 eV  539.33 nm  f=0.0004  <S**2>=0.000
     241 -> 247        0.10281
     242 -> 247        0.68884

 The electronic state is 1-A.
 Alpha  occ. eigenvalues --  -46.27334 -18.83549 -18.81564 -18.77776 -18.76763
 Alpha  occ. eigenvalues --  -18.75551 -18.75343 -14.03496 -14.03249 -14.00465
 Alpha  occ. eigenvalues --  -14.00204 -10.04607 -10.04267  -9.99459  -9.99066
 Alpha  occ. eigenvalues --   -9.98855  -9.97956  -9.97084  -9.96648  -9.96558
 Alpha  occ. eigenvalues --   -9.96286  -9.95613  -9.95202  -9.94773  -9.94397
 Alpha  occ. eigenvalues --   -9.94376  -9.94357  -9.94185  -9.94152  -9.94089
 Alpha  occ. eigenvalues --   -9.93829  -9.93706  -9.93559  -9.93338  -9.93290
 Alpha  occ. eigenvalues --   -9.93223  -9.93207  -9.92890  -9.92800  -9.92669
 Alpha  occ. eigenvalues --   -9.92506  -9.92428  -9.92402  -9.92386  -9.92362
 Alpha  occ. eigenvalues --   -9.92186  -9.92163  -9.92163  -9.92068  -9.91903
 Alpha  occ. eigenvalues --   -9.91890  -9.91716  -9.91460  -9.91417  -9.91243
 Alpha  occ. eigenvalues --   -9.91100  -9.91035  -9.90968  -9.90952  -9.90921
 Alpha  occ. eigenvalues --   -9.90890  -9.90814  -9.90706  -9.90650  -9.90463
 Alpha  occ. eigenvalues --   -9.90417  -2.91994  -1.72401  -1.71916  -1.71679
 Alpha  occ. eigenvalues --   -0.99327  -0.96704  -0.93596  -0.91367  -0.90340
 Alpha  occ. eigenvalues --   -0.89983  -0.86685  -0.86294  -0.85425  -0.84794
 Alpha  occ. eigenvalues --   -0.75264  -0.73629  -0.73232  -0.72684  -0.72373
 Alpha  occ. eigenvalues --   -0.72151  -0.71456  -0.71004  -0.70028  -0.69737
 Alpha  occ. eigenvalues --   -0.69405  -0.69074  -0.67920  -0.67785  -0.67502
 Alpha  occ. eigenvalues --   -0.66450  -0.66180  -0.65647  -0.65392  -0.64668
 Alpha  occ. eigenvalues --   -0.63682  -0.62396  -0.62303  -0.61834  -0.61089
 Alpha  occ. eigenvalues --   -0.60493  -0.60305  -0.59994  -0.58810  -0.58720
 Alpha  occ. eigenvalues --   -0.58437  -0.57767  -0.56885  -0.56064  -0.55368
 Alpha  occ. eigenvalues --   -0.53807  -0.53684  -0.52550  -0.51910  -0.51603
 Alpha  occ. eigenvalues --   -0.51455  -0.51025  -0.50667  -0.50607  -0.50009
 Alpha  occ. eigenvalues --   -0.49494  -0.49272  -0.49184  -0.49089  -0.46486
 Alpha  occ. eigenvalues --   -0.45860  -0.45738  -0.45596  -0.45473  -0.44606
 Alpha  occ. eigenvalues --   -0.44355  -0.44269  -0.43357  -0.42880  -0.42755
 Alpha  occ. eigenvalues --   -0.42476  -0.42293  -0.41734  -0.41322  -0.41100
 Alpha  occ. eigenvalues --   -0.40624  -0.40353  -0.40257  -0.40182  -0.39955
 Alpha  occ. eigenvalues --   -0.39723  -0.39543  -0.39435  -0.39248  -0.39036
 Alpha  occ. eigenvalues --   -0.38654  -0.38623  -0.38530  -0.38362  -0.38118
 Alpha  occ. eigenvalues --   -0.37988  -0.37639  -0.37585  -0.37354  -0.37304
 Alpha  occ. eigenvalues --   -0.37185  -0.36903  -0.36737  -0.36600  -0.36452
 Alpha  occ. eigenvalues --   -0.36395  -0.36244  -0.35805  -0.35764  -0.35635
 Alpha  occ. eigenvalues --   -0.35391  -0.35108  -0.34956  -0.34615  -0.34609
 Alpha  occ. eigenvalues --   -0.34427  -0.34154  -0.33997  -0.33980  -0.33730
 Alpha  occ. eigenvalues --   -0.33671  -0.33514  -0.33424  -0.33186  -0.33161
 Alpha  occ. eigenvalues --   -0.33070  -0.32883  -0.32616  -0.32422  -0.32162
 Alpha  occ. eigenvalues --   -0.31984  -0.31954  -0.31884  -0.31515  -0.31297
 Alpha  occ. eigenvalues --   -0.31292  -0.31218  -0.31198  -0.30884  -0.30764
 Alpha  occ. eigenvalues --   -0.30597  -0.30501  -0.30235  -0.30179  -0.29845
 Alpha  occ. eigenvalues --   -0.29756  -0.29567  -0.29475  -0.29314  -0.29043
 Alpha  occ. eigenvalues --   -0.28999  -0.28910  -0.28626  -0.28580  -0.28386
 Alpha  occ. eigenvalues --   -0.27976  -0.27645  -0.27162  -0.26734  -0.26561
 Alpha  occ. eigenvalues --   -0.26238  -0.25941  -0.25900  -0.25511  -0.25178
 Alpha  occ. eigenvalues --   -0.24991  -0.24525  -0.24363  -0.24051  -0.23384
 Alpha  occ. eigenvalues --   -0.23327  -0.22739  -0.22554  -0.21765  -0.20268
 Alpha  occ. eigenvalues --   -0.19912  -0.19679  -0.18564  -0.18217  -0.17628
 Alpha  occ. eigenvalues --   -0.15969
 Alpha virt. eigenvalues --   -0.11738  -0.06844  -0.05791  -0.04236  -0.04125
 Alpha virt. eigenvalues --   -0.03283  -0.02755  -0.02120  -0.01794   0.00078
 Alpha virt. eigenvalues --    0.01078   0.01934   0.02172   0.02428   0.02740

 Mulliken charges:
               1
     1  Mg   0.695696
     2  C    0.002047
     3  C   -0.063088
     4  C   -0.056655
     5  C   -0.065128
     6  N   -0.170276
     7  C   -0.121949
     8  C    0.087272
     9  C   -0.057719
    10  C    0.022252
    11  C    0.118302
    12  C    0.156228
    13  C    0.178097
    14  C    0.078235
    15  O   -0.195383
    16  O   -0.294377
    17  N   -0.309070
    18  C    0.164545
    19  C   -0.127744
    20  C    0.034713
    21  C    0.128881
    22  C    0.170152
    23  C   -0.114803
    24  O   -0.123779
    25  C    0.152385
    26  N   -0.282386
    27  C    0.043343
    28  C   -0.064153
    29  C    0.042469
    30  C    0.058993
    31  C    0.152076
    32  C    0.108791
    33  C    0.074426
    34  N   -0.246556
    35  C    0.054017
    36  C   -0.149877
    37  C    0.070704
    38  C    0.094643
    39  C    0.170588
    40  C   -0.053840
    41  O   -0.133695
    42  C    0.050273
    43  C    0.098639
    44  O   -0.177693
    45  O   -0.242679
    46  C    0.212544
    47  C    0.320713
    48  C   -0.094955
    49  C   -0.150030
    50  C    0.129059
    51  C    0.093722
    52  C    0.104954
    53  C    0.103264
    54  C   -0.062144
    55  C    0.068005
    56  C    0.154383
    57  C    0.038069
    58  C    0.078034
    59  C   -0.053642
    60  C    0.098086
    61  C    0.086017
    62  C    0.070518
    63  C    0.137309
    64  C   -0.085273
    65  C    0.093854
    66  C    0.103802
    67  H   -0.067746
    68  H   -0.094981
    69  H   -0.071862
    70  H   -0.036834
    71  H   -0.011552
    72  H   -0.006275
    73  H    0.004534
    74  H   -0.014520
    75  H   -0.021899
    76  H   -0.017791
    77  H   -0.005221
    78  H   -0.005247
    79  H    0.008551
    80  H   -0.026519
    81  H   -0.002024
    82  H    0.014295
    83  H    0.016960
    84  H   -0.013939
    85  H   -0.020170
    86  H   -0.030292
    87  H    0.005127
    88  H    0.001016
    89  H   -0.012861
    90  H   -0.017043
    91  H   -0.031165
    92  H    0.001825
    93  H   -0.010539
    94  H   -0.005324
    95  H    0.000419
    96  H    0.009129
    97  H    0.000403
    98  H   -0.001233
    99  H    0.016975
   100  H    0.016001
   101  H    0.023833
   102  H   -0.024377
   103  H    0.007569
   104  H   -0.033565
   105  H    0.003654
   106  H   -0.015552
   107  H    0.012235
   108  H   -0.027179
   109  H   -0.031960
   110  H   -0.040484
   111  H   -0.025000
   112  H   -0.034235
   113  H   -0.046593
   114  H   -0.028576
   115  H   -0.011045
   116  H   -0.015476
   117  H   -0.023954
   118  H   -0.032215
   119  H   -0.030571
   120  H   -0.036078
   121  H   -0.030473
   122  H   -0.048811
   123  H   -0.042842
   124  H   -0.028220
   125  H   -0.027978
   126  H   -0.014307
   127  H   -0.019075
   128  H   -0.042206
   129  H   -0.041413
   130  H   -0.018478
   131  H   -0.039834
   132  H   -0.045085
   133  H   -0.031400
   134  H   -0.031840
   135  H   -0.012263
   136  H   -0.010370
   137  H   -0.027726
   138  H   -0.034069
   139  H   -0.009264
   140  H   -0.008176
 Sum of Mulliken charges =  -0.00000

 Dipole moment (field-independent basis, Debye):
    X=              0.3012    Y=              1.8734    Z=              0.0008  Tot=              1.8975
 Quadrupole moment (field-independent basis, Debye-Ang):
   XX=           -376.6277   YY=           -391.0148   ZZ=           -443.0455
   XY=            -26.3570   XZ=              8.4075   YZ=            -26.3383

 Normal termination of Gaussian 16 at Thu Apr 28 20:19:31 2022.
