 Gaussian 16, Revision A.03,
 Gaussian 16:  ES64L-G16RevA.03 25-Dec-2016

 -----------------------------------
 #p cam-b3lyp/Def2SVP td=(nstates=5)
 -----------------------------------

 --------------------------------------------------------
 step_1701_chromophore_23 TDDFT with cam-b3lyp functional
 --------------------------------------------------------
 Symbolic Z-matrix:
 Charge =  0 Multiplicity = 1

                         Standard orientation:
 ---------------------------------------------------------------------
 Center     Atomic      Atomic             Coordinates (Angstroms)
 Number     Number       Type             X           Y           Z
 ---------------------------------------------------------------------
      1         12           0       -4.644183    0.306550    0.283547
      2          6           0       -2.709646   -2.324888   -1.307603
      3          6           0       -2.609176   -0.349408    3.038751
      4          6           0       -5.902744    2.905369    1.691335
      5          6           0       -5.799666    1.183098   -2.879694
      6          7           0       -2.876682   -1.166847    0.767481
      7          6           0       -2.396274   -2.248740    0.035686
      8          6           0       -1.292254   -2.987330    0.775628
      9          6           0       -1.407323   -2.413001    2.231082
     10          6           0       -2.380851   -1.229911    1.998867
     11          6           0       -1.882346   -3.440974    3.341119
     12          6           0        0.185617   -3.055474    0.199103
     13          6           0        0.816830   -4.384657    0.114922
     14          6           0        1.983808   -4.745245    0.966329
     15          8           0        2.000008   -4.920278    2.180996
     16          8           0        3.102211   -4.968289    0.120122
     17          7           0       -4.396646    1.158128    2.216787
     18          6           0       -3.447711    0.746417    3.173403
     19          6           0       -3.724932    1.558519    4.313104
     20          6           0       -4.832770    2.419856    4.025242
     21          6           0       -5.055337    2.242963    2.629426
     22          6           0       -3.114511    1.288970    5.636111
     23          6           0       -5.555463    3.333969    5.022641
     24          8           0       -5.293962    3.269311    6.176227
     25          6           0       -6.579324    4.313230    4.580650
     26          7           0       -5.651632    1.800864   -0.492588
     27          6           0       -6.158655    2.709302    0.358246
     28          6           0       -7.069028    3.749537   -0.363689
     29          6           0       -7.120440    3.171750   -1.833037
     30          6           0       -6.098134    2.034150   -1.778170
     31          6           0       -8.439377    4.092947    0.351007
     32          6           0       -7.046660    4.083572   -3.046925
     33          6           0       -8.147110    3.988455   -4.133450
     34          7           0       -4.497096   -0.459574   -1.734541
     35          6           0       -5.013627    0.038142   -2.910441
     36          6           0       -4.633873   -0.811675   -4.022024
     37          6           0       -3.780917   -1.763611   -3.399228
     38          6           0       -3.652929   -1.486646   -2.037639
     39          6           0       -5.010154   -0.581814   -5.473266
     40          6           0       -2.967203   -2.932694   -3.709456
     41          8           0       -2.697467   -3.291990   -4.841438
     42          6           0       -2.223979   -3.305647   -2.372809
     43          6           0       -2.673933   -4.738157   -2.088512
     44          8           0       -3.823255   -5.136554   -2.046245
     45          8           0       -1.592677   -5.466222   -1.834370
     46          6           0       -1.807715   -6.825202   -1.255794
     47          6           0        4.382507   -5.351942    0.688843
     48          6           0        5.441512   -4.244699    0.399603
     49          6           0        5.510802   -2.996183    0.957322
     50          6           0        4.567918   -2.332286    1.996752
     51          6           0        6.762383   -2.250090    0.627889
     52          6           0        8.054436   -2.616097    1.331967
     53          6           0        9.313528   -2.165222    0.536462
     54          6           0        9.865812   -0.689839    0.938932
     55          6           0       11.373238   -0.845403    1.473053
     56          6           0        9.903148    0.263488   -0.243157
     57          6           0        9.180123    1.611160    0.158358
     58          6           0        7.795946    1.656659   -0.467092
     59          6           0        7.069028    3.037530   -0.305018
     60          6           0        6.001354    2.943942    0.828178
     61          6           0        6.391742    3.654211   -1.614552
     62          6           0        6.424041    5.214722   -1.576753
     63          6           0        7.408528    5.846289   -2.576688
     64          6           0        8.546563    6.618572   -1.835719
     65          6           0        8.913281    7.912390   -2.615928
     66          6           0        9.736908    5.704699   -1.396072
     67          1           0       -2.056264   -0.597248    3.947490
     68          1           0       -6.520820    3.715156    2.085955
     69          1           0       -6.077975    1.419384   -3.909437
     70          1           0       -1.717615   -3.990824    0.810756
     71          1           0       -0.444812   -2.056915    2.598992
     72          1           0       -2.814526   -3.041436    3.739768
     73          1           0       -1.153888   -3.623787    4.130725
     74          1           0       -2.082994   -4.422270    2.909815
     75          1           0        0.777871   -2.428863    0.865931
     76          1           0        0.196758   -2.476218   -0.724410
     77          1           0        1.107858   -4.620959   -0.909033
     78          1           0        0.018812   -5.090813    0.344674
     79          1           0       -2.923772    2.153434    6.271359
     80          1           0       -2.257897    0.619892    5.710079
     81          1           0       -3.849836    0.660067    6.138407
     82          1           0       -7.352044    3.713845    4.097200
     83          1           0       -6.171674    5.079126    3.921872
     84          1           0       -6.953920    4.838730    5.458881
     85          1           0       -6.496880    4.676088   -0.411488
     86          1           0       -8.126726    2.751924   -1.811328
     87          1           0       -8.416009    5.157083    0.585473
     88          1           0       -8.460514    3.433607    1.218312
     89          1           0       -9.247319    3.781606   -0.309654
     90          1           0       -6.078462    3.940684   -3.526037
     91          1           0       -7.061794    5.049498   -2.541436
     92          1           0       -7.791669    3.642789   -5.104237
     93          1           0       -8.448655    5.027643   -4.259127
     94          1           0       -9.008783    3.402694   -3.812494
     95          1           0       -6.085328   -0.402978   -5.501500
     96          1           0       -4.679771   -1.403194   -6.108236
     97          1           0       -4.519441    0.310896   -5.860401
     98          1           0       -1.162055   -3.248575   -2.610887
     99          1           0       -2.405532   -6.764691   -0.346610
    100          1           0       -0.859188   -7.303500   -1.011647
    101          1           0       -2.255474   -7.566631   -1.917286
    102          1           0        4.721469   -6.210245    0.108032
    103          1           0        4.256407   -5.698070    1.714796
    104          1           0        6.269991   -4.467921   -0.271807
    105          1           0        4.965967   -2.247779    3.008516
    106          1           0        3.839699   -3.141921    2.046043
    107          1           0        4.137338   -1.378451    1.693014
    108          1           0        6.600489   -1.182871    0.779306
    109          1           0        6.880152   -2.399976   -0.445253
    110          1           0        8.152774   -3.701798    1.312974
    111          1           0        7.957802   -2.178781    2.324961
    112          1           0        9.224790   -2.331925   -0.536556
    113          1           0       10.086566   -2.870984    0.838421
    114          1           0        9.308835   -0.341430    1.808558
    115          1           0       12.086625   -0.815750    0.648928
    116          1           0       11.495817   -1.730253    2.097434
    117          1           0       11.662647   -0.026445    2.131093
    118          1           0        9.284824   -0.142449   -1.043362
    119          1           0       10.912533    0.464874   -0.600882
    120          1           0        9.726493    2.485221   -0.196059
    121          1           0        9.148714    1.691583    1.245318
    122          1           0        7.193886    0.851123   -0.046372
    123          1           0        7.892439    1.335875   -1.503886
    124          1           0        7.915796    3.585756    0.108336
    125          1           0        5.228569    3.683423    0.617504
    126          1           0        6.385254    3.154524    1.826877
    127          1           0        5.437686    2.010663    0.826360
    128          1           0        5.356208    3.315971   -1.657537
    129          1           0        6.761522    3.243061   -2.553653
    130          1           0        6.574108    5.560592   -0.553808
    131          1           0        5.382481    5.408217   -1.832120
    132          1           0        6.846254    6.579972   -3.154878
    133          1           0        7.712888    5.054857   -3.262490
    134          1           0        8.158658    7.077491   -0.925178
    135          1           0        9.249684    8.629690   -1.868072
    136          1           0        8.140803    8.275266   -3.293067
    137          1           0        9.741487    7.649096   -3.273587
    138          1           0       10.410358    5.567890   -2.241756
    139          1           0        9.490079    4.651988   -1.259608
    140          1           0       10.338034    6.117810   -0.585630
 ---------------------------------------------------------------------

 SCF Done:  E(RCAM-B3LYP) =  -3007.16304501     A.U. after   17 cycles

 Excitation energies and oscillator strengths:

 Excited State   1:      Singlet-A      1.7158 eV  722.59 nm  f=0.3700  <S**2>=0.000
     245 -> 248        0.16815
     246 -> 247        0.68812
     245 <- 248        0.10494
 This state for optimization and/or second-order correction.
 Total Energy, E(TD-HF/TD-DFT) =  -3007.09998932
 Copying the excited state density for this state as the 1-particle RhoCI density.

 Excited State   2:      Singlet-A      2.2614 eV  548.27 nm  f=0.1044  <S**2>=0.000
     245 -> 247        0.63135
     246 -> 248       -0.29570

 Excited State   3:      Singlet-A      3.0731 eV  403.44 nm  f=0.0002  <S**2>=0.000
     243 -> 247        0.52757
     244 -> 247       -0.44656

 Excited State   4:      Singlet-A      3.1743 eV  390.58 nm  f=0.0041  <S**2>=0.000
     243 -> 247        0.42593
     244 -> 247        0.51743
     246 -> 248        0.14693

 Excited State   5:      Singlet-A      3.4792 eV  356.36 nm  f=0.0056  <S**2>=0.000
     241 -> 247        0.58774
     241 -> 249        0.29388
     241 -> 251       -0.13037

 The electronic state is 1-A.
 Alpha  occ. eigenvalues --  -46.88919 -19.26601 -19.24400 -19.20862 -19.19831
 Alpha  occ. eigenvalues --  -19.18716 -19.18604 -14.42653 -14.41932 -14.39016
 Alpha  occ. eigenvalues --  -14.38447 -10.40117 -10.39646 -10.34681 -10.34232
 Alpha  occ. eigenvalues --  -10.33041 -10.32053 -10.31353 -10.31158 -10.31045
 Alpha  occ. eigenvalues --  -10.30947 -10.30338 -10.29801 -10.28799 -10.28672
 Alpha  occ. eigenvalues --  -10.28607 -10.28484 -10.28479 -10.28443 -10.28304
 Alpha  occ. eigenvalues --  -10.28090 -10.27783 -10.27532 -10.27397 -10.27392
 Alpha  occ. eigenvalues --  -10.27234 -10.27126 -10.26988 -10.26658 -10.26627
 Alpha  occ. eigenvalues --  -10.26522 -10.26393 -10.26349 -10.26225 -10.26109
 Alpha  occ. eigenvalues --  -10.26009 -10.25946 -10.25895 -10.25870 -10.25845
 Alpha  occ. eigenvalues --  -10.25677 -10.25426 -10.25330 -10.25143 -10.24946
 Alpha  occ. eigenvalues --  -10.24699 -10.24663 -10.24634 -10.24614 -10.24556
 Alpha  occ. eigenvalues --  -10.24531 -10.24437 -10.24309 -10.24290 -10.24227
 Alpha  occ. eigenvalues --  -10.24130  -3.17483  -1.92365  -1.91985  -1.91744
 Alpha  occ. eigenvalues --   -1.17940  -1.15188  -1.12261  -1.09649  -1.08342
 Alpha  occ. eigenvalues --   -1.07857  -1.04513  -1.04005  -1.03151  -1.02152
 Alpha  occ. eigenvalues --   -0.92368  -0.90505  -0.90073  -0.89368  -0.89139
 Alpha  occ. eigenvalues --   -0.88925  -0.88107  -0.87630  -0.86539  -0.86335
 Alpha  occ. eigenvalues --   -0.86005  -0.85387  -0.84144  -0.83952  -0.83773
 Alpha  occ. eigenvalues --   -0.82524  -0.82247  -0.81506  -0.81433  -0.80461
 Alpha  occ. eigenvalues --   -0.79462  -0.77955  -0.77930  -0.77599  -0.76563
 Alpha  occ. eigenvalues --   -0.75854  -0.75643  -0.75322  -0.74038  -0.73932
 Alpha  occ. eigenvalues --   -0.73527  -0.72735  -0.71789  -0.70909  -0.69943
 Alpha  occ. eigenvalues --   -0.68424  -0.68277  -0.66995  -0.66248  -0.65798
 Alpha  occ. eigenvalues --   -0.65466  -0.65140  -0.64791  -0.64752  -0.64023
 Alpha  occ. eigenvalues --   -0.63432  -0.63162  -0.63017  -0.62838  -0.60237
 Alpha  occ. eigenvalues --   -0.59506  -0.59268  -0.59140  -0.58820  -0.58233
 Alpha  occ. eigenvalues --   -0.57754  -0.57624  -0.56831  -0.56209  -0.55940
 Alpha  occ. eigenvalues --   -0.55721  -0.55422  -0.54818  -0.54379  -0.53869
 Alpha  occ. eigenvalues --   -0.53649  -0.53156  -0.52931  -0.52899  -0.52743
 Alpha  occ. eigenvalues --   -0.52496  -0.52162  -0.51991  -0.51937  -0.51694
 Alpha  occ. eigenvalues --   -0.51132  -0.51082  -0.51049  -0.50763  -0.50626
 Alpha  occ. eigenvalues --   -0.50363  -0.50230  -0.50208  -0.49780  -0.49533
 Alpha  occ. eigenvalues --   -0.49440  -0.49357  -0.49136  -0.48905  -0.48759
 Alpha  occ. eigenvalues --   -0.48608  -0.48404  -0.48375  -0.47802  -0.47664
 Alpha  occ. eigenvalues --   -0.47539  -0.47154  -0.46801  -0.46720  -0.46651
 Alpha  occ. eigenvalues --   -0.46521  -0.46203  -0.45892  -0.45710  -0.45663
 Alpha  occ. eigenvalues --   -0.45571  -0.45211  -0.45045  -0.44987  -0.44846
 Alpha  occ. eigenvalues --   -0.44769  -0.44659  -0.44262  -0.44187  -0.43797
 Alpha  occ. eigenvalues --   -0.43690  -0.43483  -0.43437  -0.43220  -0.43001
 Alpha  occ. eigenvalues --   -0.42766  -0.42708  -0.42528  -0.42252  -0.42245
 Alpha  occ. eigenvalues --   -0.42066  -0.41816  -0.41752  -0.41442  -0.41418
 Alpha  occ. eigenvalues --   -0.41102  -0.41027  -0.40751  -0.40445  -0.40123
 Alpha  occ. eigenvalues --   -0.39936  -0.39897  -0.39807  -0.39565  -0.39320
 Alpha  occ. eigenvalues --   -0.39026  -0.38522  -0.37957  -0.37931  -0.37492
 Alpha  occ. eigenvalues --   -0.37369  -0.36994  -0.36794  -0.36549  -0.36143
 Alpha  occ. eigenvalues --   -0.35612  -0.35048  -0.34955  -0.34912  -0.34732
 Alpha  occ. eigenvalues --   -0.34195  -0.33621  -0.33335  -0.31283  -0.31057
 Alpha  occ. eigenvalues --   -0.30294  -0.29882  -0.29227  -0.28601  -0.24571
 Alpha  occ. eigenvalues --   -0.21260
 Alpha virt. eigenvalues --   -0.08912  -0.01710   0.00797   0.02293   0.02860
 Alpha virt. eigenvalues --    0.03435   0.04179   0.05131   0.05754   0.06910
 Alpha virt. eigenvalues --    0.07928   0.08220   0.08479   0.08718   0.09033

 Mulliken charges:
               1
     1  Mg   0.826983
     2  C   -0.022585
     3  C   -0.073023
     4  C   -0.083722
     5  C   -0.070670
     6  N   -0.233187
     7  C   -0.078108
     8  C    0.034919
     9  C   -0.103766
    10  C    0.037121
    11  C    0.062094
    12  C    0.094968
    13  C    0.103759
    14  C    0.165229
    15  O   -0.236134
    16  O   -0.360502
    17  N   -0.396035
    18  C    0.172037
    19  C   -0.130633
    20  C   -0.031496
    21  C    0.161153
    22  C    0.108309
    23  C   -0.033665
    24  O   -0.163313
    25  C    0.066583
    26  N   -0.366032
    27  C    0.071541
    28  C   -0.111676
    29  C   -0.007274
    30  C    0.080158
    31  C    0.088809
    32  C    0.043722
    33  C    0.013690
    34  N   -0.332196
    35  C    0.057424
    36  C   -0.148515
    37  C   -0.005949
    38  C    0.125955
    39  C    0.118796
    40  C    0.041377
    41  O   -0.171898
    42  C   -0.022044
    43  C    0.186347
    44  O   -0.215885
    45  O   -0.306644
    46  C    0.171605
    47  C    0.286272
    48  C   -0.125150
    49  C   -0.160662
    50  C    0.076954
    51  C    0.034390
    52  C    0.049056
    53  C    0.048999
    54  C   -0.119094
    55  C    0.015350
    56  C    0.095181
    57  C   -0.011874
    58  C    0.036874
    59  C   -0.114562
    60  C    0.045522
    61  C    0.033388
    62  C    0.015387
    63  C    0.077664
    64  C   -0.146891
    65  C    0.037472
    66  C    0.051240
    67  H   -0.030555
    68  H   -0.059870
    69  H   -0.038079
    70  H   -0.004577
    71  H    0.023030
    72  H    0.018774
    73  H    0.029838
    74  H    0.010568
    75  H    0.009022
    76  H    0.015104
    77  H    0.033158
    78  H    0.023808
    79  H    0.038386
    80  H    0.001947
    81  H    0.027379
    82  H    0.038881
    83  H    0.044782
    84  H    0.023303
    85  H    0.013804
    86  H    0.002416
    87  H    0.029139
    88  H    0.024201
    89  H    0.013376
    90  H    0.013507
    91  H   -0.002344
    92  H    0.024301
    93  H    0.013291
    94  H    0.017435
    95  H    0.022738
    96  H    0.036819
    97  H    0.024916
    98  H    0.041362
    99  H    0.039866
   100  H    0.038991
   101  H    0.049141
   102  H    0.006331
   103  H    0.039843
   104  H   -0.001074
   105  H    0.028094
   106  H    0.004234
   107  H    0.034276
   108  H   -0.003849
   109  H   -0.002503
   110  H   -0.010885
   111  H    0.001656
   112  H   -0.005168
   113  H   -0.015043
   114  H    0.001565
   115  H    0.010976
   116  H    0.008118
   117  H    0.000588
   118  H   -0.004310
   119  H   -0.000001
   120  H   -0.009416
   121  H   -0.004188
   122  H   -0.026537
   123  H   -0.014112
   124  H    0.001131
   125  H   -0.004208
   126  H    0.009849
   127  H    0.003172
   128  H   -0.011712
   129  H   -0.012214
   130  H    0.007816
   131  H   -0.008940
   132  H   -0.013563
   133  H   -0.003324
   134  H   -0.001081
   135  H    0.011134
   136  H    0.013850
   137  H   -0.004563
   138  H   -0.009792
   139  H    0.006763
   140  H    0.016088
 Sum of Mulliken charges =  -0.00000

 Dipole moment (field-independent basis, Debye):
    X=              0.3188    Y=              1.9706    Z=              0.7641  Tot=              2.1375
 Quadrupole moment (field-independent basis, Debye-Ang):
   XX=           -375.7274   YY=           -387.6160   ZZ=           -442.0488
   XY=            -29.6780   XZ=              5.1591   YZ=            -25.9480

 Normal termination of Gaussian 16 at Thu Apr 28 19:20:31 2022.
