 Gaussian 16, Revision A.03,
 Gaussian 16:  ES64L-G16RevA.03 25-Dec-2016

 ---------------------------------
 #p PBE1PBE/Def2SVP td=(nstates=5)
 ---------------------------------

 ------------------------------------------------------
 step_1701_chromophore_23 TDDFT with PBE1PBE functional
 ------------------------------------------------------
 Symbolic Z-matrix:
 Charge =  0 Multiplicity = 1

                         Standard orientation:
 ---------------------------------------------------------------------
 Center     Atomic      Atomic             Coordinates (Angstroms)
 Number     Number       Type             X           Y           Z
 ---------------------------------------------------------------------
      1         12           0       -4.644183    0.306550    0.283547
      2          6           0       -2.709646   -2.324888   -1.307603
      3          6           0       -2.609176   -0.349408    3.038751
      4          6           0       -5.902744    2.905369    1.691335
      5          6           0       -5.799666    1.183098   -2.879694
      6          7           0       -2.876682   -1.166847    0.767481
      7          6           0       -2.396274   -2.248740    0.035686
      8          6           0       -1.292254   -2.987330    0.775628
      9          6           0       -1.407323   -2.413001    2.231082
     10          6           0       -2.380851   -1.229911    1.998867
     11          6           0       -1.882346   -3.440974    3.341119
     12          6           0        0.185617   -3.055474    0.199103
     13          6           0        0.816830   -4.384657    0.114922
     14          6           0        1.983808   -4.745245    0.966329
     15          8           0        2.000008   -4.920278    2.180996
     16          8           0        3.102211   -4.968289    0.120122
     17          7           0       -4.396646    1.158128    2.216787
     18          6           0       -3.447711    0.746417    3.173403
     19          6           0       -3.724932    1.558519    4.313104
     20          6           0       -4.832770    2.419856    4.025242
     21          6           0       -5.055337    2.242963    2.629426
     22          6           0       -3.114511    1.288970    5.636111
     23          6           0       -5.555463    3.333969    5.022641
     24          8           0       -5.293962    3.269311    6.176227
     25          6           0       -6.579324    4.313230    4.580650
     26          7           0       -5.651632    1.800864   -0.492588
     27          6           0       -6.158655    2.709302    0.358246
     28          6           0       -7.069028    3.749537   -0.363689
     29          6           0       -7.120440    3.171750   -1.833037
     30          6           0       -6.098134    2.034150   -1.778170
     31          6           0       -8.439377    4.092947    0.351007
     32          6           0       -7.046660    4.083572   -3.046925
     33          6           0       -8.147110    3.988455   -4.133450
     34          7           0       -4.497096   -0.459574   -1.734541
     35          6           0       -5.013627    0.038142   -2.910441
     36          6           0       -4.633873   -0.811675   -4.022024
     37          6           0       -3.780917   -1.763611   -3.399228
     38          6           0       -3.652929   -1.486646   -2.037639
     39          6           0       -5.010154   -0.581814   -5.473266
     40          6           0       -2.967203   -2.932694   -3.709456
     41          8           0       -2.697467   -3.291990   -4.841438
     42          6           0       -2.223979   -3.305647   -2.372809
     43          6           0       -2.673933   -4.738157   -2.088512
     44          8           0       -3.823255   -5.136554   -2.046245
     45          8           0       -1.592677   -5.466222   -1.834370
     46          6           0       -1.807715   -6.825202   -1.255794
     47          6           0        4.382507   -5.351942    0.688843
     48          6           0        5.441512   -4.244699    0.399603
     49          6           0        5.510802   -2.996183    0.957322
     50          6           0        4.567918   -2.332286    1.996752
     51          6           0        6.762383   -2.250090    0.627889
     52          6           0        8.054436   -2.616097    1.331967
     53          6           0        9.313528   -2.165222    0.536462
     54          6           0        9.865812   -0.689839    0.938932
     55          6           0       11.373238   -0.845403    1.473053
     56          6           0        9.903148    0.263488   -0.243157
     57          6           0        9.180123    1.611160    0.158358
     58          6           0        7.795946    1.656659   -0.467092
     59          6           0        7.069028    3.037530   -0.305018
     60          6           0        6.001354    2.943942    0.828178
     61          6           0        6.391742    3.654211   -1.614552
     62          6           0        6.424041    5.214722   -1.576753
     63          6           0        7.408528    5.846289   -2.576688
     64          6           0        8.546563    6.618572   -1.835719
     65          6           0        8.913281    7.912390   -2.615928
     66          6           0        9.736908    5.704699   -1.396072
     67          1           0       -2.056264   -0.597248    3.947490
     68          1           0       -6.520820    3.715156    2.085955
     69          1           0       -6.077975    1.419384   -3.909437
     70          1           0       -1.717615   -3.990824    0.810756
     71          1           0       -0.444812   -2.056915    2.598992
     72          1           0       -2.814526   -3.041436    3.739768
     73          1           0       -1.153888   -3.623787    4.130725
     74          1           0       -2.082994   -4.422270    2.909815
     75          1           0        0.777871   -2.428863    0.865931
     76          1           0        0.196758   -2.476218   -0.724410
     77          1           0        1.107858   -4.620959   -0.909033
     78          1           0        0.018812   -5.090813    0.344674
     79          1           0       -2.923772    2.153434    6.271359
     80          1           0       -2.257897    0.619892    5.710079
     81          1           0       -3.849836    0.660067    6.138407
     82          1           0       -7.352044    3.713845    4.097200
     83          1           0       -6.171674    5.079126    3.921872
     84          1           0       -6.953920    4.838730    5.458881
     85          1           0       -6.496880    4.676088   -0.411488
     86          1           0       -8.126726    2.751924   -1.811328
     87          1           0       -8.416009    5.157083    0.585473
     88          1           0       -8.460514    3.433607    1.218312
     89          1           0       -9.247319    3.781606   -0.309654
     90          1           0       -6.078462    3.940684   -3.526037
     91          1           0       -7.061794    5.049498   -2.541436
     92          1           0       -7.791669    3.642789   -5.104237
     93          1           0       -8.448655    5.027643   -4.259127
     94          1           0       -9.008783    3.402694   -3.812494
     95          1           0       -6.085328   -0.402978   -5.501500
     96          1           0       -4.679771   -1.403194   -6.108236
     97          1           0       -4.519441    0.310896   -5.860401
     98          1           0       -1.162055   -3.248575   -2.610887
     99          1           0       -2.405532   -6.764691   -0.346610
    100          1           0       -0.859188   -7.303500   -1.011647
    101          1           0       -2.255474   -7.566631   -1.917286
    102          1           0        4.721469   -6.210245    0.108032
    103          1           0        4.256407   -5.698070    1.714796
    104          1           0        6.269991   -4.467921   -0.271807
    105          1           0        4.965967   -2.247779    3.008516
    106          1           0        3.839699   -3.141921    2.046043
    107          1           0        4.137338   -1.378451    1.693014
    108          1           0        6.600489   -1.182871    0.779306
    109          1           0        6.880152   -2.399976   -0.445253
    110          1           0        8.152774   -3.701798    1.312974
    111          1           0        7.957802   -2.178781    2.324961
    112          1           0        9.224790   -2.331925   -0.536556
    113          1           0       10.086566   -2.870984    0.838421
    114          1           0        9.308835   -0.341430    1.808558
    115          1           0       12.086625   -0.815750    0.648928
    116          1           0       11.495817   -1.730253    2.097434
    117          1           0       11.662647   -0.026445    2.131093
    118          1           0        9.284824   -0.142449   -1.043362
    119          1           0       10.912533    0.464874   -0.600882
    120          1           0        9.726493    2.485221   -0.196059
    121          1           0        9.148714    1.691583    1.245318
    122          1           0        7.193886    0.851123   -0.046372
    123          1           0        7.892439    1.335875   -1.503886
    124          1           0        7.915796    3.585756    0.108336
    125          1           0        5.228569    3.683423    0.617504
    126          1           0        6.385254    3.154524    1.826877
    127          1           0        5.437686    2.010663    0.826360
    128          1           0        5.356208    3.315971   -1.657537
    129          1           0        6.761522    3.243061   -2.553653
    130          1           0        6.574108    5.560592   -0.553808
    131          1           0        5.382481    5.408217   -1.832120
    132          1           0        6.846254    6.579972   -3.154878
    133          1           0        7.712888    5.054857   -3.262490
    134          1           0        8.158658    7.077491   -0.925178
    135          1           0        9.249684    8.629690   -1.868072
    136          1           0        8.140803    8.275266   -3.293067
    137          1           0        9.741487    7.649096   -3.273587
    138          1           0       10.410358    5.567890   -2.241756
    139          1           0        9.490079    4.651988   -1.259608
    140          1           0       10.338034    6.117810   -0.585630
 ---------------------------------------------------------------------

 SCF Done:  E(RPBE1PBE) =  -3005.35071072     A.U. after   15 cycles

 Excitation energies and oscillator strengths:

 Excited State   1:      Singlet-A      1.8635 eV  665.34 nm  f=0.3517  <S**2>=0.000
     245 -> 248       -0.16304
     246 -> 247        0.69566
     246 <- 247       -0.11432
 This state for optimization and/or second-order correction.
 Total Energy, E(TD-HF/TD-DFT) =  -3005.28222908
 Copying the excited state density for this state as the 1-particle RhoCI density.

 Excited State   2:      Singlet-A      2.2618 eV  548.17 nm  f=0.0999  <S**2>=0.000
     243 -> 247        0.11335
     245 -> 247        0.63995
     246 -> 248        0.26904

 Excited State   3:      Singlet-A      2.7150 eV  456.67 nm  f=0.0017  <S**2>=0.000
     243 -> 247        0.17120
     244 -> 247        0.67167

 Excited State   4:      Singlet-A      2.7980 eV  443.11 nm  f=0.0136  <S**2>=0.000
     241 -> 247        0.12335
     243 -> 247        0.65856
     244 -> 247       -0.13998
     246 -> 248       -0.11996

 Excited State   5:      Singlet-A      2.9787 eV  416.23 nm  f=0.0033  <S**2>=0.000
     241 -> 247        0.66609
     241 -> 249       -0.10980
     244 -> 247        0.12453

 The electronic state is 1-A.
 Alpha  occ. eigenvalues --  -46.92308 -19.27199 -19.25139 -19.21109 -19.20054
 Alpha  occ. eigenvalues --  -19.18937 -19.18759 -14.41978 -14.41572 -14.38581
 Alpha  occ. eigenvalues --  -14.38219 -10.37121 -10.36653 -10.31672 -10.31511
 Alpha  occ. eigenvalues --  -10.30242 -10.29459 -10.29276 -10.28855 -10.28766
 Alpha  occ. eigenvalues --  -10.28462 -10.27740 -10.27256 -10.26596 -10.26553
 Alpha  occ. eigenvalues --  -10.26355 -10.26290 -10.26253 -10.26042 -10.25953
 Alpha  occ. eigenvalues --  -10.25870 -10.25439 -10.25375 -10.25363 -10.25073
 Alpha  occ. eigenvalues --  -10.24684 -10.24503 -10.24497 -10.24447 -10.24215
 Alpha  occ. eigenvalues --  -10.24160 -10.24112 -10.23973 -10.23759 -10.23726
 Alpha  occ. eigenvalues --  -10.23543 -10.23451 -10.23449 -10.23392 -10.23270
 Alpha  occ. eigenvalues --  -10.23235 -10.22893 -10.22763 -10.22706 -10.22521
 Alpha  occ. eigenvalues --  -10.22215 -10.22211 -10.22182 -10.22164 -10.22074
 Alpha  occ. eigenvalues --  -10.22064 -10.21988 -10.21970 -10.21692 -10.21675
 Alpha  occ. eigenvalues --  -10.21609  -3.14451  -1.87273  -1.86874  -1.86633
 Alpha  occ. eigenvalues --   -1.12707  -1.09957  -1.06890  -1.04498  -1.03150
 Alpha  occ. eigenvalues --   -1.02718  -0.99059  -0.98607  -0.97731  -0.96962
 Alpha  occ. eigenvalues --   -0.86736  -0.84680  -0.84215  -0.83677  -0.83214
 Alpha  occ. eigenvalues --   -0.83199  -0.82191  -0.81945  -0.80686  -0.80527
 Alpha  occ. eigenvalues --   -0.80182  -0.79826  -0.78395  -0.78250  -0.77940
 Alpha  occ. eigenvalues --   -0.76724  -0.76388  -0.75842  -0.75671  -0.74709
 Alpha  occ. eigenvalues --   -0.73594  -0.72296  -0.72230  -0.71797  -0.70908
 Alpha  occ. eigenvalues --   -0.70050  -0.69705  -0.69659  -0.68162  -0.68090
 Alpha  occ. eigenvalues --   -0.67875  -0.67185  -0.66224  -0.65193  -0.64372
 Alpha  occ. eigenvalues --   -0.62869  -0.62471  -0.61429  -0.60470  -0.60242
 Alpha  occ. eigenvalues --   -0.59935  -0.59676  -0.59289  -0.58989  -0.58178
 Alpha  occ. eigenvalues --   -0.57643  -0.57537  -0.57399  -0.57257  -0.54715
 Alpha  occ. eigenvalues --   -0.54017  -0.53832  -0.53509  -0.53429  -0.52686
 Alpha  occ. eigenvalues --   -0.52321  -0.52165  -0.51299  -0.50653  -0.50376
 Alpha  occ. eigenvalues --   -0.50254  -0.50025  -0.49359  -0.48975  -0.48421
 Alpha  occ. eigenvalues --   -0.48114  -0.47567  -0.47477  -0.47351  -0.47169
 Alpha  occ. eigenvalues --   -0.47060  -0.46653  -0.46597  -0.46384  -0.46166
 Alpha  occ. eigenvalues --   -0.45724  -0.45621  -0.45586  -0.45387  -0.45177
 Alpha  occ. eigenvalues --   -0.44861  -0.44807  -0.44682  -0.44271  -0.44172
 Alpha  occ. eigenvalues --   -0.44052  -0.43886  -0.43803  -0.43574  -0.43384
 Alpha  occ. eigenvalues --   -0.43263  -0.43050  -0.42935  -0.42358  -0.42262
 Alpha  occ. eigenvalues --   -0.42220  -0.41744  -0.41338  -0.41327  -0.41260
 Alpha  occ. eigenvalues --   -0.41207  -0.40913  -0.40637  -0.40391  -0.40290
 Alpha  occ. eigenvalues --   -0.40217  -0.39983  -0.39776  -0.39733  -0.39687
 Alpha  occ. eigenvalues --   -0.39438  -0.39369  -0.39084  -0.38881  -0.38625
 Alpha  occ. eigenvalues --   -0.38418  -0.38299  -0.38148  -0.38051  -0.37712
 Alpha  occ. eigenvalues --   -0.37615  -0.37392  -0.37254  -0.37192  -0.37102
 Alpha  occ. eigenvalues --   -0.36822  -0.36708  -0.36518  -0.36264  -0.36098
 Alpha  occ. eigenvalues --   -0.36028  -0.35839  -0.35583  -0.35398  -0.34915
 Alpha  occ. eigenvalues --   -0.34890  -0.34762  -0.34651  -0.34300  -0.34094
 Alpha  occ. eigenvalues --   -0.33971  -0.33326  -0.32848  -0.32740  -0.32364
 Alpha  occ. eigenvalues --   -0.32261  -0.31988  -0.31699  -0.31618  -0.31055
 Alpha  occ. eigenvalues --   -0.30503  -0.29925  -0.29916  -0.29829  -0.29624
 Alpha  occ. eigenvalues --   -0.29266  -0.28919  -0.28607  -0.26918  -0.25727
 Alpha  occ. eigenvalues --   -0.25378  -0.25200  -0.24614  -0.24288  -0.21425
 Alpha  occ. eigenvalues --   -0.18904
 Alpha virt. eigenvalues --   -0.11363  -0.05210  -0.03425  -0.01577  -0.01154
 Alpha virt. eigenvalues --   -0.00491  -0.00230   0.00941   0.01073   0.03057
 Alpha virt. eigenvalues --    0.04091   0.04658   0.04970   0.05302   0.05570

 Mulliken charges:
               1
     1  Mg   0.971038
     2  C   -0.042023
     3  C   -0.069932
     4  C   -0.079273
     5  C   -0.062594
     6  N   -0.336901
     7  C   -0.001802
     8  C   -0.036051
     9  C   -0.171373
    10  C    0.072215
    11  C    0.006116
    12  C    0.041609
    13  C    0.020768
    14  C    0.231572
    15  O   -0.270135
    16  O   -0.388815
    17  N   -0.504900
    18  C    0.201844
    19  C   -0.167402
    20  C   -0.074810
    21  C    0.191294
    22  C    0.053332
    23  C    0.020636
    24  O   -0.200837
    25  C   -0.010751
    26  N   -0.480691
    27  C    0.101288
    28  C   -0.177618
    29  C   -0.076329
    30  C    0.116493
    31  C    0.022323
    32  C   -0.025153
    33  C   -0.057572
    34  N   -0.454235
    35  C    0.080077
    36  C   -0.160488
    37  C   -0.068479
    38  C    0.185678
    39  C    0.062715
    40  C    0.142847
    41  O   -0.215185
    42  C   -0.130721
    43  C    0.283052
    44  O   -0.251474
    45  O   -0.339912
    46  C    0.113618
    47  C    0.241876
    48  C   -0.143565
    49  C   -0.183445
    50  C    0.006157
    51  C   -0.040336
    52  C   -0.020347
    53  C   -0.001810
    54  C   -0.200642
    55  C   -0.044911
    56  C    0.041319
    57  C   -0.084607
    58  C   -0.017775
    59  C   -0.203277
    60  C   -0.012934
    61  C   -0.021248
    62  C   -0.045142
    63  C    0.020011
    64  C   -0.240227
    65  C   -0.023280
    66  C   -0.013681
    67  H    0.000675
    68  H   -0.023154
    69  H   -0.003868
    70  H    0.037806
    71  H    0.058355
    72  H    0.046840
    73  H    0.055686
    74  H    0.036983
    75  H    0.042680
    76  H    0.047752
    77  H    0.064882
    78  H    0.060150
    79  H    0.064482
    80  H    0.028237
    81  H    0.055442
    82  H    0.065254
    83  H    0.070445
    84  H    0.051338
    85  H    0.052169
    86  H    0.043143
    87  H    0.056172
    88  H    0.052448
    89  H    0.040855
    90  H    0.046346
    91  H    0.032539
    92  H    0.050706
    93  H    0.041546
    94  H    0.044247
    95  H    0.050306
    96  H    0.065547
    97  H    0.053828
    98  H    0.077649
    99  H    0.061122
   100  H    0.059890
   101  H    0.070779
   102  H    0.034695
   103  H    0.064924
   104  H    0.027178
   105  H    0.055672
   106  H    0.040878
   107  H    0.060627
   108  H    0.036133
   109  H    0.030399
   110  H    0.022979
   111  H    0.033911
   112  H    0.024828
   113  H    0.018134
   114  H    0.037114
   115  H    0.037944
   116  H    0.035583
   117  H    0.029583
   118  H    0.028471
   119  H    0.031364
   120  H    0.027543
   121  H    0.029090
   122  H    0.016965
   123  H    0.018021
   124  H    0.040012
   125  H    0.024333
   126  H    0.037203
   127  H    0.030123
   128  H    0.021206
   129  H    0.018214
   130  H    0.038911
   131  H    0.024365
   132  H    0.019728
   133  H    0.028215
   134  H    0.037484
   135  H    0.038517
   136  H    0.040223
   137  H    0.023728
   138  H    0.018077
   139  H    0.040153
   140  H    0.043001
 Sum of Mulliken charges =  -0.00000

 Dipole moment (field-independent basis, Debye):
    X=              0.2173    Y=              1.9779    Z=              0.3356  Tot=              2.0179
 Quadrupole moment (field-independent basis, Debye-Ang):
   XX=           -370.5710   YY=           -384.6447   ZZ=           -438.3849
   XY=            -30.8733   XZ=              7.8356   YZ=            -26.9622

 Normal termination of Gaussian 16 at Thu Apr 28 19:38:46 2022.
