 Gaussian 16, Revision A.03,
 Gaussian 16:  ES64L-G16RevA.03 25-Dec-2016

 --------------------------------
 #p wB97XD/Def2SVP td=(nstates=5)
 --------------------------------

 -----------------------------------------------------
 step_1701_chromophore_23 TDDFT with wB97XD functional
 -----------------------------------------------------
 Symbolic Z-matrix:
 Charge =  0 Multiplicity = 1

                         Standard orientation:
 ---------------------------------------------------------------------
 Center     Atomic      Atomic             Coordinates (Angstroms)
 Number     Number       Type             X           Y           Z
 ---------------------------------------------------------------------
      1         12           0       -4.644183    0.306550    0.283547
      2          6           0       -2.709646   -2.324888   -1.307603
      3          6           0       -2.609176   -0.349408    3.038751
      4          6           0       -5.902744    2.905369    1.691335
      5          6           0       -5.799666    1.183098   -2.879694
      6          7           0       -2.876682   -1.166847    0.767481
      7          6           0       -2.396274   -2.248740    0.035686
      8          6           0       -1.292254   -2.987330    0.775628
      9          6           0       -1.407323   -2.413001    2.231082
     10          6           0       -2.380851   -1.229911    1.998867
     11          6           0       -1.882346   -3.440974    3.341119
     12          6           0        0.185617   -3.055474    0.199103
     13          6           0        0.816830   -4.384657    0.114922
     14          6           0        1.983808   -4.745245    0.966329
     15          8           0        2.000008   -4.920278    2.180996
     16          8           0        3.102211   -4.968289    0.120122
     17          7           0       -4.396646    1.158128    2.216787
     18          6           0       -3.447711    0.746417    3.173403
     19          6           0       -3.724932    1.558519    4.313104
     20          6           0       -4.832770    2.419856    4.025242
     21          6           0       -5.055337    2.242963    2.629426
     22          6           0       -3.114511    1.288970    5.636111
     23          6           0       -5.555463    3.333969    5.022641
     24          8           0       -5.293962    3.269311    6.176227
     25          6           0       -6.579324    4.313230    4.580650
     26          7           0       -5.651632    1.800864   -0.492588
     27          6           0       -6.158655    2.709302    0.358246
     28          6           0       -7.069028    3.749537   -0.363689
     29          6           0       -7.120440    3.171750   -1.833037
     30          6           0       -6.098134    2.034150   -1.778170
     31          6           0       -8.439377    4.092947    0.351007
     32          6           0       -7.046660    4.083572   -3.046925
     33          6           0       -8.147110    3.988455   -4.133450
     34          7           0       -4.497096   -0.459574   -1.734541
     35          6           0       -5.013627    0.038142   -2.910441
     36          6           0       -4.633873   -0.811675   -4.022024
     37          6           0       -3.780917   -1.763611   -3.399228
     38          6           0       -3.652929   -1.486646   -2.037639
     39          6           0       -5.010154   -0.581814   -5.473266
     40          6           0       -2.967203   -2.932694   -3.709456
     41          8           0       -2.697467   -3.291990   -4.841438
     42          6           0       -2.223979   -3.305647   -2.372809
     43          6           0       -2.673933   -4.738157   -2.088512
     44          8           0       -3.823255   -5.136554   -2.046245
     45          8           0       -1.592677   -5.466222   -1.834370
     46          6           0       -1.807715   -6.825202   -1.255794
     47          6           0        4.382507   -5.351942    0.688843
     48          6           0        5.441512   -4.244699    0.399603
     49          6           0        5.510802   -2.996183    0.957322
     50          6           0        4.567918   -2.332286    1.996752
     51          6           0        6.762383   -2.250090    0.627889
     52          6           0        8.054436   -2.616097    1.331967
     53          6           0        9.313528   -2.165222    0.536462
     54          6           0        9.865812   -0.689839    0.938932
     55          6           0       11.373238   -0.845403    1.473053
     56          6           0        9.903148    0.263488   -0.243157
     57          6           0        9.180123    1.611160    0.158358
     58          6           0        7.795946    1.656659   -0.467092
     59          6           0        7.069028    3.037530   -0.305018
     60          6           0        6.001354    2.943942    0.828178
     61          6           0        6.391742    3.654211   -1.614552
     62          6           0        6.424041    5.214722   -1.576753
     63          6           0        7.408528    5.846289   -2.576688
     64          6           0        8.546563    6.618572   -1.835719
     65          6           0        8.913281    7.912390   -2.615928
     66          6           0        9.736908    5.704699   -1.396072
     67          1           0       -2.056264   -0.597248    3.947490
     68          1           0       -6.520820    3.715156    2.085955
     69          1           0       -6.077975    1.419384   -3.909437
     70          1           0       -1.717615   -3.990824    0.810756
     71          1           0       -0.444812   -2.056915    2.598992
     72          1           0       -2.814526   -3.041436    3.739768
     73          1           0       -1.153888   -3.623787    4.130725
     74          1           0       -2.082994   -4.422270    2.909815
     75          1           0        0.777871   -2.428863    0.865931
     76          1           0        0.196758   -2.476218   -0.724410
     77          1           0        1.107858   -4.620959   -0.909033
     78          1           0        0.018812   -5.090813    0.344674
     79          1           0       -2.923772    2.153434    6.271359
     80          1           0       -2.257897    0.619892    5.710079
     81          1           0       -3.849836    0.660067    6.138407
     82          1           0       -7.352044    3.713845    4.097200
     83          1           0       -6.171674    5.079126    3.921872
     84          1           0       -6.953920    4.838730    5.458881
     85          1           0       -6.496880    4.676088   -0.411488
     86          1           0       -8.126726    2.751924   -1.811328
     87          1           0       -8.416009    5.157083    0.585473
     88          1           0       -8.460514    3.433607    1.218312
     89          1           0       -9.247319    3.781606   -0.309654
     90          1           0       -6.078462    3.940684   -3.526037
     91          1           0       -7.061794    5.049498   -2.541436
     92          1           0       -7.791669    3.642789   -5.104237
     93          1           0       -8.448655    5.027643   -4.259127
     94          1           0       -9.008783    3.402694   -3.812494
     95          1           0       -6.085328   -0.402978   -5.501500
     96          1           0       -4.679771   -1.403194   -6.108236
     97          1           0       -4.519441    0.310896   -5.860401
     98          1           0       -1.162055   -3.248575   -2.610887
     99          1           0       -2.405532   -6.764691   -0.346610
    100          1           0       -0.859188   -7.303500   -1.011647
    101          1           0       -2.255474   -7.566631   -1.917286
    102          1           0        4.721469   -6.210245    0.108032
    103          1           0        4.256407   -5.698070    1.714796
    104          1           0        6.269991   -4.467921   -0.271807
    105          1           0        4.965967   -2.247779    3.008516
    106          1           0        3.839699   -3.141921    2.046043
    107          1           0        4.137338   -1.378451    1.693014
    108          1           0        6.600489   -1.182871    0.779306
    109          1           0        6.880152   -2.399976   -0.445253
    110          1           0        8.152774   -3.701798    1.312974
    111          1           0        7.957802   -2.178781    2.324961
    112          1           0        9.224790   -2.331925   -0.536556
    113          1           0       10.086566   -2.870984    0.838421
    114          1           0        9.308835   -0.341430    1.808558
    115          1           0       12.086625   -0.815750    0.648928
    116          1           0       11.495817   -1.730253    2.097434
    117          1           0       11.662647   -0.026445    2.131093
    118          1           0        9.284824   -0.142449   -1.043362
    119          1           0       10.912533    0.464874   -0.600882
    120          1           0        9.726493    2.485221   -0.196059
    121          1           0        9.148714    1.691583    1.245318
    122          1           0        7.193886    0.851123   -0.046372
    123          1           0        7.892439    1.335875   -1.503886
    124          1           0        7.915796    3.585756    0.108336
    125          1           0        5.228569    3.683423    0.617504
    126          1           0        6.385254    3.154524    1.826877
    127          1           0        5.437686    2.010663    0.826360
    128          1           0        5.356208    3.315971   -1.657537
    129          1           0        6.761522    3.243061   -2.553653
    130          1           0        6.574108    5.560592   -0.553808
    131          1           0        5.382481    5.408217   -1.832120
    132          1           0        6.846254    6.579972   -3.154878
    133          1           0        7.712888    5.054857   -3.262490
    134          1           0        8.158658    7.077491   -0.925178
    135          1           0        9.249684    8.629690   -1.868072
    136          1           0        8.140803    8.275266   -3.293067
    137          1           0        9.741487    7.649096   -3.273587
    138          1           0       10.410358    5.567890   -2.241756
    139          1           0        9.490079    4.651988   -1.259608
    140          1           0       10.338034    6.117810   -0.585630
 ---------------------------------------------------------------------

 SCF Done:  E(RwB97XD) =  -3007.86238022     A.U. after   19 cycles

 Excitation energies and oscillator strengths:

 Excited State   1:      Singlet-A      1.6638 eV  745.18 nm  f=0.3702  <S**2>=0.000
     245 -> 248        0.17299
     246 -> 247        0.68599
     245 <- 248        0.11370
 This state for optimization and/or second-order correction.
 Total Energy, E(TD-HF/TD-DFT) =  -3007.80123635
 Copying the excited state density for this state as the 1-particle RhoCI density.

 Excited State   2:      Singlet-A      2.2063 eV  561.95 nm  f=0.1018  <S**2>=0.000
     245 -> 247        0.62931
     246 -> 248       -0.29746

 Excited State   3:      Singlet-A      3.0877 eV  401.55 nm  f=0.0002  <S**2>=0.000
     243 -> 247        0.57164
     244 -> 247       -0.37564

 Excited State   4:      Singlet-A      3.2079 eV  386.50 nm  f=0.0025  <S**2>=0.000
     243 -> 247        0.34975
     244 -> 247        0.55991
     244 -> 249        0.10603
     246 -> 248        0.15914

 Excited State   5:      Singlet-A      3.5186 eV  352.36 nm  f=0.0142  <S**2>=0.000
     241 -> 247        0.56822
     241 -> 249        0.32032
     241 -> 250       -0.14764
     246 -> 248       -0.11281

 The electronic state is 1-A.
 Alpha  occ. eigenvalues --  -46.95254 -19.31798 -19.29681 -19.25831 -19.24770
 Alpha  occ. eigenvalues --  -19.23731 -19.23619 -14.47293 -14.46507 -14.43646
 Alpha  occ. eigenvalues --  -14.43016 -10.43970 -10.43478 -10.38641 -10.38228
 Alpha  occ. eigenvalues --  -10.36808 -10.35954 -10.35336 -10.35211 -10.35052
 Alpha  occ. eigenvalues --  -10.34988 -10.34422 -10.33902 -10.32950 -10.32685
 Alpha  occ. eigenvalues --  -10.32648 -10.32620 -10.32556 -10.32402 -10.32379
 Alpha  occ. eigenvalues --  -10.32142 -10.31752 -10.31551 -10.31456 -10.31409
 Alpha  occ. eigenvalues --  -10.31224 -10.31149 -10.30883 -10.30767 -10.30629
 Alpha  occ. eigenvalues --  -10.30449 -10.30437 -10.30241 -10.30232 -10.30073
 Alpha  occ. eigenvalues --  -10.29897 -10.29822 -10.29756 -10.29734 -10.29686
 Alpha  occ. eigenvalues --  -10.29682 -10.29388 -10.29260 -10.29107 -10.28873
 Alpha  occ. eigenvalues --  -10.28571 -10.28566 -10.28528 -10.28517 -10.28459
 Alpha  occ. eigenvalues --  -10.28412 -10.28332 -10.28290 -10.28135 -10.28052
 Alpha  occ. eigenvalues --  -10.28033  -3.21270  -1.94840  -1.94436  -1.94197
 Alpha  occ. eigenvalues --   -1.20115  -1.17368  -1.14491  -1.11852  -1.10524
 Alpha  occ. eigenvalues --   -1.10088  -1.06533  -1.06013  -1.05222  -1.04160
 Alpha  occ. eigenvalues --   -0.94318  -0.92350  -0.91883  -0.91264  -0.90891
 Alpha  occ. eigenvalues --   -0.90842  -0.89865  -0.89569  -0.88373  -0.88266
 Alpha  occ. eigenvalues --   -0.87908  -0.87298  -0.86043  -0.85841  -0.85624
 Alpha  occ. eigenvalues --   -0.84430  -0.84075  -0.83462  -0.83351  -0.82358
 Alpha  occ. eigenvalues --   -0.81274  -0.79898  -0.79844  -0.79546  -0.78490
 Alpha  occ. eigenvalues --   -0.77715  -0.77415  -0.77287  -0.75850  -0.75759
 Alpha  occ. eigenvalues --   -0.75462  -0.74696  -0.73775  -0.72830  -0.71857
 Alpha  occ. eigenvalues --   -0.70413  -0.70132  -0.69007  -0.68111  -0.67783
 Alpha  occ. eigenvalues --   -0.67402  -0.67152  -0.66756  -0.66621  -0.65843
 Alpha  occ. eigenvalues --   -0.65252  -0.65033  -0.64934  -0.64803  -0.62263
 Alpha  occ. eigenvalues --   -0.61463  -0.61259  -0.61035  -0.60793  -0.60178
 Alpha  occ. eigenvalues --   -0.59709  -0.59607  -0.58822  -0.58100  -0.57819
 Alpha  occ. eigenvalues --   -0.57679  -0.57381  -0.56764  -0.56320  -0.55816
 Alpha  occ. eigenvalues --   -0.55556  -0.55113  -0.54859  -0.54760  -0.54616
 Alpha  occ. eigenvalues --   -0.54443  -0.54107  -0.53881  -0.53816  -0.53563
 Alpha  occ. eigenvalues --   -0.53037  -0.52989  -0.52938  -0.52670  -0.52542
 Alpha  occ. eigenvalues --   -0.52286  -0.52147  -0.52109  -0.51757  -0.51437
 Alpha  occ. eigenvalues --   -0.51339  -0.51238  -0.51058  -0.50829  -0.50667
 Alpha  occ. eigenvalues --   -0.50529  -0.50297  -0.50264  -0.49674  -0.49552
 Alpha  occ. eigenvalues --   -0.49475  -0.49064  -0.48678  -0.48609  -0.48578
 Alpha  occ. eigenvalues --   -0.48441  -0.48145  -0.47834  -0.47658  -0.47552
 Alpha  occ. eigenvalues --   -0.47463  -0.47166  -0.46931  -0.46898  -0.46732
 Alpha  occ. eigenvalues --   -0.46626  -0.46561  -0.46197  -0.46133  -0.45713
 Alpha  occ. eigenvalues --   -0.45573  -0.45395  -0.45306  -0.45187  -0.45036
 Alpha  occ. eigenvalues --   -0.44700  -0.44573  -0.44384  -0.44235  -0.44154
 Alpha  occ. eigenvalues --   -0.43964  -0.43772  -0.43644  -0.43362  -0.43259
 Alpha  occ. eigenvalues --   -0.43011  -0.42924  -0.42668  -0.42334  -0.41977
 Alpha  occ. eigenvalues --   -0.41833  -0.41746  -0.41723  -0.41398  -0.41159
 Alpha  occ. eigenvalues --   -0.40956  -0.40375  -0.39949  -0.39782  -0.39354
 Alpha  occ. eigenvalues --   -0.39318  -0.38944  -0.38715  -0.38608  -0.38056
 Alpha  occ. eigenvalues --   -0.37464  -0.36881  -0.36864  -0.36812  -0.36671
 Alpha  occ. eigenvalues --   -0.36172  -0.35584  -0.35456  -0.33495  -0.33023
 Alpha  occ. eigenvalues --   -0.32255  -0.31924  -0.31427  -0.30713  -0.26504
 Alpha  occ. eigenvalues --   -0.23064
 Alpha virt. eigenvalues --   -0.07260   0.00218   0.02923   0.04944   0.05349
 Alpha virt. eigenvalues --    0.05695   0.06420   0.07580   0.07913   0.09594
 Alpha virt. eigenvalues --    0.10807   0.11212   0.11641   0.11975   0.12283

 Mulliken charges:
               1
     1  Mg   0.962277
     2  C   -0.036676
     3  C   -0.082399
     4  C   -0.091326
     5  C   -0.078371
     6  N   -0.299130
     7  C   -0.039276
     8  C   -0.004915
     9  C   -0.150446
    10  C    0.060144
    11  C    0.016989
    12  C    0.052506
    13  C    0.043540
    14  C    0.219635
    15  O   -0.265684
    16  O   -0.388903
    17  N   -0.475670
    18  C    0.191462
    19  C   -0.150840
    20  C   -0.072609
    21  C    0.188992
    22  C    0.060470
    23  C    0.017350
    24  O   -0.195724
    25  C    0.002569
    26  N   -0.448105
    27  C    0.094864
    28  C   -0.156944
    29  C   -0.050006
    30  C    0.105277
    31  C    0.037833
    32  C   -0.008283
    33  C   -0.041602
    34  N   -0.416458
    35  C    0.070446
    36  C   -0.160490
    37  C   -0.055910
    38  C    0.161311
    39  C    0.073433
    40  C    0.119059
    41  O   -0.206769
    42  C   -0.090172
    43  C    0.256028
    44  O   -0.245973
    45  O   -0.336605
    46  C    0.127030
    47  C    0.255836
    48  C   -0.150207
    49  C   -0.180525
    50  C    0.029643
    51  C   -0.010003
    52  C   -0.001230
    53  C    0.011469
    54  C   -0.177530
    55  C   -0.029457
    56  C    0.058256
    57  C   -0.059842
    58  C    0.006517
    59  C   -0.170097
    60  C    0.000091
    61  C   -0.004598
    62  C   -0.030609
    63  C    0.034842
    64  C   -0.211187
    65  C   -0.009660
    66  C    0.007225
    67  H   -0.006323
    68  H   -0.042081
    69  H   -0.012870
    70  H    0.016914
    71  H    0.048995
    72  H    0.039254
    73  H    0.052115
    74  H    0.032157
    75  H    0.033534
    76  H    0.040332
    77  H    0.061179
    78  H    0.046501
    79  H    0.062667
    80  H    0.024846
    81  H    0.051188
    82  H    0.058481
    83  H    0.066826
    84  H    0.050715
    85  H    0.040477
    86  H    0.025673
    87  H    0.051705
    88  H    0.043662
    89  H    0.035944
    90  H    0.038249
    91  H    0.022642
    92  H    0.045604
    93  H    0.035429
    94  H    0.038131
    95  H    0.043735
    96  H    0.061849
    97  H    0.047584
    98  H    0.071104
    99  H    0.057740
   100  H    0.056963
   101  H    0.068157
   102  H    0.031108
   103  H    0.061226
   104  H    0.023863
   105  H    0.050934
   106  H    0.024835
   107  H    0.056162
   108  H    0.019471
   109  H    0.019463
   110  H    0.013971
   111  H    0.026148
   112  H    0.017731
   113  H    0.009492
   114  H    0.023984
   115  H    0.030833
   116  H    0.029007
   117  H    0.023285
   118  H    0.015036
   119  H    0.024519
   120  H    0.016471
   121  H    0.018317
   122  H   -0.007630
   123  H    0.008416
   124  H    0.020798
   125  H    0.016441
   126  H    0.032585
   127  H    0.023650
   128  H    0.012755
   129  H    0.009992
   130  H    0.027955
   131  H    0.017705
   132  H    0.011455
   133  H    0.019718
   134  H    0.024981
   135  H    0.033400
   136  H    0.034650
   137  H    0.015945
   138  H    0.010917
   139  H    0.021615
   140  H    0.038861
 Sum of Mulliken charges =  -0.00000

 Dipole moment (field-independent basis, Debye):
    X=              0.3220    Y=              2.0128    Z=              0.9216  Tot=              2.2371
 Quadrupole moment (field-independent basis, Debye-Ang):
   XX=           -371.1586   YY=           -383.5919   ZZ=           -437.8167
   XY=            -30.9696   XZ=              4.8772   YZ=            -26.1243

 Normal termination of Gaussian 16 at Thu Apr 28 20:05:26 2022.
