 Gaussian 16, Revision A.03,
 Gaussian 16:  ES64L-G16RevA.03 25-Dec-2016

 --------------------
 #p ZINDO=(nstates=5)
 --------------------

 ------------------------------
 step_1701_chromophore_23 ZINDO
 ------------------------------
 Symbolic Z-matrix:
 Charge =  0 Multiplicity = 1

                         Standard orientation:
 ---------------------------------------------------------------------
 Center     Atomic      Atomic             Coordinates (Angstroms)
 Number     Number       Type             X           Y           Z
 ---------------------------------------------------------------------
      1         12           0       -4.644183    0.306550    0.283547
      2          6           0       -2.709646   -2.324888   -1.307603
      3          6           0       -2.609176   -0.349408    3.038751
      4          6           0       -5.902744    2.905369    1.691335
      5          6           0       -5.799666    1.183098   -2.879694
      6          7           0       -2.876682   -1.166847    0.767481
      7          6           0       -2.396274   -2.248740    0.035686
      8          6           0       -1.292254   -2.987330    0.775628
      9          6           0       -1.407323   -2.413001    2.231082
     10          6           0       -2.380851   -1.229911    1.998867
     11          6           0       -1.882346   -3.440974    3.341119
     12          6           0        0.185617   -3.055474    0.199103
     13          6           0        0.816830   -4.384657    0.114922
     14          6           0        1.983808   -4.745245    0.966329
     15          8           0        2.000008   -4.920278    2.180996
     16          8           0        3.102211   -4.968289    0.120122
     17          7           0       -4.396646    1.158128    2.216787
     18          6           0       -3.447711    0.746417    3.173403
     19          6           0       -3.724932    1.558519    4.313104
     20          6           0       -4.832770    2.419856    4.025242
     21          6           0       -5.055337    2.242963    2.629426
     22          6           0       -3.114511    1.288970    5.636111
     23          6           0       -5.555463    3.333969    5.022641
     24          8           0       -5.293962    3.269311    6.176227
     25          6           0       -6.579324    4.313230    4.580650
     26          7           0       -5.651632    1.800864   -0.492588
     27          6           0       -6.158655    2.709302    0.358246
     28          6           0       -7.069028    3.749537   -0.363689
     29          6           0       -7.120440    3.171750   -1.833037
     30          6           0       -6.098134    2.034150   -1.778170
     31          6           0       -8.439377    4.092947    0.351007
     32          6           0       -7.046660    4.083572   -3.046925
     33          6           0       -8.147110    3.988455   -4.133450
     34          7           0       -4.497096   -0.459574   -1.734541
     35          6           0       -5.013627    0.038142   -2.910441
     36          6           0       -4.633873   -0.811675   -4.022024
     37          6           0       -3.780917   -1.763611   -3.399228
     38          6           0       -3.652929   -1.486646   -2.037639
     39          6           0       -5.010154   -0.581814   -5.473266
     40          6           0       -2.967203   -2.932694   -3.709456
     41          8           0       -2.697467   -3.291990   -4.841438
     42          6           0       -2.223979   -3.305647   -2.372809
     43          6           0       -2.673933   -4.738157   -2.088512
     44          8           0       -3.823255   -5.136554   -2.046245
     45          8           0       -1.592677   -5.466222   -1.834370
     46          6           0       -1.807715   -6.825202   -1.255794
     47          6           0        4.382507   -5.351942    0.688843
     48          6           0        5.441512   -4.244699    0.399603
     49          6           0        5.510802   -2.996183    0.957322
     50          6           0        4.567918   -2.332286    1.996752
     51          6           0        6.762383   -2.250090    0.627889
     52          6           0        8.054436   -2.616097    1.331967
     53          6           0        9.313528   -2.165222    0.536462
     54          6           0        9.865812   -0.689839    0.938932
     55          6           0       11.373238   -0.845403    1.473053
     56          6           0        9.903148    0.263488   -0.243157
     57          6           0        9.180123    1.611160    0.158358
     58          6           0        7.795946    1.656659   -0.467092
     59          6           0        7.069028    3.037530   -0.305018
     60          6           0        6.001354    2.943942    0.828178
     61          6           0        6.391742    3.654211   -1.614552
     62          6           0        6.424041    5.214722   -1.576753
     63          6           0        7.408528    5.846289   -2.576688
     64          6           0        8.546563    6.618572   -1.835719
     65          6           0        8.913281    7.912390   -2.615928
     66          6           0        9.736908    5.704699   -1.396072
     67          1           0       -2.056264   -0.597248    3.947490
     68          1           0       -6.520820    3.715156    2.085955
     69          1           0       -6.077975    1.419384   -3.909437
     70          1           0       -1.717615   -3.990824    0.810756
     71          1           0       -0.444812   -2.056915    2.598992
     72          1           0       -2.814526   -3.041436    3.739768
     73          1           0       -1.153888   -3.623787    4.130725
     74          1           0       -2.082994   -4.422270    2.909815
     75          1           0        0.777871   -2.428863    0.865931
     76          1           0        0.196758   -2.476218   -0.724410
     77          1           0        1.107858   -4.620959   -0.909033
     78          1           0        0.018812   -5.090813    0.344674
     79          1           0       -2.923772    2.153434    6.271359
     80          1           0       -2.257897    0.619892    5.710079
     81          1           0       -3.849836    0.660067    6.138407
     82          1           0       -7.352044    3.713845    4.097200
     83          1           0       -6.171674    5.079126    3.921872
     84          1           0       -6.953920    4.838730    5.458881
     85          1           0       -6.496880    4.676088   -0.411488
     86          1           0       -8.126726    2.751924   -1.811328
     87          1           0       -8.416009    5.157083    0.585473
     88          1           0       -8.460514    3.433607    1.218312
     89          1           0       -9.247319    3.781606   -0.309654
     90          1           0       -6.078462    3.940684   -3.526037
     91          1           0       -7.061794    5.049498   -2.541436
     92          1           0       -7.791669    3.642789   -5.104237
     93          1           0       -8.448655    5.027643   -4.259127
     94          1           0       -9.008783    3.402694   -3.812494
     95          1           0       -6.085328   -0.402978   -5.501500
     96          1           0       -4.679771   -1.403194   -6.108236
     97          1           0       -4.519441    0.310896   -5.860401
     98          1           0       -1.162055   -3.248575   -2.610887
     99          1           0       -2.405532   -6.764691   -0.346610
    100          1           0       -0.859188   -7.303500   -1.011647
    101          1           0       -2.255474   -7.566631   -1.917286
    102          1           0        4.721469   -6.210245    0.108032
    103          1           0        4.256407   -5.698070    1.714796
    104          1           0        6.269991   -4.467921   -0.271807
    105          1           0        4.965967   -2.247779    3.008516
    106          1           0        3.839699   -3.141921    2.046043
    107          1           0        4.137338   -1.378451    1.693014
    108          1           0        6.600489   -1.182871    0.779306
    109          1           0        6.880152   -2.399976   -0.445253
    110          1           0        8.152774   -3.701798    1.312974
    111          1           0        7.957802   -2.178781    2.324961
    112          1           0        9.224790   -2.331925   -0.536556
    113          1           0       10.086566   -2.870984    0.838421
    114          1           0        9.308835   -0.341430    1.808558
    115          1           0       12.086625   -0.815750    0.648928
    116          1           0       11.495817   -1.730253    2.097434
    117          1           0       11.662647   -0.026445    2.131093
    118          1           0        9.284824   -0.142449   -1.043362
    119          1           0       10.912533    0.464874   -0.600882
    120          1           0        9.726493    2.485221   -0.196059
    121          1           0        9.148714    1.691583    1.245318
    122          1           0        7.193886    0.851123   -0.046372
    123          1           0        7.892439    1.335875   -1.503886
    124          1           0        7.915796    3.585756    0.108336
    125          1           0        5.228569    3.683423    0.617504
    126          1           0        6.385254    3.154524    1.826877
    127          1           0        5.437686    2.010663    0.826360
    128          1           0        5.356208    3.315971   -1.657537
    129          1           0        6.761522    3.243061   -2.553653
    130          1           0        6.574108    5.560592   -0.553808
    131          1           0        5.382481    5.408217   -1.832120
    132          1           0        6.846254    6.579972   -3.154878
    133          1           0        7.712888    5.054857   -3.262490
    134          1           0        8.158658    7.077491   -0.925178
    135          1           0        9.249684    8.629690   -1.868072
    136          1           0        8.140803    8.275266   -3.293067
    137          1           0        9.741487    7.649096   -3.273587
    138          1           0       10.410358    5.567890   -2.241756
    139          1           0        9.490079    4.651988   -1.259608
    140          1           0       10.338034    6.117810   -0.585630
 ---------------------------------------------------------------------

 SCF Done:  E(RZINDO/S) =  -474.273920574     A.U. after   20 cycles

 Excitation energies and oscillator strengths:

 Excited State   1:      Singlet-A      1.2748 eV  972.59 nm  f=0.5893  <S**2>=0.000
     175 ->178         0.17852
     176 ->177         0.66718
 This state for optimization and/or second-order correction.
 Total Energy, E(CIS/TDA) =  -474.227073058
 Copying the excited state density for this state as the 1-particle RhoCI density.

 Excited State   2:      Singlet-A      1.9650 eV  630.97 nm  f=0.0302  <S**2>=0.000
     175 ->177         0.53520
     176 ->178        -0.43558

 Excited State   3:      Singlet-A      2.8758 eV  431.12 nm  f=0.0014  <S**2>=0.000
     170 ->177         0.25084
     170 ->178        -0.13639
     170 ->179         0.34388
     170 ->182        -0.25906
     170 ->184        -0.12393
     170 ->186         0.20733
     174 ->177         0.22445
     174 ->179         0.14255

 Excited State   4:      Singlet-A      2.9499 eV  420.30 nm  f=0.0392  <S**2>=0.000
     168 ->177         0.11201
     168 ->179        -0.15663
     168 ->182        -0.18921
     168 ->186        -0.10852
     168 ->187         0.10256
     171 ->177         0.29112
     172 ->177         0.47951
     172 ->179        -0.10094
     174 ->177        -0.12038
     176 ->178         0.13670

 Excited State   5:      Singlet-A      3.0447 eV  407.22 nm  f=0.7187  <S**2>=0.000
     175 ->177         0.31743
     176 ->178         0.42238
     176 ->179        -0.34256
     176 ->182         0.10256

 The electronic state is 1-A.
 Alpha  occ. eigenvalues --   -1.83263  -1.81986  -1.80288  -1.73059  -1.72236
 Alpha  occ. eigenvalues --   -1.70526  -1.64195  -1.62791  -1.59671  -1.58592
 Alpha  occ. eigenvalues --   -1.54428  -1.51004  -1.48588  -1.47981  -1.47683
 Alpha  occ. eigenvalues --   -1.44978  -1.43938  -1.41375  -1.39235  -1.38661
 Alpha  occ. eigenvalues --   -1.35702  -1.33078  -1.32174  -1.31648  -1.28045
 Alpha  occ. eigenvalues --   -1.27610  -1.26623  -1.24079  -1.20986  -1.17653
 Alpha  occ. eigenvalues --   -1.17501  -1.16412  -1.15653  -1.13377  -1.12835
 Alpha  occ. eigenvalues --   -1.10891  -1.10367  -1.09977  -1.05304  -1.04556
 Alpha  occ. eigenvalues --   -1.03210  -1.01437  -0.99645  -0.98616  -0.97362
 Alpha  occ. eigenvalues --   -0.96468  -0.94716  -0.93304  -0.92908  -0.92435
 Alpha  occ. eigenvalues --   -0.91685  -0.91439  -0.89990  -0.88666  -0.87115
 Alpha  occ. eigenvalues --   -0.86216  -0.84142  -0.83504  -0.82535  -0.80047
 Alpha  occ. eigenvalues --   -0.79251  -0.78894  -0.77459  -0.76763  -0.76261
 Alpha  occ. eigenvalues --   -0.76149  -0.75485  -0.75025  -0.74640  -0.73717
 Alpha  occ. eigenvalues --   -0.73355  -0.72704  -0.71734  -0.71387  -0.70483
 Alpha  occ. eigenvalues --   -0.70163  -0.69863  -0.69204  -0.68427  -0.67633
 Alpha  occ. eigenvalues --   -0.66909  -0.66617  -0.66539  -0.65809  -0.65554
 Alpha  occ. eigenvalues --   -0.65236  -0.64775  -0.64382  -0.63420  -0.63239
 Alpha  occ. eigenvalues --   -0.62907  -0.62818  -0.62201  -0.62127  -0.61698
 Alpha  occ. eigenvalues --   -0.61420  -0.60897  -0.60821  -0.60510  -0.60411
 Alpha  occ. eigenvalues --   -0.60038  -0.59143  -0.59041  -0.58457  -0.58224
 Alpha  occ. eigenvalues --   -0.57772  -0.57462  -0.56997  -0.56169  -0.56050
 Alpha  occ. eigenvalues --   -0.55761  -0.55285  -0.55114  -0.54899  -0.54547
 Alpha  occ. eigenvalues --   -0.54072  -0.53943  -0.53584  -0.53221  -0.52885
 Alpha  occ. eigenvalues --   -0.52534  -0.52525  -0.52336  -0.51844  -0.51664
 Alpha  occ. eigenvalues --   -0.51466  -0.51283  -0.51180  -0.50538  -0.50377
 Alpha  occ. eigenvalues --   -0.50282  -0.50061  -0.49316  -0.49083  -0.48990
 Alpha  occ. eigenvalues --   -0.48934  -0.48760  -0.48527  -0.48350  -0.47984
 Alpha  occ. eigenvalues --   -0.47798  -0.47224  -0.47092  -0.47014  -0.46817
 Alpha  occ. eigenvalues --   -0.46488  -0.46313  -0.46141  -0.46066  -0.45689
 Alpha  occ. eigenvalues --   -0.45388  -0.45254  -0.44972  -0.44770  -0.44096
 Alpha  occ. eigenvalues --   -0.43299  -0.43139  -0.43006  -0.42910  -0.42236
 Alpha  occ. eigenvalues --   -0.41957  -0.41914  -0.41567  -0.39772  -0.39231
 Alpha  occ. eigenvalues --   -0.38578  -0.37131  -0.35578  -0.35009  -0.34174
 Alpha  occ. eigenvalues --   -0.32976  -0.32626  -0.32291  -0.31401  -0.27212
 Alpha  occ. eigenvalues --   -0.21953
 Alpha virt. eigenvalues --   -0.08676  -0.02109  -0.00181   0.01039   0.01544
 Alpha virt. eigenvalues --    0.01623   0.02596   0.03014   0.04154   0.04720
 Alpha virt. eigenvalues --    0.05934   0.06858   0.07402   0.07683   0.08209

 Mulliken charges:
               1
     1  Mg   0.432959
     2  C   -0.018232
     3  C   -0.053420
     4  C   -0.105383
     5  C   -0.062513
     6  N   -0.272402
     7  C    0.088831
     8  C   -0.001793
     9  C   -0.004474
    10  C    0.161520
    11  C   -0.053073
    12  C   -0.009529
    13  C    0.018528
    14  C    0.476131
    15  O   -0.514355
    16  O   -0.283861
    17  N   -0.346364
    18  C    0.107829
    19  C    0.065257
    20  C   -0.057484
    21  C    0.159113
    22  C   -0.040282
    23  C    0.332983
    24  O   -0.506818
    25  C   -0.027066
    26  N   -0.265019
    27  C    0.159449
    28  C   -0.013971
    29  C    0.000306
    30  C    0.096800
    31  C   -0.055985
    32  C   -0.027238
    33  C   -0.056028
    34  N   -0.329698
    35  C    0.087965
    36  C    0.008527
    37  C   -0.045491
    38  C    0.090481
    39  C   -0.033824
    40  C    0.325271
    41  O   -0.518988
    42  C    0.054629
    43  C    0.493556
    44  O   -0.521045
    45  O   -0.264205
    46  C    0.072732
    47  C    0.104176
    48  C   -0.097600
    49  C    0.002009
    50  C   -0.051178
    51  C   -0.023280
    52  C   -0.025654
    53  C   -0.046102
    54  C   -0.015528
    55  C   -0.066543
    56  C   -0.034384
    57  C   -0.038898
    58  C   -0.037795
    59  C   -0.022378
    60  C   -0.058376
    61  C   -0.034723
    62  C   -0.039596
    63  C   -0.029209
    64  C   -0.010745
    65  C   -0.060837
    66  C   -0.060304
    67  H    0.023722
    68  H    0.015431
    69  H    0.024483
    70  H    0.028588
    71  H    0.033027
    72  H    0.023741
    73  H    0.029417
    74  H    0.022315
    75  H    0.021661
    76  H    0.027336
    77  H    0.034453
    78  H    0.043589
    79  H    0.040865
    80  H    0.020526
    81  H    0.034955
    82  H    0.039376
    83  H    0.038096
    84  H    0.035634
    85  H    0.025399
    86  H    0.027203
    87  H    0.030754
    88  H    0.027344
    89  H    0.027013
    90  H    0.024028
    91  H    0.017247
    92  H    0.026519
    93  H    0.015307
    94  H    0.025232
    95  H    0.028072
    96  H    0.036837
    97  H    0.027135
    98  H    0.055340
    99  H    0.043097
   100  H    0.028158
   101  H    0.050203
   102  H    0.026146
   103  H    0.060385
   104  H    0.036777
   105  H    0.033668
   106  H    0.027920
   107  H    0.034947
   108  H    0.010656
   109  H    0.017007
   110  H    0.019630
   111  H    0.030020
   112  H    0.028782
   113  H    0.008533
   114  H    0.031116
   115  H    0.022443
   116  H    0.016414
   117  H    0.010402
   118  H    0.020306
   119  H    0.026909
   120  H    0.014381
   121  H    0.020720
   122  H    0.013660
   123  H    0.014953
   124  H    0.027595
   125  H    0.008918
   126  H    0.019570
   127  H    0.019378
   128  H    0.013256
   129  H    0.020584
   130  H    0.025819
   131  H    0.012533
   132  H    0.014313
   133  H    0.028463
   134  H    0.015365
   135  H    0.020909
   136  H    0.027046
   137  H    0.011883
   138  H    0.009609
   139  H    0.025113
   140  H    0.024397
 Sum of Mulliken charges =  -0.00000

 Dipole moment (field-independent basis, Debye):
    X=              0.6736    Y=              3.9186    Z=              2.1991  Tot=              4.5436
 N-N= 4.418257023269D+03 E-N= 0.000000000000D+00  KE=-9.510480558283D+03
 Leave Link  601 at Thu Apr 28 20:19:38 2022, MaxMem=  6710886400 cpu:               0.8 elap:               0.0
 (Enter /sw/apps/gaussian-16.0/g16/l9999.exe)
 1\1\GINC-BP1-COMPUTE159\SP\RZINDO CIS\STO-3G\C55H74Mg1N4O6\OF15641\28-
 Apr-2022\0\\#p ZINDO=(nstates=5)\\step_1701_chromophore_23 ZINDO\\0,1\
 Mg,0,-9.522,40.724,42.791\C,0,-8.448,37.447,41.648\C,0,-7.051,41.898,4
 0.628\C,0,-10.638,43.692,43.306\C,0,-12.356,39.188,44.102\N,0,-7.959,3
 9.756,41.325\C,0,-7.594,38.422,41.17\C,0,-6.465,38.257,40.165\C,0,-5.9
 44,39.726,39.986\C,0,-7.06,40.519,40.712\C,0,-4.482,40.009,40.531\C,0,
 -6.675,37.453,38.812\C,0,-5.686,36.41,38.486\C,0,-4.761,36.552,37.328\

 Normal termination of Gaussian 16 at Thu Apr 28 20:19:38 2022.
