 Gaussian 16, Revision A.03,
 Gaussian 16:  ES64L-G16RevA.03 25-Dec-2016

 ------------------------------
 #p blyp/Def2SVP td=(nstates=5)
 ------------------------------

 --------------------------------------------------
 step_201_chromophore_20 TDDFT with blyp functional
 --------------------------------------------------
 Symbolic Z-matrix:
 Charge =  0 Multiplicity = 1

                         Standard orientation:
 ---------------------------------------------------------------------
 Center     Atomic      Atomic             Coordinates (Angstroms)
 Number     Number       Type             X           Y           Z
 ---------------------------------------------------------------------
      1         12           0       -4.375152    1.210450    0.529908
      2          6           0       -4.638619   -2.200817    0.530049
      3          6           0       -2.044061    1.005509    2.998611
      4          6           0       -3.660926    4.590212    0.241482
      5          6           0       -6.456794    1.392371   -2.206141
      6          7           0       -3.360904   -0.424298    1.498454
      7          6           0       -3.607421   -1.773536    1.334385
      8          6           0       -2.597217   -2.636599    2.111133
      9          6           0       -2.103899   -1.651023    3.192083
     10          6           0       -2.548621   -0.232827    2.537711
     11          6           0       -2.593584   -1.930552    4.585595
     12          6           0       -1.482784   -3.170335    1.169046
     13          6           0       -0.837205   -4.583163    1.451636
     14          6           0        0.551738   -4.849493    1.956673
     15          8           0        0.853388   -5.571110    2.861941
     16          8           0        1.401710   -4.353611    0.993134
     17          7           0       -3.080482    2.606113    1.539327
     18          6           0       -2.285464    2.321560    2.605495
     19          6           0       -1.639702    3.561684    3.099070
     20          6           0       -2.131246    4.655359    2.290725
     21          6           0       -2.970611    3.991010    1.329533
     22          6           0       -0.773017    3.667764    4.290491
     23          6           0       -1.768255    6.129947    2.443512
     24          8           0       -1.037816    6.575761    3.357347
     25          6           0       -2.244979    7.243803    1.429337
     26          7           0       -4.823026    2.756579   -0.894971
     27          6           0       -4.530975    4.053777   -0.732999
     28          6           0       -5.254881    4.948813   -1.762810
     29          6           0       -6.183031    3.936931   -2.535568
     30          6           0       -5.782971    2.600878   -1.873258
     31          6           0       -6.024064    6.185925   -1.184340
     32          6           0       -5.940261    4.013870   -4.064676
     33          6           0       -7.160840    3.786068   -5.053764
     34          7           0       -5.395948   -0.140670   -0.690046
     35          6           0       -6.259208    0.083914   -1.745465
     36          6           0       -6.996985   -1.192456   -1.919734
     37          6           0       -6.374425   -2.107695   -1.041823
     38          6           0       -5.431759   -1.417795   -0.412596
     39          6           0       -8.288127   -1.436941   -2.708411
     40          6           0       -6.326004   -3.489216   -0.594916
     41          8           0       -7.035136   -4.493594   -0.729711
     42          6           0       -5.075071   -3.611273    0.363677
     43          6           0       -4.127411   -4.511084   -0.296126
     44          8           0       -3.642868   -4.322044   -1.395325
     45          8           0       -3.809730   -5.626270    0.476327
     46          6           0       -3.050706   -6.640710   -0.242670
     47          6           0        2.792711   -4.828025    1.130635
     48          6           0        3.671845   -4.153448    0.053360
     49          6           0        3.661834   -4.192295   -1.323913
     50          6           0        2.841336   -5.193908   -2.153686
     51          6           0        4.708596   -3.357753   -2.072453
     52          6           0        4.230340   -2.101292   -2.797049
     53          6           0        5.391623   -1.042244   -2.920112
     54          6           0        5.430203    0.112594   -1.917740
     55          6           0        4.932723    1.477840   -2.514781
     56          6           0        6.835757    0.307920   -1.276464
     57          6           0        6.880162    0.720547    0.247431
     58          6           0        7.884004    1.830110    0.568546
     59          6           0        9.253477    1.381405    1.063277
     60          6           0        9.492983    1.788533    2.573341
     61          6           0       10.410858    1.787085    0.063428
     62          6           0       11.821240    1.158916    0.361212
     63          6           0       12.614544    0.522920   -0.795433
     64          6           0       13.802190    1.436820   -1.032983
     65          6           0       13.535886    2.544093   -2.115378
     66          6           0       14.983166    0.554533   -1.542530
     67          1           0       -1.329709    0.963680    3.823591
     68          1           0       -3.469964    5.643022    0.021857
     69          1           0       -7.255479    1.430797   -2.948608
     70          1           0       -3.146088   -3.481877    2.524769
     71          1           0       -1.038446   -1.727922    3.410443
     72          1           0       -3.584449   -2.374231    4.486747
     73          1           0       -2.767527   -1.020760    5.158284
     74          1           0       -1.968474   -2.581135    5.197019
     75          1           0       -0.713246   -2.399741    1.142519
     76          1           0       -1.858732   -3.394941    0.171126
     77          1           0       -0.905861   -5.088153    0.487904
     78          1           0       -1.454513   -5.257316    2.047167
     79          1           0        0.252612    3.766265    3.934371
     80          1           0       -0.859802    2.948120    5.105673
     81          1           0       -1.140772    4.602006    4.716006
     82          1           0       -3.334607    7.234831    1.463800
     83          1           0       -1.880282    7.190667    0.404007
     84          1           0       -1.850664    8.216516    1.724359
     85          1           0       -4.371886    5.244706   -2.329360
     86          1           0       -7.244244    4.104098   -2.352502
     87          1           0       -5.647233    7.159695   -1.497089
     88          1           0       -5.953949    6.118918   -0.098772
     89          1           0       -7.060849    6.030450   -1.480783
     90          1           0       -5.187577    3.283224   -4.361229
     91          1           0       -5.568384    4.979584   -4.408611
     92          1           0       -6.952225    4.514444   -5.836975
     93          1           0       -8.134096    3.946557   -4.589930
     94          1           0       -7.168972    2.785940   -5.487422
     95          1           0       -9.090358   -0.731570   -2.490929
     96          1           0       -8.693736   -2.444664   -2.609089
     97          1           0       -8.058699   -1.274033   -3.761164
     98          1           0       -5.381750   -4.069094    1.303765
     99          1           0       -3.740401   -7.282072   -0.791775
    100          1           0       -2.465125   -7.321649    0.375821
    101          1           0       -2.323458   -6.434108   -1.026307
    102          1           0        2.874585   -5.911993    1.202830
    103          1           0        3.048570   -4.523678    2.145762
    104          1           0        4.253707   -3.329140    0.465208
    105          1           0        3.420652   -5.952281   -2.680302
    106          1           0        2.233472   -4.676372   -2.895735
    107          1           0        2.119885   -5.661747   -1.484116
    108          1           0        5.086416   -4.044963   -2.829685
    109          1           0        5.498845   -3.110613   -1.363483
    110          1           0        3.359558   -1.737697   -2.251955
    111          1           0        3.899643   -2.383776   -3.795705
    112          1           0        5.326057   -0.579970   -3.905401
    113          1           0        6.353109   -1.554667   -2.969004
    114          1           0        4.780189   -0.197599   -1.099381
    115          1           0        4.567754    2.203562   -1.788105
    116          1           0        4.005767    1.387623   -3.081726
    117          1           0        5.685930    1.955040   -3.141984
    118          1           0        7.514803    0.849226   -1.935155
    119          1           0        7.259563   -0.695817   -1.265143
    120          1           0        7.163733   -0.116878    0.885799
    121          1           0        5.887407    1.043956    0.559408
    122          1           0        7.383242    2.583236    1.177220
    123          1           0        8.083832    2.395904   -0.340708
    124          1           0        9.183753    0.294470    1.025005
    125          1           0        9.260025    0.948094    3.227915
    126          1           0        8.826363    2.599534    2.870930
    127          1           0       10.544110    2.028105    2.730795
    128          1           0       10.379962    2.871775    0.163735
    129          1           0       10.137937    1.419559   -0.926416
    130          1           0       11.702268    0.451456    1.182272
    131          1           0       12.445820    1.914690    0.836340
    132          1           0       11.962553    0.402276   -1.660596
    133          1           0       12.886796   -0.450249   -0.389010
    134          1           0       14.139607    2.116010   -0.249393
    135          1           0       14.146602    3.417264   -1.884816
    136          1           0       12.463238    2.726682   -2.172856
    137          1           0       13.925142    2.212424   -3.078080
    138          1           0       14.695020   -0.028950   -2.416837
    139          1           0       15.139256   -0.138097   -0.715224
    140          1           0       15.775188    1.281436   -1.720967
 ---------------------------------------------------------------------

 SCF Done:  E(RB-LYP) =  -3007.37723767     A.U. after   21 cycles

 Excitation energies and oscillator strengths:

 Excited State   1:      Singlet-A      1.7993 eV  689.07 nm  f=0.2888  <S**2>=0.000
     245 -> 248       -0.16092
     245 -> 249       -0.10750
     246 -> 247        0.68533
     246 <- 247       -0.14804
 This state for optimization and/or second-order correction.
 Total Energy, E(TD-HF/TD-DFT) =  -3007.31111488
 Copying the excited state density for this state as the 1-particle RhoCI density.

 Excited State   2:      Singlet-A      1.9452 eV  637.39 nm  f=0.0010  <S**2>=0.000
     244 -> 247        0.69938

 Excited State   3:      Singlet-A      1.9498 eV  635.89 nm  f=0.0082  <S**2>=0.000
     243 -> 247        0.66631
     245 -> 247        0.19796

 Excited State   4:      Singlet-A      1.9897 eV  623.14 nm  f=0.0736  <S**2>=0.000
     243 -> 247       -0.21771
     245 -> 247        0.62253
     246 -> 248        0.18735
     246 -> 249        0.13434

 Excited State   5:      Singlet-A      2.2895 eV  541.54 nm  f=0.0004  <S**2>=0.000
     242 -> 247        0.70540

 The electronic state is 1-A.
 Alpha  occ. eigenvalues --  -46.28156 -18.83057 -18.81241 -18.77101 -18.77002
 Alpha  occ. eigenvalues --  -18.76402 -18.76127 -14.03978 -14.03823 -14.01568
 Alpha  occ. eigenvalues --  -14.00809 -10.04203 -10.03463 -10.01395 -10.00304
 Alpha  occ. eigenvalues --   -9.97661  -9.97639  -9.97560  -9.97251  -9.97011
 Alpha  occ. eigenvalues --   -9.96832  -9.96601  -9.95994  -9.95833  -9.94943
 Alpha  occ. eigenvalues --   -9.94643  -9.94602  -9.94432  -9.94352  -9.94319
 Alpha  occ. eigenvalues --   -9.94256  -9.93895  -9.93792  -9.93666  -9.93605
 Alpha  occ. eigenvalues --   -9.93479  -9.93293  -9.93189  -9.93184  -9.93100
 Alpha  occ. eigenvalues --   -9.93045  -9.92722  -9.92587  -9.92573  -9.92390
 Alpha  occ. eigenvalues --   -9.92285  -9.92238  -9.92231  -9.92203  -9.92021
 Alpha  occ. eigenvalues --   -9.91902  -9.91894  -9.91572  -9.91508  -9.91253
 Alpha  occ. eigenvalues --   -9.91204  -9.91165  -9.91116  -9.91092  -9.91009
 Alpha  occ. eigenvalues --   -9.90990  -9.90756  -9.90615  -9.90601  -9.90593
 Alpha  occ. eigenvalues --   -9.90103  -2.92698  -1.73111  -1.72558  -1.72437
 Alpha  occ. eigenvalues --   -0.98151  -0.97838  -0.91077  -0.90751  -0.90549
 Alpha  occ. eigenvalues --   -0.90215  -0.87757  -0.86622  -0.86497  -0.85127
 Alpha  occ. eigenvalues --   -0.76339  -0.73124  -0.72874  -0.72575  -0.72427
 Alpha  occ. eigenvalues --   -0.71993  -0.71736  -0.71094  -0.70599  -0.70463
 Alpha  occ. eigenvalues --   -0.69796  -0.69437  -0.68167  -0.67695  -0.67176
 Alpha  occ. eigenvalues --   -0.66280  -0.65969  -0.65223  -0.64903  -0.64461
 Alpha  occ. eigenvalues --   -0.63710  -0.62717  -0.62555  -0.62157  -0.61308
 Alpha  occ. eigenvalues --   -0.60305  -0.60119  -0.59773  -0.59366  -0.59039
 Alpha  occ. eigenvalues --   -0.58198  -0.57647  -0.56940  -0.55890  -0.55117
 Alpha  occ. eigenvalues --   -0.54153  -0.53988  -0.53447  -0.52310  -0.52166
 Alpha  occ. eigenvalues --   -0.51855  -0.51379  -0.50697  -0.50313  -0.49560
 Alpha  occ. eigenvalues --   -0.49393  -0.49236  -0.49172  -0.48629  -0.46845
 Alpha  occ. eigenvalues --   -0.46334  -0.46003  -0.45830  -0.45511  -0.45301
 Alpha  occ. eigenvalues --   -0.44637  -0.43900  -0.43458  -0.42897  -0.42531
 Alpha  occ. eigenvalues --   -0.42457  -0.42019  -0.41521  -0.41431  -0.40969
 Alpha  occ. eigenvalues --   -0.40515  -0.40395  -0.40361  -0.40194  -0.39761
 Alpha  occ. eigenvalues --   -0.39639  -0.39471  -0.39291  -0.39193  -0.38998
 Alpha  occ. eigenvalues --   -0.38827  -0.38683  -0.38635  -0.38442  -0.38431
 Alpha  occ. eigenvalues --   -0.38231  -0.38094  -0.37705  -0.37342  -0.37171
 Alpha  occ. eigenvalues --   -0.36792  -0.36716  -0.36630  -0.36396  -0.36346
 Alpha  occ. eigenvalues --   -0.36014  -0.35954  -0.35841  -0.35730  -0.35561
 Alpha  occ. eigenvalues --   -0.35316  -0.35237  -0.35112  -0.34967  -0.34830
 Alpha  occ. eigenvalues --   -0.34578  -0.34427  -0.34240  -0.34004  -0.33795
 Alpha  occ. eigenvalues --   -0.33710  -0.33566  -0.33510  -0.33359  -0.33242
 Alpha  occ. eigenvalues --   -0.32974  -0.32934  -0.32860  -0.32796  -0.32622
 Alpha  occ. eigenvalues --   -0.32405  -0.32265  -0.32047  -0.31684  -0.31483
 Alpha  occ. eigenvalues --   -0.31428  -0.31335  -0.30849  -0.30728  -0.30687
 Alpha  occ. eigenvalues --   -0.30633  -0.30536  -0.30355  -0.30192  -0.29996
 Alpha  occ. eigenvalues --   -0.29859  -0.29453  -0.29312  -0.29146  -0.29071
 Alpha  occ. eigenvalues --   -0.28975  -0.28648  -0.28393  -0.28258  -0.28062
 Alpha  occ. eigenvalues --   -0.27720  -0.27443  -0.27125  -0.27067  -0.26815
 Alpha  occ. eigenvalues --   -0.26426  -0.26006  -0.25861  -0.25692  -0.25398
 Alpha  occ. eigenvalues --   -0.25137  -0.24718  -0.24531  -0.24344  -0.24189
 Alpha  occ. eigenvalues --   -0.23466  -0.22932  -0.22437  -0.21954  -0.21137
 Alpha  occ. eigenvalues --   -0.20655  -0.20453  -0.19128  -0.19100  -0.17666
 Alpha  occ. eigenvalues --   -0.16307
 Alpha virt. eigenvalues --   -0.12044  -0.07683  -0.06296  -0.05606  -0.03618
 Alpha virt. eigenvalues --   -0.03368  -0.03317  -0.02626  -0.02102  -0.00660
 Alpha virt. eigenvalues --    0.00683   0.01658   0.02481   0.02574   0.03121

 Mulliken charges:
               1
     1  Mg   0.695117
     2  C    0.025907
     3  C   -0.066947
     4  C   -0.057303
     5  C   -0.072021
     6  N   -0.216294
     7  C   -0.118029
     8  C    0.076313
     9  C    0.000205
    10  C    0.074155
    11  C    0.119646
    12  C    0.135837
    13  C    0.090051
    14  C    0.062750
    15  O   -0.160293
    16  O   -0.286829
    17  N   -0.270653
    18  C    0.116652
    19  C   -0.144491
    20  C    0.071173
    21  C    0.127035
    22  C    0.170058
    23  C   -0.058733
    24  O   -0.181455
    25  C    0.108810
    26  N   -0.205900
    27  C   -0.049098
    28  C    0.014575
    29  C    0.053232
    30  C    0.042443
    31  C    0.141209
    32  C    0.057452
    33  C    0.047982
    34  N   -0.241662
    35  C    0.103899
    36  C   -0.187374
    37  C    0.125661
    38  C    0.075659
    39  C    0.155931
    40  C   -0.063692
    41  O   -0.141866
    42  C    0.089572
    43  C    0.104550
    44  O   -0.178313
    45  O   -0.266879
    46  C    0.218393
    47  C    0.299790
    48  C   -0.087024
    49  C   -0.136602
    50  C    0.132120
    51  C    0.114420
    52  C    0.087822
    53  C    0.108814
    54  C   -0.032453
    55  C    0.101930
    56  C    0.082933
    57  C    0.082437
    58  C    0.104114
    59  C   -0.081451
    60  C    0.105503
    61  C    0.080134
    62  C    0.050628
    63  C    0.151643
    64  C   -0.130329
    65  C    0.085737
    66  C    0.117573
    67  H   -0.068117
    68  H   -0.087961
    69  H   -0.062831
    70  H   -0.033149
    71  H   -0.028848
    72  H   -0.021672
    73  H   -0.019664
    74  H    0.005944
    75  H   -0.015407
    76  H    0.003417
    77  H   -0.001560
    78  H   -0.016085
    79  H    0.012258
    80  H   -0.007297
    81  H    0.014520
    82  H    0.014122
    83  H    0.018811
    84  H   -0.012263
    85  H   -0.011149
    86  H   -0.018380
    87  H   -0.000022
    88  H   -0.005578
    89  H   -0.010933
    90  H   -0.014849
    91  H   -0.016623
    92  H   -0.007805
    93  H   -0.007959
    94  H    0.002334
    95  H   -0.002862
    96  H    0.009014
    97  H   -0.007558
    98  H   -0.015767
    99  H    0.003089
   100  H    0.008337
   101  H    0.014694
   102  H   -0.000642
   103  H   -0.023583
   104  H   -0.029207
   105  H    0.007361
   106  H   -0.004939
   107  H   -0.012069
   108  H   -0.029388
   109  H   -0.020434
   110  H   -0.018939
   111  H   -0.030544
   112  H   -0.050372
   113  H   -0.040510
   114  H   -0.043435
   115  H   -0.022627
   116  H   -0.025582
   117  H   -0.010250
   118  H   -0.026891
   119  H   -0.047591
   120  H   -0.027611
   121  H   -0.034198
   122  H   -0.045966
   123  H   -0.050482
   124  H   -0.047035
   125  H   -0.017548
   126  H   -0.012850
   127  H   -0.014695
   128  H   -0.021248
   129  H   -0.027569
   130  H   -0.040421
   131  H   -0.034929
   132  H   -0.025110
   133  H   -0.036968
   134  H   -0.022002
   135  H   -0.018643
   136  H   -0.006927
   137  H   -0.027062
   138  H   -0.010934
   139  H   -0.017268
   140  H   -0.017264
 Sum of Mulliken charges =  -0.00000

 Dipole moment (field-independent basis, Debye):
    X=             -0.5305    Y=              3.1341    Z=             -2.2435  Tot=              3.8907
 Quadrupole moment (field-independent basis, Debye-Ang):
   XX=           -398.8357   YY=           -419.8861   ZZ=           -406.5940
   XY=            -42.3985   XZ=             -1.3953   YZ=            -14.9885

 Normal termination of Gaussian 16 at Fri Apr 29 08:47:10 2022.
