 Gaussian 16, Revision A.03,
 Gaussian 16:  ES64L-G16RevA.03 25-Dec-2016

 -----------------------------------
 #p cam-b3lyp/Def2SVP td=(nstates=5)
 -----------------------------------

 -------------------------------------------------------
 step_201_chromophore_20 TDDFT with cam-b3lyp functional
 -------------------------------------------------------
 Symbolic Z-matrix:
 Charge =  0 Multiplicity = 1

                         Standard orientation:
 ---------------------------------------------------------------------
 Center     Atomic      Atomic             Coordinates (Angstroms)
 Number     Number       Type             X           Y           Z
 ---------------------------------------------------------------------
      1         12           0       -4.375152    1.210450    0.529908
      2          6           0       -4.638619   -2.200817    0.530049
      3          6           0       -2.044061    1.005509    2.998611
      4          6           0       -3.660926    4.590212    0.241482
      5          6           0       -6.456794    1.392371   -2.206141
      6          7           0       -3.360904   -0.424298    1.498454
      7          6           0       -3.607421   -1.773536    1.334385
      8          6           0       -2.597217   -2.636599    2.111133
      9          6           0       -2.103899   -1.651023    3.192083
     10          6           0       -2.548621   -0.232827    2.537711
     11          6           0       -2.593584   -1.930552    4.585595
     12          6           0       -1.482784   -3.170335    1.169046
     13          6           0       -0.837205   -4.583163    1.451636
     14          6           0        0.551738   -4.849493    1.956673
     15          8           0        0.853388   -5.571110    2.861941
     16          8           0        1.401710   -4.353611    0.993134
     17          7           0       -3.080482    2.606113    1.539327
     18          6           0       -2.285464    2.321560    2.605495
     19          6           0       -1.639702    3.561684    3.099070
     20          6           0       -2.131246    4.655359    2.290725
     21          6           0       -2.970611    3.991010    1.329533
     22          6           0       -0.773017    3.667764    4.290491
     23          6           0       -1.768255    6.129947    2.443512
     24          8           0       -1.037816    6.575761    3.357347
     25          6           0       -2.244979    7.243803    1.429337
     26          7           0       -4.823026    2.756579   -0.894971
     27          6           0       -4.530975    4.053777   -0.732999
     28          6           0       -5.254881    4.948813   -1.762810
     29          6           0       -6.183031    3.936931   -2.535568
     30          6           0       -5.782971    2.600878   -1.873258
     31          6           0       -6.024064    6.185925   -1.184340
     32          6           0       -5.940261    4.013870   -4.064676
     33          6           0       -7.160840    3.786068   -5.053764
     34          7           0       -5.395948   -0.140670   -0.690046
     35          6           0       -6.259208    0.083914   -1.745465
     36          6           0       -6.996985   -1.192456   -1.919734
     37          6           0       -6.374425   -2.107695   -1.041823
     38          6           0       -5.431759   -1.417795   -0.412596
     39          6           0       -8.288127   -1.436941   -2.708411
     40          6           0       -6.326004   -3.489216   -0.594916
     41          8           0       -7.035136   -4.493594   -0.729711
     42          6           0       -5.075071   -3.611273    0.363677
     43          6           0       -4.127411   -4.511084   -0.296126
     44          8           0       -3.642868   -4.322044   -1.395325
     45          8           0       -3.809730   -5.626270    0.476327
     46          6           0       -3.050706   -6.640710   -0.242670
     47          6           0        2.792711   -4.828025    1.130635
     48          6           0        3.671845   -4.153448    0.053360
     49          6           0        3.661834   -4.192295   -1.323913
     50          6           0        2.841336   -5.193908   -2.153686
     51          6           0        4.708596   -3.357753   -2.072453
     52          6           0        4.230340   -2.101292   -2.797049
     53          6           0        5.391623   -1.042244   -2.920112
     54          6           0        5.430203    0.112594   -1.917740
     55          6           0        4.932723    1.477840   -2.514781
     56          6           0        6.835757    0.307920   -1.276464
     57          6           0        6.880162    0.720547    0.247431
     58          6           0        7.884004    1.830110    0.568546
     59          6           0        9.253477    1.381405    1.063277
     60          6           0        9.492983    1.788533    2.573341
     61          6           0       10.410858    1.787085    0.063428
     62          6           0       11.821240    1.158916    0.361212
     63          6           0       12.614544    0.522920   -0.795433
     64          6           0       13.802190    1.436820   -1.032983
     65          6           0       13.535886    2.544093   -2.115378
     66          6           0       14.983166    0.554533   -1.542530
     67          1           0       -1.329709    0.963680    3.823591
     68          1           0       -3.469964    5.643022    0.021857
     69          1           0       -7.255479    1.430797   -2.948608
     70          1           0       -3.146088   -3.481877    2.524769
     71          1           0       -1.038446   -1.727922    3.410443
     72          1           0       -3.584449   -2.374231    4.486747
     73          1           0       -2.767527   -1.020760    5.158284
     74          1           0       -1.968474   -2.581135    5.197019
     75          1           0       -0.713246   -2.399741    1.142519
     76          1           0       -1.858732   -3.394941    0.171126
     77          1           0       -0.905861   -5.088153    0.487904
     78          1           0       -1.454513   -5.257316    2.047167
     79          1           0        0.252612    3.766265    3.934371
     80          1           0       -0.859802    2.948120    5.105673
     81          1           0       -1.140772    4.602006    4.716006
     82          1           0       -3.334607    7.234831    1.463800
     83          1           0       -1.880282    7.190667    0.404007
     84          1           0       -1.850664    8.216516    1.724359
     85          1           0       -4.371886    5.244706   -2.329360
     86          1           0       -7.244244    4.104098   -2.352502
     87          1           0       -5.647233    7.159695   -1.497089
     88          1           0       -5.953949    6.118918   -0.098772
     89          1           0       -7.060849    6.030450   -1.480783
     90          1           0       -5.187577    3.283224   -4.361229
     91          1           0       -5.568384    4.979584   -4.408611
     92          1           0       -6.952225    4.514444   -5.836975
     93          1           0       -8.134096    3.946557   -4.589930
     94          1           0       -7.168972    2.785940   -5.487422
     95          1           0       -9.090358   -0.731570   -2.490929
     96          1           0       -8.693736   -2.444664   -2.609089
     97          1           0       -8.058699   -1.274033   -3.761164
     98          1           0       -5.381750   -4.069094    1.303765
     99          1           0       -3.740401   -7.282072   -0.791775
    100          1           0       -2.465125   -7.321649    0.375821
    101          1           0       -2.323458   -6.434108   -1.026307
    102          1           0        2.874585   -5.911993    1.202830
    103          1           0        3.048570   -4.523678    2.145762
    104          1           0        4.253707   -3.329140    0.465208
    105          1           0        3.420652   -5.952281   -2.680302
    106          1           0        2.233472   -4.676372   -2.895735
    107          1           0        2.119885   -5.661747   -1.484116
    108          1           0        5.086416   -4.044963   -2.829685
    109          1           0        5.498845   -3.110613   -1.363483
    110          1           0        3.359558   -1.737697   -2.251955
    111          1           0        3.899643   -2.383776   -3.795705
    112          1           0        5.326057   -0.579970   -3.905401
    113          1           0        6.353109   -1.554667   -2.969004
    114          1           0        4.780189   -0.197599   -1.099381
    115          1           0        4.567754    2.203562   -1.788105
    116          1           0        4.005767    1.387623   -3.081726
    117          1           0        5.685930    1.955040   -3.141984
    118          1           0        7.514803    0.849226   -1.935155
    119          1           0        7.259563   -0.695817   -1.265143
    120          1           0        7.163733   -0.116878    0.885799
    121          1           0        5.887407    1.043956    0.559408
    122          1           0        7.383242    2.583236    1.177220
    123          1           0        8.083832    2.395904   -0.340708
    124          1           0        9.183753    0.294470    1.025005
    125          1           0        9.260025    0.948094    3.227915
    126          1           0        8.826363    2.599534    2.870930
    127          1           0       10.544110    2.028105    2.730795
    128          1           0       10.379962    2.871775    0.163735
    129          1           0       10.137937    1.419559   -0.926416
    130          1           0       11.702268    0.451456    1.182272
    131          1           0       12.445820    1.914690    0.836340
    132          1           0       11.962553    0.402276   -1.660596
    133          1           0       12.886796   -0.450249   -0.389010
    134          1           0       14.139607    2.116010   -0.249393
    135          1           0       14.146602    3.417264   -1.884816
    136          1           0       12.463238    2.726682   -2.172856
    137          1           0       13.925142    2.212424   -3.078080
    138          1           0       14.695020   -0.028950   -2.416837
    139          1           0       15.139256   -0.138097   -0.715224
    140          1           0       15.775188    1.281436   -1.720967
 ---------------------------------------------------------------------

 SCF Done:  E(RCAM-B3LYP) =  -3007.16409881     A.U. after   18 cycles

 Excitation energies and oscillator strengths:

 Excited State   1:      Singlet-A      1.7813 eV  696.02 nm  f=0.3693  <S**2>=0.000
     245 -> 248        0.15771
     246 -> 247        0.68689
 This state for optimization and/or second-order correction.
 Total Energy, E(TD-HF/TD-DFT) =  -3007.09863607
 Copying the excited state density for this state as the 1-particle RhoCI density.

 Excited State   2:      Singlet-A      2.2345 eV  554.87 nm  f=0.1163  <S**2>=0.000
     245 -> 247        0.64186
     246 -> 248       -0.26708

 Excited State   3:      Singlet-A      3.3410 eV  371.10 nm  f=0.0214  <S**2>=0.000
     239 -> 249       -0.10701
     241 -> 247        0.29482
     242 -> 247        0.46059
     244 -> 247       -0.33479
     246 -> 248        0.19064

 Excited State   4:      Singlet-A      3.4716 eV  357.14 nm  f=0.0207  <S**2>=0.000
     239 -> 247        0.43172
     239 -> 248       -0.20286
     239 -> 249       -0.29310
     239 -> 251       -0.14926
     240 -> 247       -0.16862
     244 -> 247        0.28593

 Excited State   5:      Singlet-A      3.5032 eV  353.92 nm  f=0.2296  <S**2>=0.000
     239 -> 247       -0.12695
     242 -> 247        0.12365
     244 -> 247        0.45402
     245 -> 247        0.15985
     246 -> 248        0.45537

 The electronic state is 1-A.
 Alpha  occ. eigenvalues --  -46.89701 -19.25934 -19.24091 -19.20125 -19.20097
 Alpha  occ. eigenvalues --  -19.20030 -19.18854 -14.42901 -14.42661 -14.40302
 Alpha  occ. eigenvalues --  -14.38829 -10.39563 -10.38702 -10.37146 -10.35275
 Alpha  occ. eigenvalues --  -10.32679 -10.31938 -10.31850 -10.31810 -10.31452
 Alpha  occ. eigenvalues --  -10.31221 -10.31018 -10.30770 -10.30411 -10.29330
 Alpha  occ. eigenvalues --  -10.28872 -10.28657 -10.28541 -10.28465 -10.28240
 Alpha  occ. eigenvalues --  -10.28202 -10.28000 -10.27994 -10.27734 -10.27648
 Alpha  occ. eigenvalues --  -10.27384 -10.27372 -10.27356 -10.27172 -10.27052
 Alpha  occ. eigenvalues --  -10.27017 -10.26805 -10.26632 -10.26263 -10.26185
 Alpha  occ. eigenvalues --  -10.26019 -10.25967 -10.25949 -10.25902 -10.25843
 Alpha  occ. eigenvalues --  -10.25581 -10.25530 -10.25304 -10.25288 -10.24958
 Alpha  occ. eigenvalues --  -10.24918 -10.24875 -10.24766 -10.24709 -10.24620
 Alpha  occ. eigenvalues --  -10.24511 -10.24421 -10.24324 -10.24213 -10.24202
 Alpha  occ. eigenvalues --  -10.23778  -3.18141  -1.93032  -1.92579  -1.92461
 Alpha  occ. eigenvalues --   -1.16611  -1.16362  -1.09536  -1.09040  -1.08423
 Alpha  occ. eigenvalues --   -1.08055  -1.05164  -1.04272  -1.04130  -1.03026
 Alpha  occ. eigenvalues --   -0.93211  -0.89946  -0.89662  -0.89374  -0.89089
 Alpha  occ. eigenvalues --   -0.88785  -0.88443  -0.87839  -0.87444  -0.87185
 Alpha  occ. eigenvalues --   -0.86034  -0.85749  -0.84274  -0.83901  -0.83387
 Alpha  occ. eigenvalues --   -0.82262  -0.82019  -0.81196  -0.80927  -0.80276
 Alpha  occ. eigenvalues --   -0.79493  -0.78487  -0.78237  -0.77676  -0.76653
 Alpha  occ. eigenvalues --   -0.75605  -0.75416  -0.75125  -0.74679  -0.74314
 Alpha  occ. eigenvalues --   -0.73134  -0.72595  -0.71910  -0.70771  -0.69583
 Alpha  occ. eigenvalues --   -0.68868  -0.68620  -0.68151  -0.66532  -0.66347
 Alpha  occ. eigenvalues --   -0.65969  -0.65372  -0.64775  -0.64472  -0.63359
 Alpha  occ. eigenvalues --   -0.63300  -0.63169  -0.62780  -0.62603  -0.60523
 Alpha  occ. eigenvalues --   -0.60084  -0.59551  -0.59290  -0.58971  -0.58592
 Alpha  occ. eigenvalues --   -0.58059  -0.57214  -0.56773  -0.56143  -0.55690
 Alpha  occ. eigenvalues --   -0.55620  -0.54961  -0.54519  -0.54309  -0.53691
 Alpha  occ. eigenvalues --   -0.53447  -0.53195  -0.53139  -0.52962  -0.52930
 Alpha  occ. eigenvalues --   -0.52605  -0.52270  -0.52031  -0.51856  -0.51443
 Alpha  occ. eigenvalues --   -0.51396  -0.51310  -0.51104  -0.50919  -0.50868
 Alpha  occ. eigenvalues --   -0.50657  -0.50537  -0.49998  -0.49672  -0.49463
 Alpha  occ. eigenvalues --   -0.49241  -0.49022  -0.48823  -0.48729  -0.48659
 Alpha  occ. eigenvalues --   -0.48494  -0.48327  -0.48113  -0.47802  -0.47686
 Alpha  occ. eigenvalues --   -0.47341  -0.47253  -0.47088  -0.46865  -0.46600
 Alpha  occ. eigenvalues --   -0.46576  -0.46459  -0.46218  -0.45751  -0.45555
 Alpha  occ. eigenvalues --   -0.45443  -0.45338  -0.45323  -0.45056  -0.44959
 Alpha  occ. eigenvalues --   -0.44898  -0.44646  -0.44529  -0.44380  -0.44196
 Alpha  occ. eigenvalues --   -0.43914  -0.43888  -0.43648  -0.43154  -0.43096
 Alpha  occ. eigenvalues --   -0.42947  -0.42782  -0.42674  -0.42505  -0.42267
 Alpha  occ. eigenvalues --   -0.42065  -0.41760  -0.41639  -0.41624  -0.41339
 Alpha  occ. eigenvalues --   -0.41141  -0.40591  -0.40499  -0.40310  -0.40159
 Alpha  occ. eigenvalues --   -0.40012  -0.39680  -0.39399  -0.39268  -0.39013
 Alpha  occ. eigenvalues --   -0.38584  -0.38315  -0.38216  -0.37934  -0.37685
 Alpha  occ. eigenvalues --   -0.37068  -0.37009  -0.36666  -0.36573  -0.36387
 Alpha  occ. eigenvalues --   -0.36003  -0.35757  -0.35113  -0.34909  -0.34864
 Alpha  occ. eigenvalues --   -0.34188  -0.34072  -0.33916  -0.31913  -0.31476
 Alpha  occ. eigenvalues --   -0.30859  -0.30644  -0.30162  -0.29549  -0.24562
 Alpha  occ. eigenvalues --   -0.21702
 Alpha virt. eigenvalues --   -0.09100  -0.02245  -0.00074   0.01458   0.01510
 Alpha virt. eigenvalues --    0.04104   0.04386   0.05012   0.05090   0.06243
 Alpha virt. eigenvalues --    0.07814   0.08218   0.08566   0.08751   0.09382

 Mulliken charges:
               1
     1  Mg   0.825818
     2  C   -0.004267
     3  C   -0.084587
     4  C   -0.085148
     5  C   -0.075125
     6  N   -0.287609
     7  C   -0.077863
     8  C    0.022634
     9  C   -0.050990
    10  C    0.093795
    11  C    0.063109
    12  C    0.084252
    13  C    0.022609
    14  C    0.145998
    15  O   -0.202495
    16  O   -0.348671
    17  N   -0.357458
    18  C    0.131090
    19  C   -0.137088
    20  C   -0.003342
    21  C    0.161986
    22  C    0.106013
    23  C    0.018235
    24  O   -0.218976
    25  C    0.032214
    26  N   -0.278634
    27  C   -0.011640
    28  C   -0.044731
    29  C   -0.002853
    30  C    0.055238
    31  C    0.080945
    32  C    0.005031
    33  C   -0.010397
    34  N   -0.329964
    35  C    0.097301
    36  C   -0.178437
    37  C    0.036128
    38  C    0.113731
    39  C    0.102709
    40  C    0.036495
    41  O   -0.184673
    42  C    0.011119
    43  C    0.191537
    44  O   -0.213067
    45  O   -0.329487
    46  C    0.171075
    47  C    0.267570
    48  C   -0.114514
    49  C   -0.152057
    50  C    0.075755
    51  C    0.055549
    52  C    0.033389
    53  C    0.049562
    54  C   -0.089126
    55  C    0.044381
    56  C    0.030008
    57  C    0.030781
    58  C    0.046920
    59  C   -0.135053
    60  C    0.048324
    61  C    0.034587
    62  C   -0.004038
    63  C    0.087932
    64  C   -0.189963
    65  C    0.030806
    66  C    0.057187
    67  H   -0.032254
    68  H   -0.050981
    69  H   -0.028899
    70  H    0.003559
    71  H    0.006765
    72  H    0.003928
    73  H    0.006652
    74  H    0.031932
    75  H    0.015914
    76  H    0.034774
    77  H    0.027940
    78  H    0.016051
    79  H    0.042891
    80  H    0.022813
    81  H    0.045502
    82  H    0.039081
    83  H    0.046917
    84  H    0.025379
    85  H    0.022729
    86  H    0.014494
    87  H    0.024145
    88  H    0.018517
    89  H    0.015182
    90  H    0.014874
    91  H    0.009826
    92  H    0.015229
    93  H    0.013675
    94  H    0.024445
    95  H    0.019640
    96  H    0.035002
    97  H    0.014904
    98  H    0.029893
    99  H    0.028824
   100  H    0.030823
   101  H    0.039714
   102  H    0.027782
   103  H    0.008434
   104  H    0.000015
   105  H    0.030904
   106  H    0.019056
   107  H    0.011900
   108  H   -0.001040
   109  H    0.007285
   110  H    0.009402
   111  H   -0.001327
   112  H   -0.018347
   113  H   -0.009713
   114  H   -0.012613
   115  H    0.001644
   116  H   -0.000472
   117  H    0.012100
   118  H   -0.001174
   119  H   -0.018092
   120  H   -0.000618
   121  H   -0.005354
   122  H   -0.014962
   123  H   -0.019434
   124  H   -0.015969
   125  H    0.006706
   126  H    0.010319
   127  H    0.007945
   128  H    0.005262
   129  H   -0.003733
   130  H   -0.010804
   131  H   -0.006861
   132  H    0.003983
   133  H   -0.004976
   134  H    0.009223
   135  H    0.005554
   136  H    0.014646
   137  H   -0.002103
   138  H    0.012311
   139  H    0.006593
   140  H    0.007084
 Sum of Mulliken charges =  -0.00000

 Dipole moment (field-independent basis, Debye):
    X=              0.1560    Y=              4.2455    Z=             -1.4974  Tot=              4.5046
 Quadrupole moment (field-independent basis, Debye-Ang):
   XX=           -405.0604   YY=           -413.9968   ZZ=           -404.5867
   XY=            -46.5532   XZ=             -3.4324   YZ=            -14.0959

 Normal termination of Gaussian 16 at Fri Apr 29 07:50:31 2022.
