 Gaussian 16, Revision A.03,
 Gaussian 16:  ES64L-G16RevA.03 25-Dec-2016

 ---------------------------------
 #p PBE1PBE/Def2SVP td=(nstates=5)
 ---------------------------------

 -----------------------------------------------------
 step_201_chromophore_20 TDDFT with PBE1PBE functional
 -----------------------------------------------------
 Symbolic Z-matrix:
 Charge =  0 Multiplicity = 1

                         Standard orientation:
 ---------------------------------------------------------------------
 Center     Atomic      Atomic             Coordinates (Angstroms)
 Number     Number       Type             X           Y           Z
 ---------------------------------------------------------------------
      1         12           0       -4.375152    1.210450    0.529908
      2          6           0       -4.638619   -2.200817    0.530049
      3          6           0       -2.044061    1.005509    2.998611
      4          6           0       -3.660926    4.590212    0.241482
      5          6           0       -6.456794    1.392371   -2.206141
      6          7           0       -3.360904   -0.424298    1.498454
      7          6           0       -3.607421   -1.773536    1.334385
      8          6           0       -2.597217   -2.636599    2.111133
      9          6           0       -2.103899   -1.651023    3.192083
     10          6           0       -2.548621   -0.232827    2.537711
     11          6           0       -2.593584   -1.930552    4.585595
     12          6           0       -1.482784   -3.170335    1.169046
     13          6           0       -0.837205   -4.583163    1.451636
     14          6           0        0.551738   -4.849493    1.956673
     15          8           0        0.853388   -5.571110    2.861941
     16          8           0        1.401710   -4.353611    0.993134
     17          7           0       -3.080482    2.606113    1.539327
     18          6           0       -2.285464    2.321560    2.605495
     19          6           0       -1.639702    3.561684    3.099070
     20          6           0       -2.131246    4.655359    2.290725
     21          6           0       -2.970611    3.991010    1.329533
     22          6           0       -0.773017    3.667764    4.290491
     23          6           0       -1.768255    6.129947    2.443512
     24          8           0       -1.037816    6.575761    3.357347
     25          6           0       -2.244979    7.243803    1.429337
     26          7           0       -4.823026    2.756579   -0.894971
     27          6           0       -4.530975    4.053777   -0.732999
     28          6           0       -5.254881    4.948813   -1.762810
     29          6           0       -6.183031    3.936931   -2.535568
     30          6           0       -5.782971    2.600878   -1.873258
     31          6           0       -6.024064    6.185925   -1.184340
     32          6           0       -5.940261    4.013870   -4.064676
     33          6           0       -7.160840    3.786068   -5.053764
     34          7           0       -5.395948   -0.140670   -0.690046
     35          6           0       -6.259208    0.083914   -1.745465
     36          6           0       -6.996985   -1.192456   -1.919734
     37          6           0       -6.374425   -2.107695   -1.041823
     38          6           0       -5.431759   -1.417795   -0.412596
     39          6           0       -8.288127   -1.436941   -2.708411
     40          6           0       -6.326004   -3.489216   -0.594916
     41          8           0       -7.035136   -4.493594   -0.729711
     42          6           0       -5.075071   -3.611273    0.363677
     43          6           0       -4.127411   -4.511084   -0.296126
     44          8           0       -3.642868   -4.322044   -1.395325
     45          8           0       -3.809730   -5.626270    0.476327
     46          6           0       -3.050706   -6.640710   -0.242670
     47          6           0        2.792711   -4.828025    1.130635
     48          6           0        3.671845   -4.153448    0.053360
     49          6           0        3.661834   -4.192295   -1.323913
     50          6           0        2.841336   -5.193908   -2.153686
     51          6           0        4.708596   -3.357753   -2.072453
     52          6           0        4.230340   -2.101292   -2.797049
     53          6           0        5.391623   -1.042244   -2.920112
     54          6           0        5.430203    0.112594   -1.917740
     55          6           0        4.932723    1.477840   -2.514781
     56          6           0        6.835757    0.307920   -1.276464
     57          6           0        6.880162    0.720547    0.247431
     58          6           0        7.884004    1.830110    0.568546
     59          6           0        9.253477    1.381405    1.063277
     60          6           0        9.492983    1.788533    2.573341
     61          6           0       10.410858    1.787085    0.063428
     62          6           0       11.821240    1.158916    0.361212
     63          6           0       12.614544    0.522920   -0.795433
     64          6           0       13.802190    1.436820   -1.032983
     65          6           0       13.535886    2.544093   -2.115378
     66          6           0       14.983166    0.554533   -1.542530
     67          1           0       -1.329709    0.963680    3.823591
     68          1           0       -3.469964    5.643022    0.021857
     69          1           0       -7.255479    1.430797   -2.948608
     70          1           0       -3.146088   -3.481877    2.524769
     71          1           0       -1.038446   -1.727922    3.410443
     72          1           0       -3.584449   -2.374231    4.486747
     73          1           0       -2.767527   -1.020760    5.158284
     74          1           0       -1.968474   -2.581135    5.197019
     75          1           0       -0.713246   -2.399741    1.142519
     76          1           0       -1.858732   -3.394941    0.171126
     77          1           0       -0.905861   -5.088153    0.487904
     78          1           0       -1.454513   -5.257316    2.047167
     79          1           0        0.252612    3.766265    3.934371
     80          1           0       -0.859802    2.948120    5.105673
     81          1           0       -1.140772    4.602006    4.716006
     82          1           0       -3.334607    7.234831    1.463800
     83          1           0       -1.880282    7.190667    0.404007
     84          1           0       -1.850664    8.216516    1.724359
     85          1           0       -4.371886    5.244706   -2.329360
     86          1           0       -7.244244    4.104098   -2.352502
     87          1           0       -5.647233    7.159695   -1.497089
     88          1           0       -5.953949    6.118918   -0.098772
     89          1           0       -7.060849    6.030450   -1.480783
     90          1           0       -5.187577    3.283224   -4.361229
     91          1           0       -5.568384    4.979584   -4.408611
     92          1           0       -6.952225    4.514444   -5.836975
     93          1           0       -8.134096    3.946557   -4.589930
     94          1           0       -7.168972    2.785940   -5.487422
     95          1           0       -9.090358   -0.731570   -2.490929
     96          1           0       -8.693736   -2.444664   -2.609089
     97          1           0       -8.058699   -1.274033   -3.761164
     98          1           0       -5.381750   -4.069094    1.303765
     99          1           0       -3.740401   -7.282072   -0.791775
    100          1           0       -2.465125   -7.321649    0.375821
    101          1           0       -2.323458   -6.434108   -1.026307
    102          1           0        2.874585   -5.911993    1.202830
    103          1           0        3.048570   -4.523678    2.145762
    104          1           0        4.253707   -3.329140    0.465208
    105          1           0        3.420652   -5.952281   -2.680302
    106          1           0        2.233472   -4.676372   -2.895735
    107          1           0        2.119885   -5.661747   -1.484116
    108          1           0        5.086416   -4.044963   -2.829685
    109          1           0        5.498845   -3.110613   -1.363483
    110          1           0        3.359558   -1.737697   -2.251955
    111          1           0        3.899643   -2.383776   -3.795705
    112          1           0        5.326057   -0.579970   -3.905401
    113          1           0        6.353109   -1.554667   -2.969004
    114          1           0        4.780189   -0.197599   -1.099381
    115          1           0        4.567754    2.203562   -1.788105
    116          1           0        4.005767    1.387623   -3.081726
    117          1           0        5.685930    1.955040   -3.141984
    118          1           0        7.514803    0.849226   -1.935155
    119          1           0        7.259563   -0.695817   -1.265143
    120          1           0        7.163733   -0.116878    0.885799
    121          1           0        5.887407    1.043956    0.559408
    122          1           0        7.383242    2.583236    1.177220
    123          1           0        8.083832    2.395904   -0.340708
    124          1           0        9.183753    0.294470    1.025005
    125          1           0        9.260025    0.948094    3.227915
    126          1           0        8.826363    2.599534    2.870930
    127          1           0       10.544110    2.028105    2.730795
    128          1           0       10.379962    2.871775    0.163735
    129          1           0       10.137937    1.419559   -0.926416
    130          1           0       11.702268    0.451456    1.182272
    131          1           0       12.445820    1.914690    0.836340
    132          1           0       11.962553    0.402276   -1.660596
    133          1           0       12.886796   -0.450249   -0.389010
    134          1           0       14.139607    2.116010   -0.249393
    135          1           0       14.146602    3.417264   -1.884816
    136          1           0       12.463238    2.726682   -2.172856
    137          1           0       13.925142    2.212424   -3.078080
    138          1           0       14.695020   -0.028950   -2.416837
    139          1           0       15.139256   -0.138097   -0.715224
    140          1           0       15.775188    1.281436   -1.720967
 ---------------------------------------------------------------------

 SCF Done:  E(RPBE1PBE) =  -3005.35165957     A.U. after   16 cycles

 Excitation energies and oscillator strengths:

 Excited State   1:      Singlet-A      1.8743 eV  661.50 nm  f=0.3559  <S**2>=0.000
     245 -> 248       -0.15170
     246 -> 247        0.69210
     246 <- 247       -0.10601
 This state for optimization and/or second-order correction.
 Total Energy, E(TD-HF/TD-DFT) =  -3005.28278054
 Copying the excited state density for this state as the 1-particle RhoCI density.

 Excited State   2:      Singlet-A      2.2184 eV  558.90 nm  f=0.1100  <S**2>=0.000
     245 -> 247        0.65401
     246 -> 248        0.23464
     246 -> 249       -0.10630

 Excited State   3:      Singlet-A      2.9958 eV  413.86 nm  f=0.0010  <S**2>=0.000
     240 -> 247       -0.16446
     241 -> 247       -0.35427
     242 -> 247        0.28092
     243 -> 247        0.17564
     244 -> 247        0.44302

 Excited State   4:      Singlet-A      3.0579 eV  405.45 nm  f=0.0048  <S**2>=0.000
     240 -> 247        0.29559
     241 -> 247        0.21175
     242 -> 247       -0.30447
     243 -> 247        0.19077
     244 -> 247        0.45004

 Excited State   5:      Singlet-A      3.0850 eV  401.90 nm  f=0.0003  <S**2>=0.000
     240 -> 247        0.13885
     241 -> 247        0.39958
     242 -> 247        0.52057
     242 -> 249        0.10573

 The electronic state is 1-A.
 Alpha  occ. eigenvalues --  -46.93114 -19.26647 -19.24778 -19.20387 -19.20321
 Alpha  occ. eigenvalues --  -19.20054 -19.19415 -14.42366 -14.42187 -14.39796
 Alpha  occ. eigenvalues --  -14.38702 -10.36662 -10.35714 -10.34074 -10.32732
 Alpha  occ. eigenvalues --  -10.30069 -10.29323 -10.29316 -10.29205 -10.29180
 Alpha  occ. eigenvalues --  -10.28777 -10.28716 -10.28223 -10.27574 -10.27571
 Alpha  occ. eigenvalues --  -10.26443 -10.26420 -10.26411 -10.26211 -10.26208
 Alpha  occ. eigenvalues --  -10.26063 -10.26002 -10.25674 -10.25658 -10.25432
 Alpha  occ. eigenvalues --  -10.25147 -10.24902 -10.24877 -10.24824 -10.24544
 Alpha  occ. eigenvalues --  -10.24446 -10.24180 -10.24180 -10.23767 -10.23628
 Alpha  occ. eigenvalues --  -10.23581 -10.23484 -10.23386 -10.23354 -10.23275
 Alpha  occ. eigenvalues --  -10.23115 -10.23066 -10.22971 -10.22962 -10.22618
 Alpha  occ. eigenvalues --  -10.22495 -10.22480 -10.22385 -10.22303 -10.22260
 Alpha  occ. eigenvalues --  -10.21977 -10.21853 -10.21777 -10.21589 -10.21587
 Alpha  occ. eigenvalues --  -10.21295  -3.15136  -1.87968  -1.87492  -1.87379
 Alpha  occ. eigenvalues --   -1.11434  -1.11164  -1.04047  -1.03991  -1.03310
 Alpha  occ. eigenvalues --   -1.02966  -1.00041  -0.98909  -0.98779  -0.97450
 Alpha  occ. eigenvalues --   -0.87788  -0.84060  -0.83841  -0.83450  -0.83374
 Alpha  occ. eigenvalues --   -0.83017  -0.82532  -0.82041  -0.81571  -0.81281
 Alpha  occ. eigenvalues --   -0.80520  -0.80032  -0.78664  -0.78134  -0.77539
 Alpha  occ. eigenvalues --   -0.76500  -0.76186  -0.75361  -0.75182  -0.74518
 Alpha  occ. eigenvalues --   -0.73635  -0.72652  -0.72501  -0.72007  -0.71024
 Alpha  occ. eigenvalues --   -0.69853  -0.69668  -0.69191  -0.68770  -0.68438
 Alpha  occ. eigenvalues --   -0.67605  -0.66946  -0.66317  -0.65039  -0.64090
 Alpha  occ. eigenvalues --   -0.63232  -0.62841  -0.62555  -0.60779  -0.60751
 Alpha  occ. eigenvalues --   -0.60385  -0.59936  -0.59359  -0.58680  -0.57833
 Alpha  occ. eigenvalues --   -0.57475  -0.57467  -0.57317  -0.56714  -0.55069
 Alpha  occ. eigenvalues --   -0.54531  -0.54110  -0.53681  -0.53535  -0.53350
 Alpha  occ. eigenvalues --   -0.52641  -0.51645  -0.51239  -0.50771  -0.50263
 Alpha  occ. eigenvalues --   -0.50001  -0.49500  -0.49101  -0.48848  -0.48154
 Alpha  occ. eigenvalues --   -0.48041  -0.47811  -0.47727  -0.47547  -0.47341
 Alpha  occ. eigenvalues --   -0.46809  -0.46741  -0.46454  -0.46294  -0.45991
 Alpha  occ. eigenvalues --   -0.45898  -0.45758  -0.45736  -0.45701  -0.45346
 Alpha  occ. eigenvalues --   -0.45190  -0.45136  -0.44476  -0.44237  -0.44051
 Alpha  occ. eigenvalues --   -0.43857  -0.43538  -0.43460  -0.43333  -0.43318
 Alpha  occ. eigenvalues --   -0.43180  -0.42930  -0.42680  -0.42349  -0.42220
 Alpha  occ. eigenvalues --   -0.41955  -0.41918  -0.41834  -0.41448  -0.41312
 Alpha  occ. eigenvalues --   -0.41213  -0.41064  -0.40993  -0.40359  -0.40269
 Alpha  occ. eigenvalues --   -0.40169  -0.40100  -0.39991  -0.39844  -0.39608
 Alpha  occ. eigenvalues --   -0.39549  -0.39434  -0.39173  -0.39109  -0.38990
 Alpha  occ. eigenvalues --   -0.38731  -0.38672  -0.38457  -0.37899  -0.37848
 Alpha  occ. eigenvalues --   -0.37813  -0.37750  -0.37502  -0.37121  -0.37071
 Alpha  occ. eigenvalues --   -0.36887  -0.36647  -0.36589  -0.36383  -0.36171
 Alpha  occ. eigenvalues --   -0.35856  -0.35362  -0.35302  -0.35189  -0.34952
 Alpha  occ. eigenvalues --   -0.34879  -0.34641  -0.34265  -0.34119  -0.33802
 Alpha  occ. eigenvalues --   -0.33349  -0.33190  -0.33082  -0.32777  -0.32769
 Alpha  occ. eigenvalues --   -0.32016  -0.31906  -0.31704  -0.31382  -0.31183
 Alpha  occ. eigenvalues --   -0.30895  -0.30574  -0.30346  -0.29870  -0.29761
 Alpha  occ. eigenvalues --   -0.29602  -0.29069  -0.28815  -0.27136  -0.26493
 Alpha  occ. eigenvalues --   -0.26064  -0.25879  -0.25484  -0.25465  -0.21397
 Alpha  occ. eigenvalues --   -0.19269
 Alpha virt. eigenvalues --   -0.11622  -0.05885  -0.04147  -0.03009  -0.01277
 Alpha virt. eigenvalues --   -0.00379  -0.00308   0.00528   0.00759   0.02259
 Alpha virt. eigenvalues --    0.03781   0.04316   0.05323   0.05496   0.05991

 Mulliken charges:
               1
     1  Mg   0.971141
     2  C   -0.021382
     3  C   -0.074432
     4  C   -0.077027
     5  C   -0.077999
     6  N   -0.392867
     7  C   -0.001853
     8  C   -0.047937
     9  C   -0.122885
    10  C    0.123669
    11  C    0.009029
    12  C    0.033829
    13  C   -0.054590
    14  C    0.215828
    15  O   -0.237939
    16  O   -0.374496
    17  N   -0.465926
    18  C    0.153693
    19  C   -0.167264
    20  C   -0.043694
    21  C    0.176428
    22  C    0.047959
    23  C    0.066549
    24  O   -0.253973
    25  C   -0.044118
    26  N   -0.384875
    27  C    0.028831
    28  C   -0.117145
    29  C   -0.085629
    30  C    0.094374
    31  C    0.019624
    32  C   -0.049335
    33  C   -0.081764
    34  N   -0.458368
    35  C    0.127798
    36  C   -0.189851
    37  C   -0.010931
    38  C    0.170216
    39  C    0.050403
    40  C    0.129689
    41  O   -0.227586
    42  C   -0.101675
    43  C    0.286450
    44  O   -0.248230
    45  O   -0.361914
    46  C    0.112469
    47  C    0.224265
    48  C   -0.129199
    49  C   -0.188964
    50  C    0.013406
    51  C   -0.011426
    52  C   -0.030768
    53  C   -0.004354
    54  C   -0.176618
    55  C   -0.015250
    56  C   -0.022433
    57  C   -0.035227
    58  C   -0.001862
    59  C   -0.217403
    60  C   -0.012421
    61  C   -0.027286
    62  C   -0.061041
    63  C    0.029180
    64  C   -0.282344
    65  C   -0.026515
    66  C   -0.010942
    67  H    0.000632
    68  H   -0.015011
    69  H    0.005756
    70  H    0.040585
    71  H    0.042506
    72  H    0.031182
    73  H    0.035002
    74  H    0.057896
    75  H    0.049363
    76  H    0.068976
    77  H    0.062970
    78  H    0.047588
    79  H    0.069593
    80  H    0.046875
    81  H    0.071476
    82  H    0.064904
    83  H    0.071054
    84  H    0.052733
    85  H    0.059576
    86  H    0.050776
    87  H    0.050992
    88  H    0.047344
    89  H    0.042162
    90  H    0.047578
    91  H    0.043305
    92  H    0.043337
    93  H    0.040757
    94  H    0.050940
    95  H    0.048523
    96  H    0.063122
    97  H    0.044421
    98  H    0.066526
    99  H    0.052875
   100  H    0.053202
   101  H    0.060443
   102  H    0.053432
   103  H    0.035552
   104  H    0.029708
   105  H    0.057236
   106  H    0.046992
   107  H    0.040925
   108  H    0.032908
   109  H    0.039689
   110  H    0.041964
   111  H    0.031127
   112  H    0.015437
   113  H    0.021652
   114  H    0.026638
   115  H    0.029940
   116  H    0.027829
   117  H    0.038781
   118  H    0.028909
   119  H    0.016183
   120  H    0.031519
   121  H    0.027407
   122  H    0.017030
   123  H    0.014752
   124  H    0.023226
   125  H    0.034413
   126  H    0.037099
   127  H    0.035669
   128  H    0.038311
   129  H    0.030287
   130  H    0.021800
   131  H    0.025392
   132  H    0.035017
   133  H    0.028137
   134  H    0.045387
   135  H    0.033012
   136  H    0.043329
   137  H    0.025888
   138  H    0.040307
   139  H    0.036279
   140  H    0.035788
 Sum of Mulliken charges =  -0.00000

 Dipole moment (field-independent basis, Debye):
    X=             -0.3594    Y=              3.7570    Z=             -2.0524  Tot=              4.2961
 Quadrupole moment (field-independent basis, Debye-Ang):
   XX=           -397.3201   YY=           -412.0738   ZZ=           -401.2499
   XY=            -45.3714   XZ=             -0.6151   YZ=            -15.7464

 Normal termination of Gaussian 16 at Fri Apr 29 08:07:53 2022.
