 Gaussian 16, Revision A.03,
 Gaussian 16:  ES64L-G16RevA.03 25-Dec-2016

 --------------------------------
 #p wB97XD/Def2SVP td=(nstates=5)
 --------------------------------

 ----------------------------------------------------
 step_201_chromophore_20 TDDFT with wB97XD functional
 ----------------------------------------------------
 Symbolic Z-matrix:
 Charge =  0 Multiplicity = 1

                         Standard orientation:
 ---------------------------------------------------------------------
 Center     Atomic      Atomic             Coordinates (Angstroms)
 Number     Number       Type             X           Y           Z
 ---------------------------------------------------------------------
      1         12           0       -4.375152    1.210450    0.529908
      2          6           0       -4.638619   -2.200817    0.530049
      3          6           0       -2.044061    1.005509    2.998611
      4          6           0       -3.660926    4.590212    0.241482
      5          6           0       -6.456794    1.392371   -2.206141
      6          7           0       -3.360904   -0.424298    1.498454
      7          6           0       -3.607421   -1.773536    1.334385
      8          6           0       -2.597217   -2.636599    2.111133
      9          6           0       -2.103899   -1.651023    3.192083
     10          6           0       -2.548621   -0.232827    2.537711
     11          6           0       -2.593584   -1.930552    4.585595
     12          6           0       -1.482784   -3.170335    1.169046
     13          6           0       -0.837205   -4.583163    1.451636
     14          6           0        0.551738   -4.849493    1.956673
     15          8           0        0.853388   -5.571110    2.861941
     16          8           0        1.401710   -4.353611    0.993134
     17          7           0       -3.080482    2.606113    1.539327
     18          6           0       -2.285464    2.321560    2.605495
     19          6           0       -1.639702    3.561684    3.099070
     20          6           0       -2.131246    4.655359    2.290725
     21          6           0       -2.970611    3.991010    1.329533
     22          6           0       -0.773017    3.667764    4.290491
     23          6           0       -1.768255    6.129947    2.443512
     24          8           0       -1.037816    6.575761    3.357347
     25          6           0       -2.244979    7.243803    1.429337
     26          7           0       -4.823026    2.756579   -0.894971
     27          6           0       -4.530975    4.053777   -0.732999
     28          6           0       -5.254881    4.948813   -1.762810
     29          6           0       -6.183031    3.936931   -2.535568
     30          6           0       -5.782971    2.600878   -1.873258
     31          6           0       -6.024064    6.185925   -1.184340
     32          6           0       -5.940261    4.013870   -4.064676
     33          6           0       -7.160840    3.786068   -5.053764
     34          7           0       -5.395948   -0.140670   -0.690046
     35          6           0       -6.259208    0.083914   -1.745465
     36          6           0       -6.996985   -1.192456   -1.919734
     37          6           0       -6.374425   -2.107695   -1.041823
     38          6           0       -5.431759   -1.417795   -0.412596
     39          6           0       -8.288127   -1.436941   -2.708411
     40          6           0       -6.326004   -3.489216   -0.594916
     41          8           0       -7.035136   -4.493594   -0.729711
     42          6           0       -5.075071   -3.611273    0.363677
     43          6           0       -4.127411   -4.511084   -0.296126
     44          8           0       -3.642868   -4.322044   -1.395325
     45          8           0       -3.809730   -5.626270    0.476327
     46          6           0       -3.050706   -6.640710   -0.242670
     47          6           0        2.792711   -4.828025    1.130635
     48          6           0        3.671845   -4.153448    0.053360
     49          6           0        3.661834   -4.192295   -1.323913
     50          6           0        2.841336   -5.193908   -2.153686
     51          6           0        4.708596   -3.357753   -2.072453
     52          6           0        4.230340   -2.101292   -2.797049
     53          6           0        5.391623   -1.042244   -2.920112
     54          6           0        5.430203    0.112594   -1.917740
     55          6           0        4.932723    1.477840   -2.514781
     56          6           0        6.835757    0.307920   -1.276464
     57          6           0        6.880162    0.720547    0.247431
     58          6           0        7.884004    1.830110    0.568546
     59          6           0        9.253477    1.381405    1.063277
     60          6           0        9.492983    1.788533    2.573341
     61          6           0       10.410858    1.787085    0.063428
     62          6           0       11.821240    1.158916    0.361212
     63          6           0       12.614544    0.522920   -0.795433
     64          6           0       13.802190    1.436820   -1.032983
     65          6           0       13.535886    2.544093   -2.115378
     66          6           0       14.983166    0.554533   -1.542530
     67          1           0       -1.329709    0.963680    3.823591
     68          1           0       -3.469964    5.643022    0.021857
     69          1           0       -7.255479    1.430797   -2.948608
     70          1           0       -3.146088   -3.481877    2.524769
     71          1           0       -1.038446   -1.727922    3.410443
     72          1           0       -3.584449   -2.374231    4.486747
     73          1           0       -2.767527   -1.020760    5.158284
     74          1           0       -1.968474   -2.581135    5.197019
     75          1           0       -0.713246   -2.399741    1.142519
     76          1           0       -1.858732   -3.394941    0.171126
     77          1           0       -0.905861   -5.088153    0.487904
     78          1           0       -1.454513   -5.257316    2.047167
     79          1           0        0.252612    3.766265    3.934371
     80          1           0       -0.859802    2.948120    5.105673
     81          1           0       -1.140772    4.602006    4.716006
     82          1           0       -3.334607    7.234831    1.463800
     83          1           0       -1.880282    7.190667    0.404007
     84          1           0       -1.850664    8.216516    1.724359
     85          1           0       -4.371886    5.244706   -2.329360
     86          1           0       -7.244244    4.104098   -2.352502
     87          1           0       -5.647233    7.159695   -1.497089
     88          1           0       -5.953949    6.118918   -0.098772
     89          1           0       -7.060849    6.030450   -1.480783
     90          1           0       -5.187577    3.283224   -4.361229
     91          1           0       -5.568384    4.979584   -4.408611
     92          1           0       -6.952225    4.514444   -5.836975
     93          1           0       -8.134096    3.946557   -4.589930
     94          1           0       -7.168972    2.785940   -5.487422
     95          1           0       -9.090358   -0.731570   -2.490929
     96          1           0       -8.693736   -2.444664   -2.609089
     97          1           0       -8.058699   -1.274033   -3.761164
     98          1           0       -5.381750   -4.069094    1.303765
     99          1           0       -3.740401   -7.282072   -0.791775
    100          1           0       -2.465125   -7.321649    0.375821
    101          1           0       -2.323458   -6.434108   -1.026307
    102          1           0        2.874585   -5.911993    1.202830
    103          1           0        3.048570   -4.523678    2.145762
    104          1           0        4.253707   -3.329140    0.465208
    105          1           0        3.420652   -5.952281   -2.680302
    106          1           0        2.233472   -4.676372   -2.895735
    107          1           0        2.119885   -5.661747   -1.484116
    108          1           0        5.086416   -4.044963   -2.829685
    109          1           0        5.498845   -3.110613   -1.363483
    110          1           0        3.359558   -1.737697   -2.251955
    111          1           0        3.899643   -2.383776   -3.795705
    112          1           0        5.326057   -0.579970   -3.905401
    113          1           0        6.353109   -1.554667   -2.969004
    114          1           0        4.780189   -0.197599   -1.099381
    115          1           0        4.567754    2.203562   -1.788105
    116          1           0        4.005767    1.387623   -3.081726
    117          1           0        5.685930    1.955040   -3.141984
    118          1           0        7.514803    0.849226   -1.935155
    119          1           0        7.259563   -0.695817   -1.265143
    120          1           0        7.163733   -0.116878    0.885799
    121          1           0        5.887407    1.043956    0.559408
    122          1           0        7.383242    2.583236    1.177220
    123          1           0        8.083832    2.395904   -0.340708
    124          1           0        9.183753    0.294470    1.025005
    125          1           0        9.260025    0.948094    3.227915
    126          1           0        8.826363    2.599534    2.870930
    127          1           0       10.544110    2.028105    2.730795
    128          1           0       10.379962    2.871775    0.163735
    129          1           0       10.137937    1.419559   -0.926416
    130          1           0       11.702268    0.451456    1.182272
    131          1           0       12.445820    1.914690    0.836340
    132          1           0       11.962553    0.402276   -1.660596
    133          1           0       12.886796   -0.450249   -0.389010
    134          1           0       14.139607    2.116010   -0.249393
    135          1           0       14.146602    3.417264   -1.884816
    136          1           0       12.463238    2.726682   -2.172856
    137          1           0       13.925142    2.212424   -3.078080
    138          1           0       14.695020   -0.028950   -2.416837
    139          1           0       15.139256   -0.138097   -0.715224
    140          1           0       15.775188    1.281436   -1.720967
 ---------------------------------------------------------------------

 SCF Done:  E(RwB97XD) =  -3007.86167128     A.U. after   19 cycles

 Excitation energies and oscillator strengths:

 Excited State   1:      Singlet-A      1.7585 eV  705.07 nm  f=0.3693  <S**2>=0.000
     245 -> 248        0.16104
     246 -> 247        0.68500
 This state for optimization and/or second-order correction.
 Total Energy, E(TD-HF/TD-DFT) =  -3007.79704865
 Copying the excited state density for this state as the 1-particle RhoCI density.

 Excited State   2:      Singlet-A      2.1873 eV  566.84 nm  f=0.1148  <S**2>=0.000
     245 -> 247        0.63985
     246 -> 248       -0.26764

 Excited State   3:      Singlet-A      3.3493 eV  370.18 nm  f=0.0230  <S**2>=0.000
     239 -> 249       -0.11289
     241 -> 247        0.53140
     242 -> 247       -0.20653
     244 -> 247       -0.25471
     246 -> 248        0.20005

 Excited State   4:      Singlet-A      3.4740 eV  356.89 nm  f=0.0489  <S**2>=0.000
     239 -> 247        0.41455
     239 -> 248       -0.18691
     239 -> 249       -0.28764
     239 -> 250       -0.12594
     240 -> 247        0.23582
     240 -> 249       -0.15302
     244 -> 247        0.15758
     246 -> 248       -0.17959

 Excited State   5:      Singlet-A      3.5480 eV  349.45 nm  f=0.2710  <S**2>=0.000
     244 -> 247        0.49148
     245 -> 247        0.17298
     246 -> 248        0.45168

 The electronic state is 1-A.
 Alpha  occ. eigenvalues --  -46.96049 -19.31125 -19.29327 -19.25216 -19.25055
 Alpha  occ. eigenvalues --  -19.24913 -19.23844 -14.47505 -14.47242 -14.44978
 Alpha  occ. eigenvalues --  -14.43357 -10.43372 -10.42492 -10.41237 -10.39246
 Alpha  occ. eigenvalues --  -10.36812 -10.36123 -10.35940 -10.35701 -10.35222
 Alpha  occ. eigenvalues --  -10.35187 -10.35171 -10.34766 -10.34711 -10.33246
 Alpha  occ. eigenvalues --  -10.33096 -10.32722 -10.32603 -10.32503 -10.32301
 Alpha  occ. eigenvalues --  -10.32227 -10.32020 -10.31864 -10.31812 -10.31635
 Alpha  occ. eigenvalues --  -10.31463 -10.31459 -10.31360 -10.31161 -10.30996
 Alpha  occ. eigenvalues --  -10.30910 -10.30724 -10.30567 -10.30270 -10.30144
 Alpha  occ. eigenvalues --  -10.29943 -10.29875 -10.29759 -10.29713 -10.29633
 Alpha  occ. eigenvalues --  -10.29503 -10.29444 -10.29283 -10.29233 -10.28894
 Alpha  occ. eigenvalues --  -10.28853 -10.28790 -10.28680 -10.28648 -10.28445
 Alpha  occ. eigenvalues --  -10.28432 -10.28249 -10.28244 -10.28027 -10.28022
 Alpha  occ. eigenvalues --  -10.27692  -3.21939  -1.95518  -1.95043  -1.94927
 Alpha  occ. eigenvalues --   -1.18728  -1.18524  -1.11835  -1.11203  -1.10632
 Alpha  occ. eigenvalues --   -1.10212  -1.07145  -1.06279  -1.06158  -1.05139
 Alpha  occ. eigenvalues --   -0.95146  -0.91737  -0.91501  -0.91136  -0.91011
 Alpha  occ. eigenvalues --   -0.90697  -0.90218  -0.89882  -0.89407  -0.88969
 Alpha  occ. eigenvalues --   -0.87928  -0.87607  -0.86189  -0.85768  -0.85229
 Alpha  occ. eigenvalues --   -0.84122  -0.83895  -0.83122  -0.82876  -0.82152
 Alpha  occ. eigenvalues --   -0.81315  -0.80494  -0.80115  -0.79583  -0.78561
 Alpha  occ. eigenvalues --   -0.77470  -0.77340  -0.76913  -0.76487  -0.76136
 Alpha  occ. eigenvalues --   -0.75075  -0.74519  -0.73920  -0.72692  -0.71502
 Alpha  occ. eigenvalues --   -0.70908  -0.70495  -0.70186  -0.68401  -0.68233
 Alpha  occ. eigenvalues --   -0.67919  -0.67367  -0.66784  -0.66329  -0.65291
 Alpha  occ. eigenvalues --   -0.65154  -0.64986  -0.64745  -0.64412  -0.62561
 Alpha  occ. eigenvalues --   -0.62081  -0.61541  -0.61188  -0.60894  -0.60571
 Alpha  occ. eigenvalues --   -0.60030  -0.59116  -0.58793  -0.58120  -0.57548
 Alpha  occ. eigenvalues --   -0.57538  -0.56877  -0.56453  -0.56207  -0.55558
 Alpha  occ. eigenvalues --   -0.55369  -0.55107  -0.55064  -0.54931  -0.54779
 Alpha  occ. eigenvalues --   -0.54613  -0.54180  -0.53936  -0.53756  -0.53371
 Alpha  occ. eigenvalues --   -0.53291  -0.53249  -0.52997  -0.52810  -0.52744
 Alpha  occ. eigenvalues --   -0.52611  -0.52443  -0.51875  -0.51592  -0.51373
 Alpha  occ. eigenvalues --   -0.51251  -0.50968  -0.50698  -0.50621  -0.50563
 Alpha  occ. eigenvalues --   -0.50405  -0.50204  -0.50065  -0.49769  -0.49543
 Alpha  occ. eigenvalues --   -0.49265  -0.49123  -0.48981  -0.48740  -0.48575
 Alpha  occ. eigenvalues --   -0.48552  -0.48378  -0.48123  -0.47616  -0.47502
 Alpha  occ. eigenvalues --   -0.47266  -0.47256  -0.47203  -0.47003  -0.46897
 Alpha  occ. eigenvalues --   -0.46764  -0.46546  -0.46364  -0.46250  -0.46092
 Alpha  occ. eigenvalues --   -0.45863  -0.45766  -0.45584  -0.45107  -0.44995
 Alpha  occ. eigenvalues --   -0.44865  -0.44689  -0.44579  -0.44540  -0.44176
 Alpha  occ. eigenvalues --   -0.43973  -0.43657  -0.43542  -0.43495  -0.43242
 Alpha  occ. eigenvalues --   -0.42995  -0.42446  -0.42391  -0.42207  -0.42004
 Alpha  occ. eigenvalues --   -0.41887  -0.41609  -0.41235  -0.41174  -0.40867
 Alpha  occ. eigenvalues --   -0.40417  -0.40166  -0.40157  -0.39791  -0.39783
 Alpha  occ. eigenvalues --   -0.38962  -0.38895  -0.38649  -0.38413  -0.38226
 Alpha  occ. eigenvalues --   -0.37983  -0.37586  -0.37095  -0.36826  -0.36698
 Alpha  occ. eigenvalues --   -0.36295  -0.36107  -0.35740  -0.33975  -0.33671
 Alpha  occ. eigenvalues --   -0.33007  -0.32681  -0.32192  -0.31642  -0.26516
 Alpha  occ. eigenvalues --   -0.23541
 Alpha virt. eigenvalues --   -0.07420  -0.00311   0.01943   0.03608   0.04620
 Alpha virt. eigenvalues --    0.06322   0.06594   0.07287   0.07545   0.08835
 Alpha virt. eigenvalues --    0.10482   0.10816   0.11964   0.12205   0.12782

 Mulliken charges:
               1
     1  Mg   0.962062
     2  C   -0.020224
     3  C   -0.094548
     4  C   -0.095466
     5  C   -0.084461
     6  N   -0.359080
     7  C   -0.037514
     8  C   -0.020704
     9  C   -0.099801
    10  C    0.113896
    11  C    0.017134
    12  C    0.047406
    13  C   -0.034598
    14  C    0.205504
    15  O   -0.235924
    16  O   -0.374582
    17  N   -0.437002
    18  C    0.150724
    19  C   -0.152379
    20  C   -0.042816
    21  C    0.183690
    22  C    0.056662
    23  C    0.061671
    24  O   -0.247565
    25  C   -0.028246
    26  N   -0.351700
    27  C    0.021818
    28  C   -0.097153
    29  C   -0.053442
    30  C    0.075914
    31  C    0.033503
    32  C   -0.039433
    33  C   -0.065445
    34  N   -0.419059
    35  C    0.108058
    36  C   -0.190446
    37  C   -0.009092
    38  C    0.148646
    39  C    0.059239
    40  C    0.112061
    41  O   -0.221509
    42  C   -0.059643
    43  C    0.256632
    44  O   -0.241432
    45  O   -0.358388
    46  C    0.124191
    47  C    0.237974
    48  C   -0.135212
    49  C   -0.180492
    50  C    0.027482
    51  C    0.009826
    52  C   -0.015000
    53  C    0.009557
    54  C   -0.147629
    55  C   -0.003498
    56  C   -0.007348
    57  C   -0.015240
    58  C    0.010678
    59  C   -0.189345
    60  C    0.000343
    61  C   -0.004848
    62  C   -0.046019
    63  C    0.041051
    64  C   -0.251379
    65  C   -0.016366
    66  C    0.005358
    67  H   -0.005878
    68  H   -0.028912
    69  H   -0.000951
    70  H    0.027710
    71  H    0.034115
    72  H    0.025158
    73  H    0.028500
    74  H    0.054698
    75  H    0.041797
    76  H    0.058312
    77  H    0.051756
    78  H    0.040780
    79  H    0.068245
    80  H    0.045953
    81  H    0.067493
    82  H    0.058493
    83  H    0.068121
    84  H    0.052437
    85  H    0.049030
    86  H    0.038407
    87  H    0.046582
    88  H    0.038615
    89  H    0.037301
    90  H    0.039909
    91  H    0.033597
    92  H    0.037564
    93  H    0.034350
    94  H    0.045363
    95  H    0.041202
    96  H    0.058932
    97  H    0.036655
    98  H    0.061378
    99  H    0.049958
   100  H    0.049726
   101  H    0.056563
   102  H    0.049323
   103  H    0.030876
   104  H    0.024696
   105  H    0.052516
   106  H    0.041354
   107  H    0.034713
   108  H    0.024569
   109  H    0.029184
   110  H    0.032636
   111  H    0.024855
   112  H    0.007707
   113  H    0.012714
   114  H    0.012250
   115  H    0.023794
   116  H    0.021322
   117  H    0.032657
   118  H    0.019606
   119  H    0.005080
   120  H    0.022340
   121  H    0.019031
   122  H    0.009697
   123  H    0.002256
   124  H    0.007811
   125  H    0.028904
   126  H    0.030802
   127  H    0.028888
   128  H    0.028812
   129  H    0.016729
   130  H    0.013005
   131  H    0.014835
   132  H    0.027334
   133  H    0.020837
   134  H    0.033993
   135  H    0.027854
   136  H    0.035694
   137  H    0.019139
   138  H    0.033566
   139  H    0.028711
   140  H    0.029905
 Sum of Mulliken charges =  -0.00000

 Dipole moment (field-independent basis, Debye):
    X=              0.2634    Y=              4.4791    Z=             -1.3944  Tot=              4.6985
 Quadrupole moment (field-independent basis, Debye-Ang):
   XX=           -402.1466   YY=           -409.4088   ZZ=           -400.4575
   XY=            -47.2940   XZ=             -3.3887   YZ=            -13.9807

 Normal termination of Gaussian 16 at Fri Apr 29 08:35:45 2022.
