 Gaussian 16, Revision A.03,
 Gaussian 16:  ES64L-G16RevA.03 25-Dec-2016

 --------------------
 #p ZINDO=(nstates=5)
 --------------------

 -----------------------------
 step_201_chromophore_20 ZINDO
 -----------------------------
 Symbolic Z-matrix:
 Charge =  0 Multiplicity = 1

                         Standard orientation:
 ---------------------------------------------------------------------
 Center     Atomic      Atomic             Coordinates (Angstroms)
 Number     Number       Type             X           Y           Z
 ---------------------------------------------------------------------
      1         12           0       -4.375152    1.210450    0.529908
      2          6           0       -4.638619   -2.200817    0.530049
      3          6           0       -2.044061    1.005509    2.998611
      4          6           0       -3.660926    4.590212    0.241482
      5          6           0       -6.456794    1.392371   -2.206141
      6          7           0       -3.360904   -0.424298    1.498454
      7          6           0       -3.607421   -1.773536    1.334385
      8          6           0       -2.597217   -2.636599    2.111133
      9          6           0       -2.103899   -1.651023    3.192083
     10          6           0       -2.548621   -0.232827    2.537711
     11          6           0       -2.593584   -1.930552    4.585595
     12          6           0       -1.482784   -3.170335    1.169046
     13          6           0       -0.837205   -4.583163    1.451636
     14          6           0        0.551738   -4.849493    1.956673
     15          8           0        0.853388   -5.571110    2.861941
     16          8           0        1.401710   -4.353611    0.993134
     17          7           0       -3.080482    2.606113    1.539327
     18          6           0       -2.285464    2.321560    2.605495
     19          6           0       -1.639702    3.561684    3.099070
     20          6           0       -2.131246    4.655359    2.290725
     21          6           0       -2.970611    3.991010    1.329533
     22          6           0       -0.773017    3.667764    4.290491
     23          6           0       -1.768255    6.129947    2.443512
     24          8           0       -1.037816    6.575761    3.357347
     25          6           0       -2.244979    7.243803    1.429337
     26          7           0       -4.823026    2.756579   -0.894971
     27          6           0       -4.530975    4.053777   -0.732999
     28          6           0       -5.254881    4.948813   -1.762810
     29          6           0       -6.183031    3.936931   -2.535568
     30          6           0       -5.782971    2.600878   -1.873258
     31          6           0       -6.024064    6.185925   -1.184340
     32          6           0       -5.940261    4.013870   -4.064676
     33          6           0       -7.160840    3.786068   -5.053764
     34          7           0       -5.395948   -0.140670   -0.690046
     35          6           0       -6.259208    0.083914   -1.745465
     36          6           0       -6.996985   -1.192456   -1.919734
     37          6           0       -6.374425   -2.107695   -1.041823
     38          6           0       -5.431759   -1.417795   -0.412596
     39          6           0       -8.288127   -1.436941   -2.708411
     40          6           0       -6.326004   -3.489216   -0.594916
     41          8           0       -7.035136   -4.493594   -0.729711
     42          6           0       -5.075071   -3.611273    0.363677
     43          6           0       -4.127411   -4.511084   -0.296126
     44          8           0       -3.642868   -4.322044   -1.395325
     45          8           0       -3.809730   -5.626270    0.476327
     46          6           0       -3.050706   -6.640710   -0.242670
     47          6           0        2.792711   -4.828025    1.130635
     48          6           0        3.671845   -4.153448    0.053360
     49          6           0        3.661834   -4.192295   -1.323913
     50          6           0        2.841336   -5.193908   -2.153686
     51          6           0        4.708596   -3.357753   -2.072453
     52          6           0        4.230340   -2.101292   -2.797049
     53          6           0        5.391623   -1.042244   -2.920112
     54          6           0        5.430203    0.112594   -1.917740
     55          6           0        4.932723    1.477840   -2.514781
     56          6           0        6.835757    0.307920   -1.276464
     57          6           0        6.880162    0.720547    0.247431
     58          6           0        7.884004    1.830110    0.568546
     59          6           0        9.253477    1.381405    1.063277
     60          6           0        9.492983    1.788533    2.573341
     61          6           0       10.410858    1.787085    0.063428
     62          6           0       11.821240    1.158916    0.361212
     63          6           0       12.614544    0.522920   -0.795433
     64          6           0       13.802190    1.436820   -1.032983
     65          6           0       13.535886    2.544093   -2.115378
     66          6           0       14.983166    0.554533   -1.542530
     67          1           0       -1.329709    0.963680    3.823591
     68          1           0       -3.469964    5.643022    0.021857
     69          1           0       -7.255479    1.430797   -2.948608
     70          1           0       -3.146088   -3.481877    2.524769
     71          1           0       -1.038446   -1.727922    3.410443
     72          1           0       -3.584449   -2.374231    4.486747
     73          1           0       -2.767527   -1.020760    5.158284
     74          1           0       -1.968474   -2.581135    5.197019
     75          1           0       -0.713246   -2.399741    1.142519
     76          1           0       -1.858732   -3.394941    0.171126
     77          1           0       -0.905861   -5.088153    0.487904
     78          1           0       -1.454513   -5.257316    2.047167
     79          1           0        0.252612    3.766265    3.934371
     80          1           0       -0.859802    2.948120    5.105673
     81          1           0       -1.140772    4.602006    4.716006
     82          1           0       -3.334607    7.234831    1.463800
     83          1           0       -1.880282    7.190667    0.404007
     84          1           0       -1.850664    8.216516    1.724359
     85          1           0       -4.371886    5.244706   -2.329360
     86          1           0       -7.244244    4.104098   -2.352502
     87          1           0       -5.647233    7.159695   -1.497089
     88          1           0       -5.953949    6.118918   -0.098772
     89          1           0       -7.060849    6.030450   -1.480783
     90          1           0       -5.187577    3.283224   -4.361229
     91          1           0       -5.568384    4.979584   -4.408611
     92          1           0       -6.952225    4.514444   -5.836975
     93          1           0       -8.134096    3.946557   -4.589930
     94          1           0       -7.168972    2.785940   -5.487422
     95          1           0       -9.090358   -0.731570   -2.490929
     96          1           0       -8.693736   -2.444664   -2.609089
     97          1           0       -8.058699   -1.274033   -3.761164
     98          1           0       -5.381750   -4.069094    1.303765
     99          1           0       -3.740401   -7.282072   -0.791775
    100          1           0       -2.465125   -7.321649    0.375821
    101          1           0       -2.323458   -6.434108   -1.026307
    102          1           0        2.874585   -5.911993    1.202830
    103          1           0        3.048570   -4.523678    2.145762
    104          1           0        4.253707   -3.329140    0.465208
    105          1           0        3.420652   -5.952281   -2.680302
    106          1           0        2.233472   -4.676372   -2.895735
    107          1           0        2.119885   -5.661747   -1.484116
    108          1           0        5.086416   -4.044963   -2.829685
    109          1           0        5.498845   -3.110613   -1.363483
    110          1           0        3.359558   -1.737697   -2.251955
    111          1           0        3.899643   -2.383776   -3.795705
    112          1           0        5.326057   -0.579970   -3.905401
    113          1           0        6.353109   -1.554667   -2.969004
    114          1           0        4.780189   -0.197599   -1.099381
    115          1           0        4.567754    2.203562   -1.788105
    116          1           0        4.005767    1.387623   -3.081726
    117          1           0        5.685930    1.955040   -3.141984
    118          1           0        7.514803    0.849226   -1.935155
    119          1           0        7.259563   -0.695817   -1.265143
    120          1           0        7.163733   -0.116878    0.885799
    121          1           0        5.887407    1.043956    0.559408
    122          1           0        7.383242    2.583236    1.177220
    123          1           0        8.083832    2.395904   -0.340708
    124          1           0        9.183753    0.294470    1.025005
    125          1           0        9.260025    0.948094    3.227915
    126          1           0        8.826363    2.599534    2.870930
    127          1           0       10.544110    2.028105    2.730795
    128          1           0       10.379962    2.871775    0.163735
    129          1           0       10.137937    1.419559   -0.926416
    130          1           0       11.702268    0.451456    1.182272
    131          1           0       12.445820    1.914690    0.836340
    132          1           0       11.962553    0.402276   -1.660596
    133          1           0       12.886796   -0.450249   -0.389010
    134          1           0       14.139607    2.116010   -0.249393
    135          1           0       14.146602    3.417264   -1.884816
    136          1           0       12.463238    2.726682   -2.172856
    137          1           0       13.925142    2.212424   -3.078080
    138          1           0       14.695020   -0.028950   -2.416837
    139          1           0       15.139256   -0.138097   -0.715224
    140          1           0       15.775188    1.281436   -1.720967
 ---------------------------------------------------------------------

 SCF Done:  E(RZINDO/S) =  -474.133324547     A.U. after   19 cycles

 Excitation energies and oscillator strengths:

 Excited State   1:      Singlet-A      1.3652 eV  908.15 nm  f=0.5204  <S**2>=0.000
     175 ->178         0.14583
     176 ->177         0.67346
 This state for optimization and/or second-order correction.
 Total Energy, E(CIS/TDA) =  -474.083152691
 Copying the excited state density for this state as the 1-particle RhoCI density.

 Excited State   2:      Singlet-A      1.9653 eV  630.86 nm  f=0.0461  <S**2>=0.000
     175 ->177         0.54790
     176 ->178        -0.39667
     176 ->179         0.10156

 Excited State   3:      Singlet-A      2.8898 eV  429.04 nm  f=0.0033  <S**2>=0.000
     167 ->179         0.11016
     168 ->177        -0.29737
     168 ->178         0.24692
     168 ->179         0.41753
     168 ->180         0.21516
     168 ->185         0.20513

 Excited State   4:      Singlet-A      2.9980 eV  413.56 nm  f=1.1774  <S**2>=0.000
     171 ->177         0.15516
     175 ->177         0.36831
     176 ->178         0.54384

 Excited State   5:      Singlet-A      3.0808 eV  402.45 nm  f=0.0065  <S**2>=0.000
     170 ->177         0.22044
     170 ->179         0.24471
     170 ->180        -0.43015
     170 ->184         0.11502
     170 ->185         0.19493
     170 ->188         0.19694
     171 ->180         0.13190

 The electronic state is 1-A.
 Alpha  occ. eigenvalues --   -1.86241  -1.80713  -1.80181  -1.73879  -1.72631
 Alpha  occ. eigenvalues --   -1.71211  -1.63963  -1.60487  -1.58952  -1.57512
 Alpha  occ. eigenvalues --   -1.55632  -1.50177  -1.47133  -1.46908  -1.46548
 Alpha  occ. eigenvalues --   -1.45053  -1.43201  -1.40216  -1.38507  -1.37652
 Alpha  occ. eigenvalues --   -1.36695  -1.34741  -1.31351  -1.30831  -1.28833
 Alpha  occ. eigenvalues --   -1.26722  -1.26074  -1.23252  -1.20973  -1.18627
 Alpha  occ. eigenvalues --   -1.17411  -1.15350  -1.14996  -1.14028  -1.12879
 Alpha  occ. eigenvalues --   -1.12492  -1.11647  -1.10867  -1.06171  -1.04789
 Alpha  occ. eigenvalues --   -1.03117  -1.02169  -0.99843  -0.97342  -0.97034
 Alpha  occ. eigenvalues --   -0.96113  -0.95169  -0.92669  -0.92473  -0.91145
 Alpha  occ. eigenvalues --   -0.90898  -0.90371  -0.89587  -0.89369  -0.86888
 Alpha  occ. eigenvalues --   -0.86175  -0.84622  -0.83801  -0.82643  -0.80383
 Alpha  occ. eigenvalues --   -0.79961  -0.79135  -0.77236  -0.76656  -0.76510
 Alpha  occ. eigenvalues --   -0.76224  -0.75234  -0.74836  -0.74031  -0.73986
 Alpha  occ. eigenvalues --   -0.73809  -0.72980  -0.72487  -0.72306  -0.71200
 Alpha  occ. eigenvalues --   -0.70668  -0.69561  -0.68995  -0.68282  -0.67293
 Alpha  occ. eigenvalues --   -0.66707  -0.66606  -0.66335  -0.65860  -0.65431
 Alpha  occ. eigenvalues --   -0.64705  -0.64421  -0.64129  -0.63857  -0.63515
 Alpha  occ. eigenvalues --   -0.63326  -0.62927  -0.62475  -0.61900  -0.61621
 Alpha  occ. eigenvalues --   -0.61330  -0.61105  -0.60725  -0.60494  -0.59852
 Alpha  occ. eigenvalues --   -0.59166  -0.58887  -0.58667  -0.58046  -0.57949
 Alpha  occ. eigenvalues --   -0.57800  -0.57469  -0.57182  -0.56777  -0.56542
 Alpha  occ. eigenvalues --   -0.56387  -0.55842  -0.55693  -0.55491  -0.54825
 Alpha  occ. eigenvalues --   -0.54539  -0.54107  -0.53918  -0.53400  -0.53114
 Alpha  occ. eigenvalues --   -0.52454  -0.52408  -0.52290  -0.52133  -0.51491
 Alpha  occ. eigenvalues --   -0.51303  -0.50864  -0.50700  -0.50609  -0.50537
 Alpha  occ. eigenvalues --   -0.50342  -0.49950  -0.49594  -0.49286  -0.49149
 Alpha  occ. eigenvalues --   -0.48899  -0.48588  -0.48255  -0.48094  -0.47657
 Alpha  occ. eigenvalues --   -0.47579  -0.47339  -0.47097  -0.46969  -0.46706
 Alpha  occ. eigenvalues --   -0.46665  -0.46356  -0.46017  -0.45961  -0.45460
 Alpha  occ. eigenvalues --   -0.45192  -0.44828  -0.44789  -0.44493  -0.44291
 Alpha  occ. eigenvalues --   -0.44128  -0.43922  -0.43357  -0.42582  -0.42215
 Alpha  occ. eigenvalues --   -0.42066  -0.41457  -0.41346  -0.39606  -0.38990
 Alpha  occ. eigenvalues --   -0.38272  -0.37636  -0.36990  -0.35612  -0.34448
 Alpha  occ. eigenvalues --   -0.34213  -0.32867  -0.32607  -0.31557  -0.27367
 Alpha  occ. eigenvalues --   -0.22462
 Alpha virt. eigenvalues --   -0.08727  -0.02512  -0.01135   0.00698   0.01218
 Alpha virt. eigenvalues --    0.02054   0.02230   0.03074   0.04006   0.04110
 Alpha virt. eigenvalues --    0.05189   0.05777   0.06589   0.07398   0.07718

 Mulliken charges:
               1
     1  Mg   0.434779
     2  C   -0.036782
     3  C   -0.086169
     4  C   -0.104181
     5  C   -0.044643
     6  N   -0.268031
     7  C    0.081700
     8  C    0.012616
     9  C    0.005503
    10  C    0.177664
    11  C   -0.046607
    12  C   -0.019427
    13  C   -0.011135
    14  C    0.472448
    15  O   -0.500090
    16  O   -0.276641
    17  N   -0.351085
    18  C    0.150071
    19  C    0.075216
    20  C   -0.042823
    21  C    0.151537
    22  C   -0.037184
    23  C    0.325072
    24  O   -0.517037
    25  C   -0.029920
    26  N   -0.260621
    27  C    0.173372
    28  C   -0.001969
    29  C    0.008107
    30  C    0.067166
    31  C   -0.053822
    32  C   -0.035609
    33  C   -0.064474
    34  N   -0.315469
    35  C    0.046478
    36  C    0.001819
    37  C   -0.048165
    38  C    0.122827
    39  C   -0.040672
    40  C    0.335708
    41  O   -0.535392
    42  C    0.057033
    43  C    0.498998
    44  O   -0.526765
    45  O   -0.266359
    46  C    0.070185
    47  C    0.101319
    48  C   -0.097731
    49  C    0.003498
    50  C   -0.041458
    51  C   -0.018827
    52  C   -0.025724
    53  C   -0.032228
    54  C   -0.001617
    55  C   -0.058098
    56  C   -0.039753
    57  C   -0.032766
    58  C   -0.034424
    59  C   -0.016223
    60  C   -0.058959
    61  C   -0.038143
    62  C   -0.047795
    63  C   -0.022416
    64  C   -0.021981
    65  C   -0.066800
    66  C   -0.065407
    67  H    0.018433
    68  H    0.021372
    69  H    0.022402
    70  H    0.030085
    71  H    0.032774
    72  H    0.014282
    73  H    0.016077
    74  H    0.029557
    75  H    0.029333
    76  H    0.041556
    77  H    0.043144
    78  H    0.029194
    79  H    0.048268
    80  H    0.031735
    81  H    0.042857
    82  H    0.035163
    83  H    0.039310
    84  H    0.035919
    85  H    0.038230
    86  H    0.035705
    87  H    0.027725
    88  H    0.021601
    89  H    0.026233
    90  H    0.022694
    91  H    0.016078
    92  H    0.018764
    93  H    0.023108
    94  H    0.023321
    95  H    0.024282
    96  H    0.033364
    97  H    0.021799
    98  H    0.048314
    99  H    0.033912
   100  H    0.027466
   101  H    0.048113
   102  H    0.051654
   103  H    0.036612
   104  H    0.021902
   105  H    0.033362
   106  H    0.026924
   107  H    0.020826
   108  H    0.019199
   109  H    0.024521
   110  H    0.025285
   111  H    0.019574
   112  H    0.008486
   113  H    0.019508
   114  H    0.019358
   115  H    0.014983
   116  H    0.010607
   117  H    0.023779
   118  H    0.027802
   119  H    0.004116
   120  H    0.022005
   121  H    0.015723
   122  H    0.015501
   123  H    0.007313
   124  H    0.014180
   125  H    0.015835
   126  H    0.023178
   127  H    0.020930
   128  H    0.025361
   129  H    0.021011
   130  H    0.011402
   131  H    0.014401
   132  H    0.029588
   133  H    0.019675
   134  H    0.033421
   135  H    0.017673
   136  H    0.022526
   137  H    0.014497
   138  H    0.025497
   139  H    0.015699
   140  H    0.022222
 Sum of Mulliken charges =  -0.00000

 Dipole moment (field-independent basis, Debye):
    X=              1.1999    Y=              6.9130    Z=              0.2165  Tot=              7.0197
 N-N= 4.415852690748D+03 E-N= 0.000000000000D+00  KE=-9.505374162896D+03
 Leave Link  601 at Fri Apr 29 08:47:16 2022, MaxMem=  6710886400 cpu:               0.9 elap:               0.1
 (Enter /sw/apps/gaussian-16.0/g16/l9999.exe)
 1\1\GINC-BP1-COMPUTE162\SP\RZINDO CIS\STO-3G\C55H74Mg1N4O6\OF15641\29-
 Apr-2022\0\\#p ZINDO=(nstates=5)\\step_201_chromophore_20 ZINDO\\0,1\M
 g,0,7.066,57.131,41.377\C,0,6.326,53.8,41.126\C,0,10.232,56.482,40.316
 \C,0,7.749,60.518,41.098\C,0,3.773,57.83,42.098\N,0,8.069,55.369,40.65
 \C,0,7.569,54.082,40.608\C,0,8.543,53.114,39.913\C,0,9.89,53.851,40.07
 3\C,0,9.377,55.358,40.394\C,0,10.841,53.24,41.064\C,0,8.118,52.861,38.
 44\C,0,8.396,51.453,37.782\C,0,9.41,51.145,36.718\O,0,10.206,50.252,36

 Normal termination of Gaussian 16 at Fri Apr 29 08:47:17 2022.
