 Gaussian 16, Revision A.03,
 Gaussian 16:  ES64L-G16RevA.03 25-Dec-2016

 ------------------------------
 #p blyp/Def2SVP td=(nstates=5)
 ------------------------------

 --------------------------------------------------
 step_1101_chromophore_1 TDDFT with blyp functional
 --------------------------------------------------
 Symbolic Z-matrix:
 Charge =  0 Multiplicity = 1

                         Standard orientation:
 ---------------------------------------------------------------------
 Center     Atomic      Atomic             Coordinates (Angstroms)
 Number     Number       Type             X           Y           Z
 ---------------------------------------------------------------------
      1         12           0        5.923759    0.429195   -0.095197
      2          6           0        3.787431   -2.278265   -0.543195
      3          6           0        3.503564    2.528665   -1.558429
      4          6           0        8.093888    3.023405    0.222552
      5          6           0        8.561850   -1.822129    0.805652
      6          7           0        3.819274    0.166854   -0.645205
      7          6           0        3.137515   -1.051119   -0.812622
      8          6           0        1.715617   -0.831176   -1.378643
      9          6           0        1.821476    0.619185   -1.994662
     10          6           0        3.162254    1.198092   -1.296804
     11          6           0        1.873484    0.776012   -3.560972
     12          6           0        0.504787   -1.134675   -0.467159
     13          6           0       -0.790222   -1.618898   -1.073622
     14          6           0       -1.889316   -2.145668   -0.126465
     15          8           0       -1.679917   -2.380089    1.081438
     16          8           0       -3.084444   -2.218656   -0.691800
     17          7           0        5.815076    2.473806   -0.639632
     18          6           0        4.739230    3.143980   -1.132834
     19          6           0        5.088992    4.506279   -1.174422
     20          6           0        6.269995    4.710529   -0.462153
     21          6           0        6.796354    3.371219   -0.257125
     22          6           0        4.144962    5.420102   -1.948810
     23          6           0        6.984550    5.984665    0.054870
     24          8           0        8.009816    6.035361    0.746538
     25          6           0        6.297102    7.291280   -0.249916
     26          7           0        7.952642    0.521735    0.451045
     27          6           0        8.633187    1.762094    0.533631
     28          6           0       10.086784    1.499066    0.902308
     29          6           0       10.160104    0.015792    1.341350
     30          6           0        8.779583   -0.468863    0.923167
     31          6           0       11.161219    1.910941   -0.167849
     32          6           0       10.498601   -0.121616    2.826475
     33          6           0        9.398077    0.481928    3.710939
     34          7           0        6.161930   -1.558358    0.088986
     35          6           0        7.335318   -2.330532    0.416886
     36          6           0        7.017773   -3.767828    0.377503
     37          6           0        5.646286   -3.774839    0.057465
     38          6           0        5.143637   -2.430574   -0.105596
     39          6           0        7.990753   -4.885265    0.710706
     40          6           0        4.615615   -4.661946   -0.089002
     41          8           0        4.590606   -5.880453    0.000471
     42          6           0        3.480541   -3.799652   -0.784018
     43          6           0        2.156655   -4.304044   -0.235432
     44          8           0        1.759713   -4.381817    0.901087
     45          8           0        1.383124   -4.619419   -1.383908
     46          6           0       -0.004059   -5.185117   -0.978943
     47          6           0       -4.241036   -2.358354    0.243617
     48          6           0       -5.401813   -1.571014   -0.357069
     49          6           0       -6.739043   -1.716028   -0.303542
     50          6           0       -7.291986   -2.896455    0.452652
     51          6           0       -7.627428   -0.736569   -1.027714
     52          6           0       -7.547833    0.728956   -0.679569
     53          6           0       -7.570216    1.038623    0.812255
     54          6           0       -8.888232    1.745558    1.298994
     55          6           0       -8.660141    3.286297    1.273098
     56          6           0       -9.305052    1.308187    2.702794
     57          6           0      -10.753889    1.806892    3.005287
     58          6           0      -11.836442    0.748890    2.898206
     59          6           0      -13.217169    1.189889    2.366650
     60          6           0      -14.364378    1.055153    3.426852
     61          6           0      -13.598042    0.391093    1.094924
     62          6           0      -13.873982    1.367617   -0.058259
     63          6           0      -14.111794    0.756040   -1.478283
     64          6           0      -12.938398    0.995166   -2.390660
     65          6           0      -13.497102    1.060137   -3.884314
     66          6           0      -11.983076   -0.203671   -2.259280
     67          1           0        2.707947    3.063275   -2.082619
     68          1           0        8.886859    3.773446    0.183521
     69          1           0        9.354392   -2.555874    0.966601
     70          1           0        1.760407   -1.506547   -2.233145
     71          1           0        0.958584    1.241054   -1.758390
     72          1           0        1.316296    1.622756   -3.961205
     73          1           0        1.312577   -0.081777   -3.933600
     74          1           0        2.914061    0.768853   -3.882522
     75          1           0        0.293175   -0.144156   -0.062249
     76          1           0        0.782695   -1.844912    0.311351
     77          1           0       -0.543105   -2.442486   -1.742998
     78          1           0       -1.233670   -0.733089   -1.529336
     79          1           0        3.742329    5.037346   -2.886507
     80          1           0        4.732642    6.232492   -2.377463
     81          1           0        3.358720    5.883704   -1.354146
     82          1           0        5.249189    7.315140    0.049788
     83          1           0        6.292831    7.398911   -1.334613
     84          1           0        6.912891    8.040390    0.247601
     85          1           0       10.223340    2.237234    1.692833
     86          1           0       10.931289   -0.379172    0.678654
     87          1           0       10.742517    2.114953   -1.153026
     88          1           0       11.914968    1.137446   -0.317408
     89          1           0       11.630082    2.864004    0.077592
     90          1           0       11.316939    0.521770    3.150654
     91          1           0       10.705792   -1.165716    3.060066
     92          1           0        8.409828    0.426575    3.255868
     93          1           0        9.561909    1.501680    4.060410
     94          1           0        9.395532   -0.233867    4.532509
     95          1           0        8.549336   -4.465138    1.546830
     96          1           0        8.654420   -5.227955   -0.083372
     97          1           0        7.434617   -5.772311    1.013738
     98          1           0        3.402148   -4.081700   -1.834631
     99          1           0        0.293694   -6.070360   -0.417109
    100          1           0       -0.465043   -5.512472   -1.910994
    101          1           0       -0.639881   -4.576613   -0.336921
    102          1           0       -4.000315   -2.015984    1.250679
    103          1           0       -4.461286   -3.421285    0.145808
    104          1           0       -4.974630   -0.677905   -0.813710
    105          1           0       -7.878278   -3.547674   -0.195944
    106          1           0       -8.016691   -2.653175    1.230045
    107          1           0       -6.586703   -3.642031    0.822180
    108          1           0       -8.659703   -1.078903   -0.956095
    109          1           0       -7.376550   -0.731462   -2.088477
    110          1           0       -8.433646    1.250427   -1.043167
    111          1           0       -6.582564    1.060668   -1.063826
    112          1           0       -6.697185    1.610481    1.128658
    113          1           0       -7.521834    0.088341    1.343658
    114          1           0       -9.684556    1.634353    0.563282
    115          1           0       -8.665720    3.549586    2.331573
    116          1           0       -9.538655    3.754475    0.828129
    117          1           0       -7.725762    3.642945    0.840872
    118          1           0       -8.666168    1.603771    3.534563
    119          1           0       -9.371243    0.220685    2.725531
    120          1           0      -11.056896    2.562267    2.279328
    121          1           0      -10.748927    2.294811    3.980053
    122          1           0      -11.949876    0.257805    3.864356
    123          1           0      -11.446444   -0.052899    2.271440
    124          1           0      -13.267560    2.248666    2.112223
    125          1           0      -14.595485   -0.008650    3.473148
    126          1           0      -15.227097    1.531325    2.961817
    127          1           0      -14.239468    1.386834    4.457905
    128          1           0      -14.557086   -0.113029    1.211754
    129          1           0      -12.912075   -0.348499    0.681951
    130          1           0      -13.273781    2.277187   -0.083897
    131          1           0      -14.826447    1.765748    0.293064
    132          1           0      -14.991835    1.304752   -1.813426
    133          1           0      -14.371079   -0.297572   -1.373856
    134          1           0      -12.299071    1.833697   -2.117774
    135          1           0      -14.562896    1.281005   -3.821703
    136          1           0      -13.354373    0.100983   -4.381681
    137          1           0      -12.964240    1.903085   -4.325302
    138          1           0      -10.956267    0.129155   -2.406369
    139          1           0      -12.308093   -1.066872   -2.839405
    140          1           0      -12.007740   -0.606639   -1.246555
 ---------------------------------------------------------------------

 SCF Done:  E(RB-LYP) =  -3007.36337271     A.U. after   21 cycles

 Excitation energies and oscillator strengths:

 Excited State   1:      Singlet-A      1.7189 eV  721.30 nm  f=0.1096  <S**2>=0.000
     244 -> 247        0.44329
     245 -> 247       -0.29075
     245 -> 248       -0.11281
     246 -> 247       -0.45148
     246 <- 247        0.10706
 This state for optimization and/or second-order correction.
 Total Energy, E(TD-HF/TD-DFT) =  -3007.30020419
 Copying the excited state density for this state as the 1-particle RhoCI density.

 Excited State   2:      Singlet-A      1.7295 eV  716.87 nm  f=0.1904  <S**2>=0.000
     244 -> 247        0.43259
     245 -> 247       -0.17218
     245 -> 248        0.12936
     246 -> 247        0.52563
     246 <- 247       -0.12617

 Excited State   3:      Singlet-A      1.8748 eV  661.32 nm  f=0.0280  <S**2>=0.000
     243 -> 247        0.58927
     244 -> 247        0.21888
     245 -> 247        0.29537

 Excited State   4:      Singlet-A      2.0060 eV  618.06 nm  f=0.0588  <S**2>=0.000
     243 -> 247       -0.37686
     244 -> 247        0.24421
     245 -> 247        0.47833
     246 -> 248       -0.22331

 Excited State   5:      Singlet-A      2.2285 eV  556.35 nm  f=0.0001  <S**2>=0.000
     242 -> 247        0.70663

 The electronic state is 1-A.
 Alpha  occ. eigenvalues --  -46.26154 -18.83013 -18.81032 -18.76592 -18.76146
 Alpha  occ. eigenvalues --  -18.76122 -18.75096 -14.03855 -14.03373 -14.01146
 Alpha  occ. eigenvalues --  -14.01135 -10.04210 -10.02785 -10.00322  -9.98838
 Alpha  occ. eigenvalues --   -9.98170  -9.97899  -9.97113  -9.96996  -9.96609
 Alpha  occ. eigenvalues --   -9.96340  -9.96001  -9.95708  -9.95447  -9.95296
 Alpha  occ. eigenvalues --   -9.94699  -9.94448  -9.94365  -9.94070  -9.93691
 Alpha  occ. eigenvalues --   -9.93670  -9.93656  -9.93586  -9.93494  -9.93456
 Alpha  occ. eigenvalues --   -9.93398  -9.92988  -9.92873  -9.92851  -9.92840
 Alpha  occ. eigenvalues --   -9.92811  -9.92755  -9.92722  -9.92604  -9.92569
 Alpha  occ. eigenvalues --   -9.92349  -9.92310  -9.92202  -9.92109  -9.92103
 Alpha  occ. eigenvalues --   -9.92083  -9.91738  -9.91698  -9.91380  -9.91308
 Alpha  occ. eigenvalues --   -9.91075  -9.91068  -9.91056  -9.91011  -9.90969
 Alpha  occ. eigenvalues --   -9.90932  -9.90825  -9.90775  -9.90727  -9.90721
 Alpha  occ. eigenvalues --   -9.90647  -2.90914  -1.71350  -1.70781  -1.70635
 Alpha  occ. eigenvalues --   -0.98965  -0.95553  -0.91078  -0.90761  -0.88747
 Alpha  occ. eigenvalues --   -0.88305  -0.85967  -0.85201  -0.84609  -0.83764
 Alpha  occ. eigenvalues --   -0.74717  -0.74400  -0.73386  -0.72655  -0.72515
 Alpha  occ. eigenvalues --   -0.72384  -0.71756  -0.71202  -0.70733  -0.70445
 Alpha  occ. eigenvalues --   -0.69956  -0.69496  -0.68508  -0.67397  -0.67227
 Alpha  occ. eigenvalues --   -0.66613  -0.65797  -0.65584  -0.64850  -0.64313
 Alpha  occ. eigenvalues --   -0.64226  -0.62912  -0.62450  -0.61658  -0.60915
 Alpha  occ. eigenvalues --   -0.60319  -0.60204  -0.59623  -0.59497  -0.59099
 Alpha  occ. eigenvalues --   -0.58756  -0.58002  -0.56648  -0.55553  -0.54866
 Alpha  occ. eigenvalues --   -0.54161  -0.54002  -0.52368  -0.52018  -0.51156
 Alpha  occ. eigenvalues --   -0.50859  -0.50729  -0.50592  -0.50362  -0.49853
 Alpha  occ. eigenvalues --   -0.49594  -0.49289  -0.49231  -0.46914  -0.46764
 Alpha  occ. eigenvalues --   -0.46301  -0.45847  -0.45188  -0.45034  -0.44289
 Alpha  occ. eigenvalues --   -0.44098  -0.43213  -0.43077  -0.42644  -0.42569
 Alpha  occ. eigenvalues --   -0.42530  -0.42078  -0.41594  -0.41296  -0.41172
 Alpha  occ. eigenvalues --   -0.40961  -0.40807  -0.40703  -0.40402  -0.40030
 Alpha  occ. eigenvalues --   -0.39905  -0.39812  -0.39641  -0.39441  -0.39350
 Alpha  occ. eigenvalues --   -0.39087  -0.38995  -0.38632  -0.38467  -0.38347
 Alpha  occ. eigenvalues --   -0.37892  -0.37568  -0.37541  -0.37286  -0.37138
 Alpha  occ. eigenvalues --   -0.36983  -0.36794  -0.36756  -0.36530  -0.36402
 Alpha  occ. eigenvalues --   -0.36261  -0.36174  -0.36048  -0.35865  -0.35701
 Alpha  occ. eigenvalues --   -0.35440  -0.35169  -0.35022  -0.34828  -0.34765
 Alpha  occ. eigenvalues --   -0.34758  -0.34511  -0.34450  -0.34358  -0.34237
 Alpha  occ. eigenvalues --   -0.33878  -0.33755  -0.33494  -0.33367  -0.32819
 Alpha  occ. eigenvalues --   -0.32644  -0.32625  -0.32532  -0.32437  -0.32077
 Alpha  occ. eigenvalues --   -0.31993  -0.31782  -0.31591  -0.31554  -0.31446
 Alpha  occ. eigenvalues --   -0.31308  -0.31165  -0.30916  -0.30561  -0.30347
 Alpha  occ. eigenvalues --   -0.30074  -0.30043  -0.30006  -0.29727  -0.29654
 Alpha  occ. eigenvalues --   -0.29401  -0.29384  -0.29262  -0.29145  -0.29024
 Alpha  occ. eigenvalues --   -0.28972  -0.28745  -0.28461  -0.28168  -0.28111
 Alpha  occ. eigenvalues --   -0.27760  -0.27567  -0.27550  -0.27233  -0.26576
 Alpha  occ. eigenvalues --   -0.26524  -0.25856  -0.25705  -0.25391  -0.25264
 Alpha  occ. eigenvalues --   -0.24737  -0.24451  -0.24384  -0.23967  -0.23835
 Alpha  occ. eigenvalues --   -0.23398  -0.22481  -0.21651  -0.21469  -0.20985
 Alpha  occ. eigenvalues --   -0.20481  -0.20316  -0.19029  -0.18425  -0.17624
 Alpha  occ. eigenvalues --   -0.16023
 Alpha virt. eigenvalues --   -0.12128  -0.07110  -0.06320  -0.04829  -0.03124
 Alpha virt. eigenvalues --   -0.02300  -0.02077  -0.01851  -0.00717  -0.00140
 Alpha virt. eigenvalues --    0.00706   0.00954   0.01460   0.02147   0.02326

 Mulliken charges:
               1
     1  Mg   0.695887
     2  C    0.100182
     3  C   -0.048850
     4  C   -0.024003
     5  C   -0.115834
     6  N   -0.243412
     7  C   -0.106324
     8  C    0.097925
     9  C   -0.083551
    10  C    0.056637
    11  C    0.114803
    12  C    0.126811
    13  C    0.114184
    14  C    0.076401
    15  O   -0.226461
    16  O   -0.252364
    17  N   -0.283003
    18  C    0.146511
    19  C   -0.137228
    20  C    0.023882
    21  C    0.097217
    22  C    0.157099
    23  C   -0.054097
    24  O   -0.171073
    25  C    0.118357
    26  N   -0.255030
    27  C    0.011887
    28  C   -0.013454
    29  C    0.071396
    30  C    0.073344
    31  C    0.116286
    32  C    0.112214
    33  C    0.025533
    34  N   -0.320832
    35  C    0.141685
    36  C   -0.155154
    37  C    0.129281
    38  C    0.058396
    39  C    0.161053
    40  C   -0.050726
    41  O   -0.142878
    42  C   -0.004138
    43  C    0.101836
    44  O   -0.150531
    45  O   -0.330780
    46  C    0.198908
    47  C    0.325081
    48  C   -0.154734
    49  C   -0.095143
    50  C    0.131528
    51  C    0.167391
    52  C    0.083023
    53  C    0.112393
    54  C   -0.128078
    55  C    0.112132
    56  C    0.117517
    57  C    0.057810
    58  C    0.142421
    59  C   -0.048980
    60  C    0.083565
    61  C    0.110290
    62  C   -0.012163
    63  C    0.137433
    64  C   -0.096192
    65  C    0.123102
    66  C    0.088922
    67  H   -0.053104
    68  H   -0.036308
    69  H   -0.048652
    70  H   -0.035974
    71  H   -0.032924
    72  H   -0.007731
    73  H   -0.011100
    74  H    0.006479
    75  H   -0.027881
    76  H    0.018861
    77  H    0.007987
    78  H   -0.005985
    79  H   -0.004831
    80  H   -0.028511
    81  H    0.006543
    82  H    0.008703
    83  H    0.006767
    84  H   -0.001248
    85  H   -0.018843
    86  H   -0.036394
    87  H   -0.010421
    88  H   -0.007849
    89  H   -0.005362
    90  H   -0.018624
    91  H   -0.019254
    92  H    0.006455
    93  H    0.008687
    94  H   -0.010527
    95  H    0.003000
    96  H    0.011805
    97  H    0.009219
    98  H    0.008214
    99  H    0.019143
   100  H    0.012654
   101  H    0.038754
   102  H    0.036382
   103  H    0.001696
   104  H   -0.038905
   105  H   -0.018179
   106  H   -0.002276
   107  H   -0.018171
   108  H   -0.040890
   109  H   -0.017051
   110  H   -0.024021
   111  H   -0.027300
   112  H   -0.036957
   113  H   -0.039286
   114  H   -0.032996
   115  H   -0.025816
   116  H   -0.013782
   117  H   -0.010663
   118  H   -0.027568
   119  H   -0.035783
   120  H   -0.040199
   121  H   -0.035412
   122  H   -0.045409
   123  H   -0.046229
   124  H   -0.025363
   125  H   -0.021221
   126  H   -0.020382
   127  H   -0.007351
   128  H   -0.040088
   129  H   -0.030750
   130  H   -0.031175
   131  H   -0.046272
   132  H   -0.039957
   133  H   -0.035163
   134  H   -0.029942
   135  H   -0.018628
   136  H   -0.010080
   137  H   -0.010019
   138  H   -0.008685
   139  H   -0.017566
   140  H   -0.035600
 Sum of Mulliken charges =  -0.00000

 Dipole moment (field-independent basis, Debye):
    X=             -2.6792    Y=              3.2348    Z=             -3.5643  Tot=              5.5088
 Quadrupole moment (field-independent basis, Debye-Ang):
   XX=           -351.8875   YY=           -432.9278   ZZ=           -407.0271
   XY=             -0.4624   XZ=             -2.5455   YZ=             -2.3173

 Normal termination of Gaussian 16 at Tue May  3 23:18:28 2022.
