 Gaussian 16, Revision A.03,
 Gaussian 16:  ES64L-G16RevA.03 25-Dec-2016

 -----------------------------------
 #p cam-b3lyp/Def2SVP td=(nstates=5)
 -----------------------------------

 -------------------------------------------------------
 step_1101_chromophore_1 TDDFT with cam-b3lyp functional
 -------------------------------------------------------
 Symbolic Z-matrix:
 Charge =  0 Multiplicity = 1

                         Standard orientation:
 ---------------------------------------------------------------------
 Center     Atomic      Atomic             Coordinates (Angstroms)
 Number     Number       Type             X           Y           Z
 ---------------------------------------------------------------------
      1         12           0        5.923759    0.429195   -0.095197
      2          6           0        3.787431   -2.278265   -0.543195
      3          6           0        3.503564    2.528665   -1.558429
      4          6           0        8.093888    3.023405    0.222552
      5          6           0        8.561850   -1.822129    0.805652
      6          7           0        3.819274    0.166854   -0.645205
      7          6           0        3.137515   -1.051119   -0.812622
      8          6           0        1.715617   -0.831176   -1.378643
      9          6           0        1.821476    0.619185   -1.994662
     10          6           0        3.162254    1.198092   -1.296804
     11          6           0        1.873484    0.776012   -3.560972
     12          6           0        0.504787   -1.134675   -0.467159
     13          6           0       -0.790222   -1.618898   -1.073622
     14          6           0       -1.889316   -2.145668   -0.126465
     15          8           0       -1.679917   -2.380089    1.081438
     16          8           0       -3.084444   -2.218656   -0.691800
     17          7           0        5.815076    2.473806   -0.639632
     18          6           0        4.739230    3.143980   -1.132834
     19          6           0        5.088992    4.506279   -1.174422
     20          6           0        6.269995    4.710529   -0.462153
     21          6           0        6.796354    3.371219   -0.257125
     22          6           0        4.144962    5.420102   -1.948810
     23          6           0        6.984550    5.984665    0.054870
     24          8           0        8.009816    6.035361    0.746538
     25          6           0        6.297102    7.291280   -0.249916
     26          7           0        7.952642    0.521735    0.451045
     27          6           0        8.633187    1.762094    0.533631
     28          6           0       10.086784    1.499066    0.902308
     29          6           0       10.160104    0.015792    1.341350
     30          6           0        8.779583   -0.468863    0.923167
     31          6           0       11.161219    1.910941   -0.167849
     32          6           0       10.498601   -0.121616    2.826475
     33          6           0        9.398077    0.481928    3.710939
     34          7           0        6.161930   -1.558358    0.088986
     35          6           0        7.335318   -2.330532    0.416886
     36          6           0        7.017773   -3.767828    0.377503
     37          6           0        5.646286   -3.774839    0.057465
     38          6           0        5.143637   -2.430574   -0.105596
     39          6           0        7.990753   -4.885265    0.710706
     40          6           0        4.615615   -4.661946   -0.089002
     41          8           0        4.590606   -5.880453    0.000471
     42          6           0        3.480541   -3.799652   -0.784018
     43          6           0        2.156655   -4.304044   -0.235432
     44          8           0        1.759713   -4.381817    0.901087
     45          8           0        1.383124   -4.619419   -1.383908
     46          6           0       -0.004059   -5.185117   -0.978943
     47          6           0       -4.241036   -2.358354    0.243617
     48          6           0       -5.401813   -1.571014   -0.357069
     49          6           0       -6.739043   -1.716028   -0.303542
     50          6           0       -7.291986   -2.896455    0.452652
     51          6           0       -7.627428   -0.736569   -1.027714
     52          6           0       -7.547833    0.728956   -0.679569
     53          6           0       -7.570216    1.038623    0.812255
     54          6           0       -8.888232    1.745558    1.298994
     55          6           0       -8.660141    3.286297    1.273098
     56          6           0       -9.305052    1.308187    2.702794
     57          6           0      -10.753889    1.806892    3.005287
     58          6           0      -11.836442    0.748890    2.898206
     59          6           0      -13.217169    1.189889    2.366650
     60          6           0      -14.364378    1.055153    3.426852
     61          6           0      -13.598042    0.391093    1.094924
     62          6           0      -13.873982    1.367617   -0.058259
     63          6           0      -14.111794    0.756040   -1.478283
     64          6           0      -12.938398    0.995166   -2.390660
     65          6           0      -13.497102    1.060137   -3.884314
     66          6           0      -11.983076   -0.203671   -2.259280
     67          1           0        2.707947    3.063275   -2.082619
     68          1           0        8.886859    3.773446    0.183521
     69          1           0        9.354392   -2.555874    0.966601
     70          1           0        1.760407   -1.506547   -2.233145
     71          1           0        0.958584    1.241054   -1.758390
     72          1           0        1.316296    1.622756   -3.961205
     73          1           0        1.312577   -0.081777   -3.933600
     74          1           0        2.914061    0.768853   -3.882522
     75          1           0        0.293175   -0.144156   -0.062249
     76          1           0        0.782695   -1.844912    0.311351
     77          1           0       -0.543105   -2.442486   -1.742998
     78          1           0       -1.233670   -0.733089   -1.529336
     79          1           0        3.742329    5.037346   -2.886507
     80          1           0        4.732642    6.232492   -2.377463
     81          1           0        3.358720    5.883704   -1.354146
     82          1           0        5.249189    7.315140    0.049788
     83          1           0        6.292831    7.398911   -1.334613
     84          1           0        6.912891    8.040390    0.247601
     85          1           0       10.223340    2.237234    1.692833
     86          1           0       10.931289   -0.379172    0.678654
     87          1           0       10.742517    2.114953   -1.153026
     88          1           0       11.914968    1.137446   -0.317408
     89          1           0       11.630082    2.864004    0.077592
     90          1           0       11.316939    0.521770    3.150654
     91          1           0       10.705792   -1.165716    3.060066
     92          1           0        8.409828    0.426575    3.255868
     93          1           0        9.561909    1.501680    4.060410
     94          1           0        9.395532   -0.233867    4.532509
     95          1           0        8.549336   -4.465138    1.546830
     96          1           0        8.654420   -5.227955   -0.083372
     97          1           0        7.434617   -5.772311    1.013738
     98          1           0        3.402148   -4.081700   -1.834631
     99          1           0        0.293694   -6.070360   -0.417109
    100          1           0       -0.465043   -5.512472   -1.910994
    101          1           0       -0.639881   -4.576613   -0.336921
    102          1           0       -4.000315   -2.015984    1.250679
    103          1           0       -4.461286   -3.421285    0.145808
    104          1           0       -4.974630   -0.677905   -0.813710
    105          1           0       -7.878278   -3.547674   -0.195944
    106          1           0       -8.016691   -2.653175    1.230045
    107          1           0       -6.586703   -3.642031    0.822180
    108          1           0       -8.659703   -1.078903   -0.956095
    109          1           0       -7.376550   -0.731462   -2.088477
    110          1           0       -8.433646    1.250427   -1.043167
    111          1           0       -6.582564    1.060668   -1.063826
    112          1           0       -6.697185    1.610481    1.128658
    113          1           0       -7.521834    0.088341    1.343658
    114          1           0       -9.684556    1.634353    0.563282
    115          1           0       -8.665720    3.549586    2.331573
    116          1           0       -9.538655    3.754475    0.828129
    117          1           0       -7.725762    3.642945    0.840872
    118          1           0       -8.666168    1.603771    3.534563
    119          1           0       -9.371243    0.220685    2.725531
    120          1           0      -11.056896    2.562267    2.279328
    121          1           0      -10.748927    2.294811    3.980053
    122          1           0      -11.949876    0.257805    3.864356
    123          1           0      -11.446444   -0.052899    2.271440
    124          1           0      -13.267560    2.248666    2.112223
    125          1           0      -14.595485   -0.008650    3.473148
    126          1           0      -15.227097    1.531325    2.961817
    127          1           0      -14.239468    1.386834    4.457905
    128          1           0      -14.557086   -0.113029    1.211754
    129          1           0      -12.912075   -0.348499    0.681951
    130          1           0      -13.273781    2.277187   -0.083897
    131          1           0      -14.826447    1.765748    0.293064
    132          1           0      -14.991835    1.304752   -1.813426
    133          1           0      -14.371079   -0.297572   -1.373856
    134          1           0      -12.299071    1.833697   -2.117774
    135          1           0      -14.562896    1.281005   -3.821703
    136          1           0      -13.354373    0.100983   -4.381681
    137          1           0      -12.964240    1.903085   -4.325302
    138          1           0      -10.956267    0.129155   -2.406369
    139          1           0      -12.308093   -1.066872   -2.839405
    140          1           0      -12.007740   -0.606639   -1.246555
 ---------------------------------------------------------------------

 SCF Done:  E(RCAM-B3LYP) =  -3007.14969368     A.U. after   19 cycles

 Excitation energies and oscillator strengths:

 Excited State   1:      Singlet-A      1.5857 eV  781.89 nm  f=0.3752  <S**2>=0.000
     245 -> 248        0.16546
     246 -> 247        0.69074
     245 <- 248        0.10962
 This state for optimization and/or second-order correction.
 Total Energy, E(TD-HF/TD-DFT) =  -3007.09142069
 Copying the excited state density for this state as the 1-particle RhoCI density.

 Excited State   2:      Singlet-A      2.1900 eV  566.14 nm  f=0.1163  <S**2>=0.000
     245 -> 247        0.64186
     246 -> 248       -0.28509

 Excited State   3:      Singlet-A      3.2607 eV  380.24 nm  f=0.0041  <S**2>=0.000
     244 -> 247        0.67822

 Excited State   4:      Singlet-A      3.2974 eV  376.01 nm  f=0.0083  <S**2>=0.000
     240 -> 247       -0.13824
     241 -> 247        0.33731
     241 -> 249        0.20783
     241 -> 250       -0.11806
     243 -> 247        0.49794
     243 -> 249        0.12577

 Excited State   5:      Singlet-A      3.4075 eV  363.85 nm  f=0.0813  <S**2>=0.000
     240 -> 247       -0.11199
     241 -> 247        0.40739
     243 -> 247       -0.37911
     244 -> 247       -0.13025
     246 -> 248       -0.36460

 The electronic state is 1-A.
 Alpha  occ. eigenvalues --  -46.87627 -19.25907 -19.23977 -19.19721 -19.19305
 Alpha  occ. eigenvalues --  -19.19016 -19.18253 -14.42605 -14.42435 -14.39674
 Alpha  occ. eigenvalues --  -14.39553 -10.39451 -10.38276 -10.35551 -10.33495
 Alpha  occ. eigenvalues --  -10.32972 -10.32642 -10.31596 -10.31194 -10.31039
 Alpha  occ. eigenvalues --  -10.30806 -10.30267 -10.30147 -10.29868 -10.29625
 Alpha  occ. eigenvalues --  -10.28939 -10.28883 -10.28515 -10.28442 -10.28103
 Alpha  occ. eigenvalues --  -10.27842 -10.27829 -10.27639 -10.27541 -10.27329
 Alpha  occ. eigenvalues --  -10.27308 -10.27174 -10.27047 -10.26988 -10.26820
 Alpha  occ. eigenvalues --  -10.26746 -10.26510 -10.26452 -10.26435 -10.26277
 Alpha  occ. eigenvalues --  -10.26110 -10.25996 -10.25991 -10.25968 -10.25849
 Alpha  occ. eigenvalues --  -10.25784 -10.25710 -10.25389 -10.24982 -10.24957
 Alpha  occ. eigenvalues --  -10.24794 -10.24766 -10.24735 -10.24677 -10.24640
 Alpha  occ. eigenvalues --  -10.24593 -10.24583 -10.24520 -10.24424 -10.24406
 Alpha  occ. eigenvalues --  -10.24318  -3.16297  -1.91209  -1.90742  -1.90617
 Alpha  occ. eigenvalues --   -1.17394  -1.14131  -1.09425  -1.09160  -1.06548
 Alpha  occ. eigenvalues --   -1.06160  -1.03574  -1.02863  -1.02231  -1.01258
 Alpha  occ. eigenvalues --   -0.91851  -0.91325  -0.90226  -0.89418  -0.89202
 Alpha  occ. eigenvalues --   -0.89124  -0.88426  -0.87801  -0.87260  -0.87109
 Alpha  occ. eigenvalues --   -0.86546  -0.85805  -0.84818  -0.83550  -0.83378
 Alpha  occ. eigenvalues --   -0.82707  -0.81859  -0.81500  -0.80906  -0.80139
 Alpha  occ. eigenvalues --   -0.80022  -0.78659  -0.78056  -0.77144  -0.76293
 Alpha  occ. eigenvalues --   -0.75687  -0.75557  -0.74943  -0.74781  -0.74350
 Alpha  occ. eigenvalues --   -0.73831  -0.73091  -0.71522  -0.70337  -0.69521
 Alpha  occ. eigenvalues --   -0.68829  -0.68689  -0.66780  -0.66370  -0.65275
 Alpha  occ. eigenvalues --   -0.64963  -0.64818  -0.64521  -0.64458  -0.63754
 Alpha  occ. eigenvalues --   -0.63545  -0.63175  -0.63078  -0.60660  -0.60296
 Alpha  occ. eigenvalues --   -0.59817  -0.59483  -0.58610  -0.58403  -0.57644
 Alpha  occ. eigenvalues --   -0.57416  -0.56453  -0.56374  -0.55981  -0.55481
 Alpha  occ. eigenvalues --   -0.55420  -0.55191  -0.54732  -0.54373  -0.54168
 Alpha  occ. eigenvalues --   -0.53704  -0.53607  -0.53341  -0.52957  -0.52763
 Alpha  occ. eigenvalues --   -0.52722  -0.52581  -0.52332  -0.52204  -0.51885
 Alpha  occ. eigenvalues --   -0.51765  -0.51503  -0.51293  -0.51262  -0.50841
 Alpha  occ. eigenvalues --   -0.50348  -0.50038  -0.49835  -0.49714  -0.49413
 Alpha  occ. eigenvalues --   -0.49259  -0.48944  -0.48868  -0.48844  -0.48675
 Alpha  occ. eigenvalues --   -0.48567  -0.48330  -0.48252  -0.47981  -0.47964
 Alpha  occ. eigenvalues --   -0.47558  -0.47507  -0.46814  -0.46775  -0.46767
 Alpha  occ. eigenvalues --   -0.46609  -0.46530  -0.46274  -0.46202  -0.46091
 Alpha  occ. eigenvalues --   -0.45804  -0.45523  -0.45349  -0.45093  -0.44748
 Alpha  occ. eigenvalues --   -0.44512  -0.44356  -0.44211  -0.43990  -0.43892
 Alpha  occ. eigenvalues --   -0.43696  -0.43458  -0.43107  -0.42936  -0.42908
 Alpha  occ. eigenvalues --   -0.42886  -0.42750  -0.42403  -0.41984  -0.41931
 Alpha  occ. eigenvalues --   -0.41535  -0.41433  -0.41215  -0.41156  -0.40960
 Alpha  occ. eigenvalues --   -0.40621  -0.40545  -0.40442  -0.40250  -0.40222
 Alpha  occ. eigenvalues --   -0.40019  -0.39929  -0.39512  -0.39232  -0.39017
 Alpha  occ. eigenvalues --   -0.38660  -0.38540  -0.38440  -0.38043  -0.37569
 Alpha  occ. eigenvalues --   -0.37330  -0.36827  -0.36714  -0.36319  -0.36256
 Alpha  occ. eigenvalues --   -0.35994  -0.35194  -0.34955  -0.34449  -0.34318
 Alpha  occ. eigenvalues --   -0.33982  -0.33523  -0.32876  -0.31816  -0.31024
 Alpha  occ. eigenvalues --   -0.30538  -0.30276  -0.30135  -0.29911  -0.24582
 Alpha  occ. eigenvalues --   -0.21254
 Alpha virt. eigenvalues --   -0.09398  -0.01899   0.00183   0.02146   0.03834
 Alpha virt. eigenvalues --    0.04505   0.05103   0.05734   0.05930   0.06269
 Alpha virt. eigenvalues --    0.06550   0.07934   0.08176   0.08461   0.09064

 Mulliken charges:
               1
     1  Mg   0.830457
     2  C    0.063352
     3  C   -0.064631
     4  C   -0.035154
     5  C   -0.114516
     6  N   -0.317903
     7  C   -0.050170
     8  C    0.045992
     9  C   -0.132969
    10  C    0.075206
    11  C    0.058642
    12  C    0.072567
    13  C    0.046930
    14  C    0.156700
    15  O   -0.268906
    16  O   -0.315466
    17  N   -0.368048
    18  C    0.153403
    19  C   -0.146527
    20  C   -0.044442
    21  C    0.117050
    22  C    0.098107
    23  C    0.025860
    24  O   -0.211538
    25  C    0.038419
    26  N   -0.321791
    27  C    0.030578
    28  C   -0.068015
    29  C    0.008905
    30  C    0.079279
    31  C    0.059094
    32  C    0.060223
    33  C   -0.036360
    34  N   -0.409333
    35  C    0.141903
    36  C   -0.140707
    37  C    0.036572
    38  C    0.099017
    39  C    0.111417
    40  C    0.048482
    41  O   -0.182410
    42  C   -0.077491
    43  C    0.191643
    44  O   -0.186731
    45  O   -0.396385
    46  C    0.160356
    47  C    0.289204
    48  C   -0.165362
    49  C   -0.135503
    50  C    0.071340
    51  C    0.116170
    52  C    0.031338
    53  C    0.059007
    54  C   -0.174758
    55  C    0.052454
    56  C    0.059018
    57  C    0.006571
    58  C    0.089723
    59  C   -0.113560
    60  C    0.031775
    61  C    0.061146
    62  C   -0.058052
    63  C    0.073993
    64  C   -0.156494
    65  C    0.064086
    66  C    0.039541
    67  H   -0.017539
    68  H    0.001562
    69  H   -0.010586
    70  H    0.000543
    71  H    0.001157
    72  H    0.016413
    73  H    0.012107
    74  H    0.031840
    75  H    0.002585
    76  H    0.048992
    77  H    0.036933
    78  H    0.024413
    79  H    0.023104
    80  H   -0.002695
    81  H    0.032812
    82  H    0.036299
    83  H    0.031896
    84  H    0.033086
    85  H    0.015766
    86  H    0.000725
    87  H    0.015484
    88  H    0.015369
    89  H    0.018702
    90  H    0.011299
    91  H    0.008682
    92  H    0.027944
    93  H    0.031657
    94  H    0.014617
    95  H    0.025740
    96  H    0.039557
    97  H    0.039142
    98  H    0.052020
    99  H    0.045078
   100  H    0.038149
   101  H    0.056854
   102  H    0.068537
   103  H    0.029400
   104  H   -0.007317
   105  H    0.007405
   106  H    0.020669
   107  H    0.007545
   108  H   -0.013177
   109  H    0.015168
   110  H    0.002593
   111  H   -0.000405
   112  H   -0.007226
   113  H   -0.011751
   114  H   -0.006323
   115  H   -0.000911
   116  H    0.008950
   117  H    0.014091
   118  H    0.002928
   119  H   -0.008413
   120  H   -0.013894
   121  H   -0.005996
   122  H   -0.014975
   123  H   -0.017400
   124  H    0.006054
   125  H    0.001677
   126  H    0.002328
   127  H    0.017420
   128  H   -0.010319
   129  H   -0.006420
   130  H   -0.005093
   131  H   -0.018252
   132  H   -0.008279
   133  H   -0.005556
   134  H    0.000728
   135  H    0.005319
   136  H    0.013097
   137  H    0.014053
   138  H    0.011820
   139  H    0.006395
   140  H   -0.016476
 Sum of Mulliken charges =  -0.00000

 Dipole moment (field-independent basis, Debye):
    X=             -2.6757    Y=              3.4531    Z=             -3.7416  Tot=              5.7517
 Quadrupole moment (field-independent basis, Debye-Ang):
   XX=           -347.3722   YY=           -429.0890   ZZ=           -407.2967
   XY=              0.0221   XZ=             -2.8337   YZ=             -2.9802

 Normal termination of Gaussian 16 at Tue May  3 22:20:15 2022.
