 Gaussian 16, Revision A.03,
 Gaussian 16:  ES64L-G16RevA.03 25-Dec-2016

 ---------------------------------
 #p PBE1PBE/Def2SVP td=(nstates=5)
 ---------------------------------

 -----------------------------------------------------
 step_1101_chromophore_1 TDDFT with PBE1PBE functional
 -----------------------------------------------------
 Symbolic Z-matrix:
 Charge =  0 Multiplicity = 1

                         Standard orientation:
 ---------------------------------------------------------------------
 Center     Atomic      Atomic             Coordinates (Angstroms)
 Number     Number       Type             X           Y           Z
 ---------------------------------------------------------------------
      1         12           0        5.923759    0.429195   -0.095197
      2          6           0        3.787431   -2.278265   -0.543195
      3          6           0        3.503564    2.528665   -1.558429
      4          6           0        8.093888    3.023405    0.222552
      5          6           0        8.561850   -1.822129    0.805652
      6          7           0        3.819274    0.166854   -0.645205
      7          6           0        3.137515   -1.051119   -0.812622
      8          6           0        1.715617   -0.831176   -1.378643
      9          6           0        1.821476    0.619185   -1.994662
     10          6           0        3.162254    1.198092   -1.296804
     11          6           0        1.873484    0.776012   -3.560972
     12          6           0        0.504787   -1.134675   -0.467159
     13          6           0       -0.790222   -1.618898   -1.073622
     14          6           0       -1.889316   -2.145668   -0.126465
     15          8           0       -1.679917   -2.380089    1.081438
     16          8           0       -3.084444   -2.218656   -0.691800
     17          7           0        5.815076    2.473806   -0.639632
     18          6           0        4.739230    3.143980   -1.132834
     19          6           0        5.088992    4.506279   -1.174422
     20          6           0        6.269995    4.710529   -0.462153
     21          6           0        6.796354    3.371219   -0.257125
     22          6           0        4.144962    5.420102   -1.948810
     23          6           0        6.984550    5.984665    0.054870
     24          8           0        8.009816    6.035361    0.746538
     25          6           0        6.297102    7.291280   -0.249916
     26          7           0        7.952642    0.521735    0.451045
     27          6           0        8.633187    1.762094    0.533631
     28          6           0       10.086784    1.499066    0.902308
     29          6           0       10.160104    0.015792    1.341350
     30          6           0        8.779583   -0.468863    0.923167
     31          6           0       11.161219    1.910941   -0.167849
     32          6           0       10.498601   -0.121616    2.826475
     33          6           0        9.398077    0.481928    3.710939
     34          7           0        6.161930   -1.558358    0.088986
     35          6           0        7.335318   -2.330532    0.416886
     36          6           0        7.017773   -3.767828    0.377503
     37          6           0        5.646286   -3.774839    0.057465
     38          6           0        5.143637   -2.430574   -0.105596
     39          6           0        7.990753   -4.885265    0.710706
     40          6           0        4.615615   -4.661946   -0.089002
     41          8           0        4.590606   -5.880453    0.000471
     42          6           0        3.480541   -3.799652   -0.784018
     43          6           0        2.156655   -4.304044   -0.235432
     44          8           0        1.759713   -4.381817    0.901087
     45          8           0        1.383124   -4.619419   -1.383908
     46          6           0       -0.004059   -5.185117   -0.978943
     47          6           0       -4.241036   -2.358354    0.243617
     48          6           0       -5.401813   -1.571014   -0.357069
     49          6           0       -6.739043   -1.716028   -0.303542
     50          6           0       -7.291986   -2.896455    0.452652
     51          6           0       -7.627428   -0.736569   -1.027714
     52          6           0       -7.547833    0.728956   -0.679569
     53          6           0       -7.570216    1.038623    0.812255
     54          6           0       -8.888232    1.745558    1.298994
     55          6           0       -8.660141    3.286297    1.273098
     56          6           0       -9.305052    1.308187    2.702794
     57          6           0      -10.753889    1.806892    3.005287
     58          6           0      -11.836442    0.748890    2.898206
     59          6           0      -13.217169    1.189889    2.366650
     60          6           0      -14.364378    1.055153    3.426852
     61          6           0      -13.598042    0.391093    1.094924
     62          6           0      -13.873982    1.367617   -0.058259
     63          6           0      -14.111794    0.756040   -1.478283
     64          6           0      -12.938398    0.995166   -2.390660
     65          6           0      -13.497102    1.060137   -3.884314
     66          6           0      -11.983076   -0.203671   -2.259280
     67          1           0        2.707947    3.063275   -2.082619
     68          1           0        8.886859    3.773446    0.183521
     69          1           0        9.354392   -2.555874    0.966601
     70          1           0        1.760407   -1.506547   -2.233145
     71          1           0        0.958584    1.241054   -1.758390
     72          1           0        1.316296    1.622756   -3.961205
     73          1           0        1.312577   -0.081777   -3.933600
     74          1           0        2.914061    0.768853   -3.882522
     75          1           0        0.293175   -0.144156   -0.062249
     76          1           0        0.782695   -1.844912    0.311351
     77          1           0       -0.543105   -2.442486   -1.742998
     78          1           0       -1.233670   -0.733089   -1.529336
     79          1           0        3.742329    5.037346   -2.886507
     80          1           0        4.732642    6.232492   -2.377463
     81          1           0        3.358720    5.883704   -1.354146
     82          1           0        5.249189    7.315140    0.049788
     83          1           0        6.292831    7.398911   -1.334613
     84          1           0        6.912891    8.040390    0.247601
     85          1           0       10.223340    2.237234    1.692833
     86          1           0       10.931289   -0.379172    0.678654
     87          1           0       10.742517    2.114953   -1.153026
     88          1           0       11.914968    1.137446   -0.317408
     89          1           0       11.630082    2.864004    0.077592
     90          1           0       11.316939    0.521770    3.150654
     91          1           0       10.705792   -1.165716    3.060066
     92          1           0        8.409828    0.426575    3.255868
     93          1           0        9.561909    1.501680    4.060410
     94          1           0        9.395532   -0.233867    4.532509
     95          1           0        8.549336   -4.465138    1.546830
     96          1           0        8.654420   -5.227955   -0.083372
     97          1           0        7.434617   -5.772311    1.013738
     98          1           0        3.402148   -4.081700   -1.834631
     99          1           0        0.293694   -6.070360   -0.417109
    100          1           0       -0.465043   -5.512472   -1.910994
    101          1           0       -0.639881   -4.576613   -0.336921
    102          1           0       -4.000315   -2.015984    1.250679
    103          1           0       -4.461286   -3.421285    0.145808
    104          1           0       -4.974630   -0.677905   -0.813710
    105          1           0       -7.878278   -3.547674   -0.195944
    106          1           0       -8.016691   -2.653175    1.230045
    107          1           0       -6.586703   -3.642031    0.822180
    108          1           0       -8.659703   -1.078903   -0.956095
    109          1           0       -7.376550   -0.731462   -2.088477
    110          1           0       -8.433646    1.250427   -1.043167
    111          1           0       -6.582564    1.060668   -1.063826
    112          1           0       -6.697185    1.610481    1.128658
    113          1           0       -7.521834    0.088341    1.343658
    114          1           0       -9.684556    1.634353    0.563282
    115          1           0       -8.665720    3.549586    2.331573
    116          1           0       -9.538655    3.754475    0.828129
    117          1           0       -7.725762    3.642945    0.840872
    118          1           0       -8.666168    1.603771    3.534563
    119          1           0       -9.371243    0.220685    2.725531
    120          1           0      -11.056896    2.562267    2.279328
    121          1           0      -10.748927    2.294811    3.980053
    122          1           0      -11.949876    0.257805    3.864356
    123          1           0      -11.446444   -0.052899    2.271440
    124          1           0      -13.267560    2.248666    2.112223
    125          1           0      -14.595485   -0.008650    3.473148
    126          1           0      -15.227097    1.531325    2.961817
    127          1           0      -14.239468    1.386834    4.457905
    128          1           0      -14.557086   -0.113029    1.211754
    129          1           0      -12.912075   -0.348499    0.681951
    130          1           0      -13.273781    2.277187   -0.083897
    131          1           0      -14.826447    1.765748    0.293064
    132          1           0      -14.991835    1.304752   -1.813426
    133          1           0      -14.371079   -0.297572   -1.373856
    134          1           0      -12.299071    1.833697   -2.117774
    135          1           0      -14.562896    1.281005   -3.821703
    136          1           0      -13.354373    0.100983   -4.381681
    137          1           0      -12.964240    1.903085   -4.325302
    138          1           0      -10.956267    0.129155   -2.406369
    139          1           0      -12.308093   -1.066872   -2.839405
    140          1           0      -12.007740   -0.606639   -1.246555
 ---------------------------------------------------------------------

 SCF Done:  E(RPBE1PBE) =  -3005.33804256     A.U. after   16 cycles

 Excitation energies and oscillator strengths:

 Excited State   1:      Singlet-A      1.7562 eV  705.99 nm  f=0.3592  <S**2>=0.000
     245 -> 248        0.15889
     246 -> 247        0.69927
     246 <- 247       -0.12370
 This state for optimization and/or second-order correction.
 Total Energy, E(TD-HF/TD-DFT) =  -3005.27350437
 Copying the excited state density for this state as the 1-particle RhoCI density.

 Excited State   2:      Singlet-A      2.1917 eV  565.69 nm  f=0.1152  <S**2>=0.000
     245 -> 247        0.65259
     246 -> 248       -0.25883

 Excited State   3:      Singlet-A      2.7590 eV  449.38 nm  f=0.0014  <S**2>=0.000
     244 -> 247        0.66587
     244 -> 249       -0.13461

 Excited State   4:      Singlet-A      2.9374 eV  422.08 nm  f=0.0028  <S**2>=0.000
     242 -> 247        0.69284

 Excited State   5:      Singlet-A      2.9933 eV  414.21 nm  f=0.0037  <S**2>=0.000
     240 -> 247        0.12076
     241 -> 247        0.66815

 The electronic state is 1-A.
 Alpha  occ. eigenvalues --  -46.91032 -19.26596 -19.24667 -19.19906 -19.19559
 Alpha  occ. eigenvalues --  -19.19357 -19.18460 -14.42259 -14.41903 -14.39332
 Alpha  occ. eigenvalues --  -14.39254 -10.36510 -10.35299 -10.32726 -10.30559
 Alpha  occ. eigenvalues --  -10.30385 -10.30336 -10.29406 -10.28858 -10.28517
 Alpha  occ. eigenvalues --  -10.28414 -10.28072 -10.27835 -10.27482 -10.27385
 Alpha  occ. eigenvalues --  -10.26841 -10.26414 -10.26383 -10.26258 -10.25741
 Alpha  occ. eigenvalues --  -10.25599 -10.25503 -10.25323 -10.25181 -10.25119
 Alpha  occ. eigenvalues --  -10.25109 -10.24933 -10.24657 -10.24458 -10.24312
 Alpha  occ. eigenvalues --  -10.24099 -10.24056 -10.24025 -10.24021 -10.23687
 Alpha  occ. eigenvalues --  -10.23663 -10.23661 -10.23548 -10.23523 -10.23508
 Alpha  occ. eigenvalues --  -10.23470 -10.23015 -10.22912 -10.22546 -10.22439
 Alpha  occ. eigenvalues --  -10.22372 -10.22350 -10.22309 -10.22120 -10.22103
 Alpha  occ. eigenvalues --  -10.22094 -10.22053 -10.21991 -10.21958 -10.21949
 Alpha  occ. eigenvalues --  -10.21713  -3.13281  -1.86135  -1.85646  -1.85523
 Alpha  occ. eigenvalues --   -1.12245  -1.08841  -1.04178  -1.03870  -1.01412
 Alpha  occ. eigenvalues --   -1.00989  -0.98260  -0.97464  -0.96803  -0.95879
 Alpha  occ. eigenvalues --   -0.86177  -0.85438  -0.84319  -0.83611  -0.83479
 Alpha  occ. eigenvalues --   -0.83253  -0.82769  -0.81926  -0.81618  -0.81404
 Alpha  occ. eigenvalues --   -0.80867  -0.80022  -0.79028  -0.77806  -0.77663
 Alpha  occ. eigenvalues --   -0.76926  -0.76102  -0.75715  -0.75136  -0.74344
 Alpha  occ. eigenvalues --   -0.74281  -0.72942  -0.72365  -0.71439  -0.70458
 Alpha  occ. eigenvalues --   -0.69875  -0.69775  -0.69246  -0.68912  -0.68521
 Alpha  occ. eigenvalues --   -0.68145  -0.67488  -0.65964  -0.64660  -0.63859
 Alpha  occ. eigenvalues --   -0.63215  -0.62960  -0.61253  -0.60635  -0.59796
 Alpha  occ. eigenvalues --   -0.59401  -0.59119  -0.59000  -0.58580  -0.58339
 Alpha  occ. eigenvalues --   -0.57737  -0.57552  -0.57366  -0.55201  -0.54663
 Alpha  occ. eigenvalues --   -0.54427  -0.54021  -0.53225  -0.52997  -0.52199
 Alpha  occ. eigenvalues --   -0.51884  -0.50889  -0.50821  -0.50512  -0.49980
 Alpha  occ. eigenvalues --   -0.49814  -0.49747  -0.49306  -0.48927  -0.48582
 Alpha  occ. eigenvalues --   -0.48178  -0.48041  -0.47790  -0.47487  -0.47366
 Alpha  occ. eigenvalues --   -0.47255  -0.47141  -0.46769  -0.46741  -0.46382
 Alpha  occ. eigenvalues --   -0.46291  -0.46099  -0.46008  -0.45745  -0.45388
 Alpha  occ. eigenvalues --   -0.44890  -0.44621  -0.44372  -0.44264  -0.44071
 Alpha  occ. eigenvalues --   -0.43893  -0.43560  -0.43493  -0.43478  -0.43296
 Alpha  occ. eigenvalues --   -0.43175  -0.42945  -0.42880  -0.42628  -0.42584
 Alpha  occ. eigenvalues --   -0.42292  -0.42127  -0.41538  -0.41417  -0.41364
 Alpha  occ. eigenvalues --   -0.41217  -0.41209  -0.40962  -0.40846  -0.40749
 Alpha  occ. eigenvalues --   -0.40494  -0.40304  -0.40043  -0.39751  -0.39487
 Alpha  occ. eigenvalues --   -0.39245  -0.39152  -0.39088  -0.38722  -0.38604
 Alpha  occ. eigenvalues --   -0.38513  -0.38296  -0.37839  -0.37751  -0.37704
 Alpha  occ. eigenvalues --   -0.37634  -0.37510  -0.37156  -0.36779  -0.36732
 Alpha  occ. eigenvalues --   -0.36349  -0.36262  -0.36002  -0.35951  -0.35766
 Alpha  occ. eigenvalues --   -0.35527  -0.35354  -0.35260  -0.35134  -0.35023
 Alpha  occ. eigenvalues --   -0.34854  -0.34753  -0.34451  -0.34146  -0.33802
 Alpha  occ. eigenvalues --   -0.33443  -0.33438  -0.33221  -0.32843  -0.32590
 Alpha  occ. eigenvalues --   -0.32140  -0.31869  -0.31696  -0.31303  -0.31155
 Alpha  occ. eigenvalues --   -0.30922  -0.30174  -0.29854  -0.29550  -0.29352
 Alpha  occ. eigenvalues --   -0.29136  -0.28341  -0.28240  -0.27218  -0.26191
 Alpha  occ. eigenvalues --   -0.25760  -0.25571  -0.25556  -0.25152  -0.21463
 Alpha  occ. eigenvalues --   -0.18934
 Alpha virt. eigenvalues --   -0.11803  -0.05436  -0.04044  -0.02273  -0.00083
 Alpha virt. eigenvalues --    0.00529   0.01068   0.01290   0.01578   0.02653
 Alpha virt. eigenvalues --    0.03365   0.03700   0.04652   0.04970   0.05164

 Mulliken charges:
               1
     1  Mg   0.985795
     2  C    0.061156
     3  C   -0.054542
     4  C   -0.028759
     5  C   -0.094501
     6  N   -0.417651
     7  C    0.010036
     8  C   -0.015410
     9  C   -0.204841
    10  C    0.106985
    11  C   -0.001255
    12  C    0.017427
    13  C   -0.034859
    14  C    0.224658
    15  O   -0.300299
    16  O   -0.346547
    17  N   -0.482660
    18  C    0.182841
    19  C   -0.179900
    20  C   -0.091617
    21  C    0.149876
    22  C    0.040607
    23  C    0.074599
    24  O   -0.248104
    25  C   -0.034068
    26  N   -0.424499
    27  C    0.065350
    28  C   -0.136273
    29  C   -0.080364
    30  C    0.113548
    31  C    0.003029
    32  C   -0.000543
    33  C   -0.108103
    34  N   -0.532988
    35  C    0.150849
    36  C   -0.142451
    37  C   -0.032348
    38  C    0.151999
    39  C    0.058154
    40  C    0.145144
    41  O   -0.227794
    42  C   -0.188679
    43  C    0.283794
    44  O   -0.223008
    45  O   -0.424269
    46  C    0.096564
    47  C    0.244108
    48  C   -0.161860
    49  C   -0.201982
    50  C    0.014498
    51  C    0.055814
    52  C   -0.040709
    53  C    0.008222
    54  C   -0.261243
    55  C   -0.003681
    56  C   -0.003443
    57  C   -0.056430
    58  C    0.042777
    59  C   -0.204413
    60  C   -0.029646
    61  C    0.006514
    62  C   -0.116830
    63  C    0.011792
    64  C   -0.248004
    65  C    0.003206
    66  C   -0.022420
    67  H    0.013278
    68  H    0.031911
    69  H    0.018151
    70  H    0.040581
    71  H    0.037700
    72  H    0.043183
    73  H    0.040990
    74  H    0.060057
    75  H    0.037001
    76  H    0.082099
    77  H    0.070719
    78  H    0.056547
    79  H    0.049350
    80  H    0.026715
    81  H    0.060847
    82  H    0.063233
    83  H    0.059043
    84  H    0.060335
    85  H    0.053373
    86  H    0.038473
    87  H    0.043492
    88  H    0.042348
    89  H    0.045376
    90  H    0.045235
    91  H    0.040678
    92  H    0.059630
    93  H    0.057562
    94  H    0.043549
    95  H    0.051216
    96  H    0.065926
    97  H    0.066426
    98  H    0.089176
    99  H    0.067981
   100  H    0.060110
   101  H    0.084703
   102  H    0.093577
   103  H    0.056599
   104  H    0.023192
   105  H    0.035684
   106  H    0.047279
   107  H    0.033461
   108  H    0.020802
   109  H    0.048932
   110  H    0.036896
   111  H    0.031923
   112  H    0.024645
   113  H    0.026183
   114  H    0.032073
   115  H    0.028338
   116  H    0.035510
   117  H    0.041065
   118  H    0.034698
   119  H    0.025154
   120  H    0.020686
   121  H    0.026664
   122  H    0.017936
   123  H    0.014576
   124  H    0.042781
   125  H    0.030300
   126  H    0.031170
   127  H    0.044872
   128  H    0.022744
   129  H    0.027521
   130  H    0.025919
   131  H    0.017212
   132  H    0.025166
   133  H    0.026862
   134  H    0.036211
   135  H    0.032537
   136  H    0.039604
   137  H    0.041978
   138  H    0.041486
   139  H    0.033287
   140  H    0.015135
 Sum of Mulliken charges =  -0.00000

 Dipole moment (field-independent basis, Debye):
    X=             -2.6993    Y=              3.5891    Z=             -3.7879  Tot=              5.8751
 Quadrupole moment (field-independent basis, Debye-Ang):
   XX=           -341.5877   YY=           -426.4431   ZZ=           -404.4374
   XY=              0.6270   XZ=             -2.4232   YZ=             -3.4185

 Normal termination of Gaussian 16 at Tue May  3 22:37:11 2022.
